LAMMPS (29 Oct 2020)
Reading data file ...
  orthogonal box = (0.0000000 0.0000000 0.0000000) to (12.270000 12.270000 12.270000)
  1 by 1 by 1 MPI processor grid
  reading atoms ...
  107 atoms
  read_data CPU = 0.000 seconds
Reading eam potential file /home/gridsan/epan1/3320_atomistic_shared/lammps/potentials/Ag_u3.eam with DATE: 2007-06-11
WARNING: No fixes defined, atoms won't move (../verlet.cpp:54)
Neighbor list info ...
  update every 1 steps, delay 10 steps, check yes
  max neighbors/atom: 2000, page size: 100000
  master list distance cutoff = 7.55
  ghost atom cutoff = 7.55
  binsize = 3.775, bins = 4 4 4
  1 neighbor lists, perpetual/occasional/extra = 1 0 0
  (1) pair eam, perpetual
      attributes: half, newton on
      pair build: half/bin/atomonly/newton
      stencil: half/bin/3d/newton
      bin: standard
Setting up Verlet run ...
  Unit style    : metal
  Current step  : 0
  Time step     : 0.001
Per MPI rank memory allocation (min/avg/max) = 3.348 | 3.348 | 3.348 Mbytes
Step PotEng Lx Ly Lz Press Pxx Pyy Pzz 
       0   -303.97571        12.27        12.27        12.27    -1386.156    -1386.156    -1386.156    -1386.156 
Loop time of 9.53674e-07 on 1 procs for 0 steps with 107 atoms

0.0% CPU use with 1 MPI tasks x no OpenMP threads

MPI task timing breakdown:
Section |  min time  |  avg time  |  max time  |%varavg| %total
---------------------------------------------------------------
Pair    | 0          | 0          | 0          |   0.0 |  0.00
Neigh   | 0          | 0          | 0          |   0.0 |  0.00
Comm    | 0          | 0          | 0          |   0.0 |  0.00
Output  | 0          | 0          | 0          |   0.0 |  0.00
Modify  | 0          | 0          | 0          |   0.0 |  0.00
Other   |            | 9.537e-07  |            |       |100.00

Nlocal:        107.000 ave         107 max         107 min
Histogram: 1 0 0 0 0 0 0 0 0 0
Nghost:        983.000 ave         983 max         983 min
Histogram: 1 0 0 0 0 0 0 0 0 0
Neighs:        4558.00 ave        4558 max        4558 min
Histogram: 1 0 0 0 0 0 0 0 0 0

Total # of neighbors = 4558
Ave neighs/atom = 42.598131
Neighbor list builds = 0
Dangerous builds = 0
WARNING: Using 'neigh_modify every 1 delay 0 check yes' setting during minimization (../min.cpp:187)
Setting up cg style minimization ...
  Unit style    : metal
  Current step  : 0
WARNING: Energy due to 1 extra global DOFs will be included in minimizer energies
Per MPI rank memory allocation (min/avg/max) = 4.473 | 4.473 | 4.473 Mbytes
Step PotEng Lx Ly Lz Press Pxx Pyy Pzz 
       0   -303.97571        12.27        12.27        12.27    -1386.156    -1386.156    -1386.156    -1386.156 
      21   -303.98479    12.263244    12.263244    12.263244  0.022740538  0.022740538  0.022740538  0.022740538 
Loop time of 0.006073 on 1 procs for 21 steps with 107 atoms

100.0% CPU use with 1 MPI tasks x no OpenMP threads

Minimization stats:
  Stopping criterion = energy tolerance
  Energy initial, next-to-last, final = 
     -303.975710353122  -303.984790380312  -303.984790382048
  Force two-norm initial, final = 4.8001739 0.00082549177
  Force max component initial, final = 4.7946476 0.00012003836
  Final line search alpha, max atom move = 0.16794254 2.0159548e-05
  Iterations, force evaluations = 21 42

MPI task timing breakdown:
Section |  min time  |  avg time  |  max time  |%varavg| %total
---------------------------------------------------------------
Pair    | 0.0053968  | 0.0053968  | 0.0053968  |   0.0 | 88.87
Neigh   | 0          | 0          | 0          |   0.0 |  0.00
Comm    | 0.00013566 | 0.00013566 | 0.00013566 |   0.0 |  2.23
Output  | 0          | 0          | 0          |   0.0 |  0.00
Modify  | 0          | 0          | 0          |   0.0 |  0.00
Other   |            | 0.0005405  |            |       |  8.90

Nlocal:        107.000 ave         107 max         107 min
Histogram: 1 0 0 0 0 0 0 0 0 0
Nghost:        983.000 ave         983 max         983 min
Histogram: 1 0 0 0 0 0 0 0 0 0
Neighs:        4558.00 ave        4558 max        4558 min
Histogram: 1 0 0 0 0 0 0 0 0 0

Total # of neighbors = 4558
Ave neighs/atom = 42.598131
Neighbor list builds = 0
Dangerous builds = 0
Total energy (eV) = -303.984790382048
Number of atoms = 107
Lattice constant (Angstoms) = 12.2632438716433
Total wall time: 0:00:00
