LAMMPS (29 Oct 2020)
Reading data file ...
  orthogonal box = (0.0000000 0.0000000 0.0000000) to (40.900000 40.900000 40.900000)
  1 by 1 by 1 MPI processor grid
  reading atoms ...
  3999 atoms
  read_data CPU = 0.003 seconds
Reading eam potential file /home/gridsan/epan1/3320_atomistic_shared/lammps/potentials/Ag_u3.eam with DATE: 2007-06-11
WARNING: No fixes defined, atoms won't move (../verlet.cpp:54)
Neighbor list info ...
  update every 1 steps, delay 10 steps, check yes
  max neighbors/atom: 2000, page size: 100000
  master list distance cutoff = 7.55
  ghost atom cutoff = 7.55
  binsize = 3.775, bins = 11 11 11
  1 neighbor lists, perpetual/occasional/extra = 1 0 0
  (1) pair eam, perpetual
      attributes: half, newton on
      pair build: half/bin/atomonly/newton
      stencil: half/bin/3d/newton
      bin: standard
Setting up Verlet run ...
  Unit style    : metal
  Current step  : 0
  Time step     : 0.001
Per MPI rank memory allocation (min/avg/max) = 3.968 | 3.968 | 3.968 Mbytes
Step PotEng Lx Ly Lz Press Pxx Pyy Pzz 
       0   -11396.176         40.9         40.9         40.9   -37.516174   -37.516174   -37.516174   -37.516174 
Loop time of 9.53674e-07 on 1 procs for 0 steps with 3999 atoms

209.7% CPU use with 1 MPI tasks x no OpenMP threads

MPI task timing breakdown:
Section |  min time  |  avg time  |  max time  |%varavg| %total
---------------------------------------------------------------
Pair    | 0          | 0          | 0          |   0.0 |  0.00
Neigh   | 0          | 0          | 0          |   0.0 |  0.00
Comm    | 0          | 0          | 0          |   0.0 |  0.00
Output  | 0          | 0          | 0          |   0.0 |  0.00
Modify  | 0          | 0          | 0          |   0.0 |  0.00
Other   |            | 9.537e-07  |            |       |100.00

Nlocal:        3999.00 ave        3999 max        3999 min
Histogram: 1 0 0 0 0 0 0 0 0 0
Nghost:        5834.00 ave        5834 max        5834 min
Histogram: 1 0 0 0 0 0 0 0 0 0
Neighs:       171914.0 ave      171914 max      171914 min
Histogram: 1 0 0 0 0 0 0 0 0 0

Total # of neighbors = 171914
Ave neighs/atom = 42.989247
Neighbor list builds = 0
Dangerous builds = 0
WARNING: Using 'neigh_modify every 1 delay 0 check yes' setting during minimization (../min.cpp:187)
Setting up cg style minimization ...
  Unit style    : metal
  Current step  : 0
WARNING: Energy due to 1 extra global DOFs will be included in minimizer energies
Per MPI rank memory allocation (min/avg/max) = 5.093 | 5.093 | 5.093 Mbytes
Step PotEng Lx Ly Lz Press Pxx Pyy Pzz 
       0   -11396.176         40.9         40.9         40.9   -37.516174   -37.516174   -37.516174   -37.516174 
       7   -11396.182    40.899419    40.899419    40.899419  -0.91353713  -0.91353713  -0.91353713  -0.91353713 
Loop time of 0.0667109 on 1 procs for 7 steps with 3999 atoms

99.8% CPU use with 1 MPI tasks x no OpenMP threads

Minimization stats:
  Stopping criterion = energy tolerance
  Energy initial, next-to-last, final = 
     -11396.1757540784  -11396.1823320786  -11396.1823321454
  Force two-norm initial, final = 4.8116337 0.15319933
  Force max component initial, final = 4.8061725 0.11702932
  Final line search alpha, max atom move = 0.011853019 0.0013871508
  Iterations, force evaluations = 7 14

MPI task timing breakdown:
Section |  min time  |  avg time  |  max time  |%varavg| %total
---------------------------------------------------------------
Pair    | 0.063494   | 0.063494   | 0.063494   |   0.0 | 95.18
Neigh   | 0          | 0          | 0          |   0.0 |  0.00
Comm    | 0.0003314  | 0.0003314  | 0.0003314  |   0.0 |  0.50
Output  | 0          | 0          | 0          |   0.0 |  0.00
Modify  | 0          | 0          | 0          |   0.0 |  0.00
Other   |            | 0.002886   |            |       |  4.33

Nlocal:        3999.00 ave        3999 max        3999 min
Histogram: 1 0 0 0 0 0 0 0 0 0
Nghost:        5834.00 ave        5834 max        5834 min
Histogram: 1 0 0 0 0 0 0 0 0 0
Neighs:       171914.0 ave      171914 max      171914 min
Histogram: 1 0 0 0 0 0 0 0 0 0

Total # of neighbors = 171914
Ave neighs/atom = 42.989247
Neighbor list builds = 0
Dangerous builds = 0
Total energy (eV) = -11396.1823321454
Number of atoms = 3999
Lattice constant (Angstoms) = 40.8994189454374
Total wall time: 0:00:00
