LAMMPS (29 Oct 2020)
Reading data file ...
  orthogonal box = (0.0000000 0.0000000 0.0000000) to (20.437500 20.437500 32.387000)
  1 by 1 by 1 MPI processor grid
  reading atoms ...
  342 atoms
  read_data CPU = 0.001 seconds
WARNING: No fixes defined, atoms won't move (../verlet.cpp:54)
Neighbor list info ...
  update every 1 steps, delay 10 steps, check yes
  max neighbors/atom: 2000, page size: 100000
  master list distance cutoff = 6.5
  ghost atom cutoff = 6.5
  binsize = 3.25, bins = 7 7 10
  1 neighbor lists, perpetual/occasional/extra = 1 0 0
  (1) pair lj/cut, perpetual
      attributes: half, newton on
      pair build: half/bin/atomonly/newton
      stencil: half/bin/3d/newton
      bin: standard
Setting up Verlet run ...
  Unit style    : metal
  Current step  : 0
  Time step     : 0.001
Per MPI rank memory allocation (min/avg/max) = 3.085 | 3.085 | 3.085 Mbytes
Step PotEng Lx Ly Lz Press Pxx Pyy Pzz 
       0   -716.39777      20.4375      20.4375       32.387     253.4691    -1109.689    -1109.689    2979.7854 
Loop time of 0 on 1 procs for 0 steps with 342 atoms

0.0% CPU use with 1 MPI tasks x no OpenMP threads

MPI task timing breakdown:
Section |  min time  |  avg time  |  max time  |%varavg| %total
---------------------------------------------------------------
Pair    | 0          | 0          | 0          |   0.0 |  0.00
Neigh   | 0          | 0          | 0          |   0.0 |  0.00
Comm    | 0          | 0          | 0          |   0.0 |  0.00
Output  | 0          | 0          | 0          |   0.0 |  0.00
Modify  | 0          | 0          | 0          |   0.0 |  0.00
Other   |            | 0          |            |       |  0.00

Nlocal:        342.000 ave         342 max         342 min
Histogram: 1 0 0 0 0 0 0 0 0 0
Nghost:        593.000 ave         593 max         593 min
Histogram: 1 0 0 0 0 0 0 0 0 0
Neighs:        7758.00 ave        7758 max        7758 min
Histogram: 1 0 0 0 0 0 0 0 0 0

Total # of neighbors = 7758
Ave neighs/atom = 22.684211
Neighbor list builds = 0
Dangerous builds = 0
Total energy (eV) = -716.397765916907
Number of atoms = 342
Lattice constant (Angstoms) = 20.4375
Total wall time: 0:00:00
