Header of the LAMMPS data file 

4 atoms 
1 atom types

0.0 3.8656565656565656  xlo xhi
0.0 3.8656565656565656  ylo yhi
0.0 3.8656565656565656  zlo zhi

Masses 

1  107.8682

Atoms # atomic 

1 1 0.00000 0.00000 0.00000 
2 1 0.00000 1.93283 1.93283 
3 1 1.93283 0.00000 1.93283 
4 1 1.93283 1.93283 0.00000 
