
     Program PWSCF v.7.2 starts on 14Oct2023 at 15:41:51 

     This program is part of the open-source Quantum ESPRESSO suite
     for quantum simulation of materials; please cite
         "P. Giannozzi et al., J. Phys.:Condens. Matter 21 395502 (2009);
         "P. Giannozzi et al., J. Phys.:Condens. Matter 29 465901 (2017);
         "P. Giannozzi et al., J. Chem. Phys. 152 154105 (2020);
          URL http://www.quantum-espresso.org", 
     in publications or presentations arising from this work. More details at
     http://www.quantum-espresso.org/quote

     Parallel version (MPI), running on     1 processors

     MPI processes distributed on     1 nodes
     43402 MiB available memory on the printing compute node when the environment starts

     Waiting for input...
     Reading input from standard input
Warning: card &CELL ignored
Warning: card / ignored

     Current dimensions of program PWSCF are:
     Max number of different atomic species (ntypx) = 10
     Max number of k-points (npk) =  40000
     Max angular momentum in pseudopotentials (lmaxx) =  4
     file Ge.pz-dn-rrkjus_psl.0.2.2.UPF: wavefunction(s)  3D renormalized
     Message from routine setup:
     using ibrav=0 with symmetry is DISCOURAGED, use correct ibrav instead

     Subspace diagonalization in iterative solution of the eigenvalue problem:
     a serial algorithm will be used


     G-vector sticks info
     --------------------
     sticks:   dense  smooth     PW     G-vecs:    dense   smooth      PW
     Sum         433     433    139                 5985     5985    1067

     Using Slab Decomposition



     bravais-lattice index     =            0
     lattice parameter (alat)  =       7.2832  a.u.
     unit-cell volume          =     273.1814 (a.u.)^3
     number of atoms/cell      =            2
     number of atomic types    =            1
     number of electrons       =        28.00
     number of Kohn-Sham states=           14
     kinetic-energy cutoff     =      30.0000  Ry
     charge density cutoff     =     120.0000  Ry
     scf convergence threshold =      1.0E-07
     mixing beta               =       0.5000
     number of iterations used =            8  plain     mixing
     Exchange-correlation= LDA
                           (   1   1   0   0   0   0   0)

     celldm(1)=   7.283197  celldm(2)=   0.000000  celldm(3)=   0.000000
     celldm(4)=   0.000000  celldm(5)=   0.000000  celldm(6)=   0.000000

     crystal axes: (cart. coord. in units of alat)
               a(1) = (   0.000000   0.707107   0.707107 )  
               a(2) = (   0.707107   0.000000   0.707107 )  
               a(3) = (   0.707107   0.707107   0.000000 )  

     reciprocal axes: (cart. coord. in units 2 pi/alat)
               b(1) = ( -0.707107  0.707107  0.707107 )  
               b(2) = (  0.707107 -0.707107  0.707107 )  
               b(3) = (  0.707107  0.707107 -0.707107 )  


     PseudoPot. # 1 for Ge read from file:
     ../Ge.pz-dn-rrkjus_psl.0.2.2.UPF
     MD5 check sum: 9948ad5293734715c8cf6021b6c26e6d
     Pseudo is Ultrasoft + core correction, Zval = 14.0
     Generated using "atomic" code by A. Dal Corso  v.5.0.2 svn rev. 9415
     Using radial grid of 1207 points,  6 beta functions with: 
                l(1) =   0
                l(2) =   0
                l(3) =   1
                l(4) =   1
                l(5) =   2
                l(6) =   2
     Q(r) pseudized with 0 coefficients 


     atomic species   valence    mass     pseudopotential
        Ge            14.00    72.63000     Ge( 1.00)

     48 Sym. Ops., with inversion, found (24 have fractional translation)



   Cartesian axes

     site n.     atom                  positions (alat units)
         1           Ge  tau(   1) = (   0.0000000   0.0000000   0.0000000  )
         2           Ge  tau(   2) = (   0.3535532   0.3535532   0.3535532  )

     number of k points=     8
                       cart. coord. in units 2pi/alat
        k(    1) = (   0.0000000   0.0000000   0.0000000), wk =   0.0312500
        k(    2) = (   0.1767767   0.1767767  -0.1767767), wk =   0.2500000
        k(    3) = (  -0.3535534  -0.3535534   0.3535534), wk =   0.1250000
        k(    4) = (   0.3535534   0.0000000   0.0000000), wk =   0.1875000
        k(    5) = (  -0.1767767  -0.5303301   0.5303301), wk =   0.7500000
        k(    6) = (   0.0000000  -0.3535534   0.3535534), wk =   0.3750000
        k(    7) = (  -0.7071068   0.0000000   0.0000000), wk =   0.0937500
        k(    8) = (  -0.7071068   0.3535534   0.0000000), wk =   0.1875000

     Dense  grid:     5985 G-vectors     FFT dimensions: (  32,  32,  32)

     Estimated max dynamical RAM per process >      25.85 MB

     Check: negative core charge=   -0.000245

     Initial potential from superposition of free atoms

     starting charge      27.9988, renormalised to      28.0000
     Starting wfcs are   18 randomized atomic wfcs

     total cpu time spent up to now is        0.9 secs

     Self-consistent Calculation

     iteration #  1     ecut=    30.00 Ry     beta= 0.50
     Davidson diagonalization with overlap
     ethr =  1.00E-02,  avg # of iterations =  2.0

     Threshold (ethr) on eigenvalues was too large:
     Diagonalizing with lowered threshold

     Davidson diagonalization with overlap
     ethr =  1.60E-04,  avg # of iterations =  2.0

     total cpu time spent up to now is        1.6 secs

     total energy              =    -421.73469163 Ry
     estimated scf accuracy    <       0.04809476 Ry

     iteration #  2     ecut=    30.00 Ry     beta= 0.50
     Davidson diagonalization with overlap
     ethr =  1.72E-04,  avg # of iterations =  1.1

     total cpu time spent up to now is        1.9 secs

     total energy              =    -421.73313466 Ry
     estimated scf accuracy    <       0.00824443 Ry

     iteration #  3     ecut=    30.00 Ry     beta= 0.50
     Davidson diagonalization with overlap
     ethr =  2.94E-05,  avg # of iterations =  2.0

     total cpu time spent up to now is        2.3 secs

     total energy              =    -421.73387865 Ry
     estimated scf accuracy    <       0.00009217 Ry

     iteration #  4     ecut=    30.00 Ry     beta= 0.50
     Davidson diagonalization with overlap
     ethr =  3.29E-07,  avg # of iterations =  3.4

     total cpu time spent up to now is        2.8 secs

     total energy              =    -421.73390557 Ry
     estimated scf accuracy    <       0.00001660 Ry

     iteration #  5     ecut=    30.00 Ry     beta= 0.50
     Davidson diagonalization with overlap
     ethr =  5.93E-08,  avg # of iterations =  2.2

     total cpu time spent up to now is        3.2 secs

     total energy              =    -421.73390757 Ry
     estimated scf accuracy    <       0.00000110 Ry

     iteration #  6     ecut=    30.00 Ry     beta= 0.50
     Davidson diagonalization with overlap
     ethr =  3.94E-09,  avg # of iterations =  2.9

     total cpu time spent up to now is        3.7 secs

     total energy              =    -421.73390805 Ry
     estimated scf accuracy    <       0.00000015 Ry

     iteration #  7     ecut=    30.00 Ry     beta= 0.50
     Davidson diagonalization with overlap
     ethr =  5.21E-10,  avg # of iterations =  2.2

     total cpu time spent up to now is        4.1 secs

     End of self-consistent calculation

          k = 0.0000 0.0000 0.0000 (   749 PWs)   bands (ev):

   -15.3891 -15.3890 -15.3890 -15.3250 -15.3250 -15.0567 -15.0567 -15.0567
   -15.0399 -15.0399  -3.9467   9.7844   9.7845   9.7845

          k = 0.1768 0.1768-0.1768 (   757 PWs)   bands (ev):

   -15.4095 -15.4094 -15.3750 -15.2994 -15.2994 -15.0929 -15.0929 -15.0781
   -15.0123 -15.0123  -3.1195   4.8147   8.7738   8.7738

          k =-0.3536-0.3536 0.3536 (   754 PWs)   bands (ev):

   -15.4105 -15.4105 -15.3615 -15.2902 -15.2902 -15.0978 -15.0978 -15.0854
   -15.0139 -15.0139  -1.5669   1.5507   8.1957   8.1957

          k = 0.3536 0.0000 0.0000 (   769 PWs)   bands (ev):

   -15.4106 -15.4106 -15.4034 -15.2880 -15.2478 -15.1830 -15.0812 -15.0292
   -15.0292 -15.0257  -2.8250   5.0151   7.4464   7.4464

          k =-0.1768-0.5303 0.5303 (   758 PWs)   bands (ev):

   -15.4476 -15.4248 -15.3425 -15.2456 -15.2254 -15.2009 -15.1291 -15.0904
   -15.0018 -14.9757  -1.1409   1.9842   5.5452   7.0457

          k = 0.0000-0.3536 0.3536 (   762 PWs)   bands (ev):

   -15.4409 -15.4302 -15.3343 -15.2794 -15.2478 -15.1470 -15.1301 -15.1023
   -14.9930 -14.9904  -1.8353   2.9447   5.3529   8.0709

          k =-0.7071 0.0000 0.0000 (   740 PWs)   bands (ev):

   -15.4298 -15.4298 -15.3189 -15.3189 -15.1794 -15.1792 -15.1012 -15.1012
   -14.9873 -14.9873   0.3794   0.3795   6.2868   6.2868

          k =-0.7071 0.3536 0.0000 (   744 PWs)   bands (ev):

   -15.4452 -15.4452 -15.2600 -15.2600 -15.1957 -15.1956 -15.1510 -15.1509
   -14.9720 -14.9720   0.5164   0.5165   5.2840   5.2840

     highest occupied level (ev):     9.7845

!    total energy              =    -421.73390804 Ry
     estimated scf accuracy    <       0.00000005 Ry

     The total energy is the sum of the following terms:
     one-electron contribution =    -262.76501271 Ry
     hartree contribution      =     157.85158936 Ry
     xc contribution           =    -111.80828321 Ry
     ewald contribution        =    -205.01220148 Ry

     convergence has been achieved in   7 iterations

     Forces acting on atoms (cartesian axes, Ry/au):

     atom    1 type  1   force =    -0.00000000   -0.00000000    0.00000000
     atom    2 type  1   force =     0.00000000    0.00000000    0.00000000
     The non-local contrib.  to forces
     atom    1 type  1   force =    -0.00000000   -0.00000000    0.00000000
     atom    2 type  1   force =     0.00000000    0.00000000   -0.00000000
     The ionic contribution  to forces
     atom    1 type  1   force =    -0.00000880   -0.00000880   -0.00000880
     atom    2 type  1   force =     0.00000880    0.00000880    0.00000880
     The local contribution  to forces
     atom    1 type  1   force =    -0.00000000   -0.00000000   -0.00000000
     atom    2 type  1   force =     0.00028738    0.00028738    0.00028738
     The core correction contribution to forces
     atom    1 type  1   force =     0.00000000    0.00000000    0.00000000
     atom    2 type  1   force =     0.00003685    0.00003685    0.00003685
     The Hubbard contrib.    to forces
     atom    1 type  1   force =     0.00000000    0.00000000    0.00000000
     atom    2 type  1   force =     0.00000000    0.00000000    0.00000000
     The SCF correction term to forces
     atom    1 type  1   force =     0.00000000    0.00000000    0.00000000
     atom    2 type  1   force =    -0.00000000   -0.00000000   -0.00000000

     Total force =     0.000000     Total SCF correction =     0.000000


     Computing stress (Cartesian axis) and pressure

          total   stress  (Ry/bohr**3)                   (kbar)     P=     -101.43
  -0.00068954   0.00000000   0.00000000         -101.43        0.00        0.00
   0.00000000  -0.00068954  -0.00000000            0.00     -101.43       -0.00
   0.00000000  -0.00000000  -0.00068954            0.00       -0.00     -101.43


     init_run     :      0.85s CPU      0.73s WALL (       1 calls)
     electrons    :      4.66s CPU      3.21s WALL (       1 calls)
     forces       :      0.07s CPU      0.06s WALL (       1 calls)
     stress       :      0.88s CPU      0.63s WALL (       1 calls)

     Called by init_run:
     wfcinit      :      0.45s CPU      0.31s WALL (       1 calls)
     potinit      :      0.00s CPU      0.00s WALL (       1 calls)
     hinit0       :      0.38s CPU      0.38s WALL (       1 calls)

     Called by electrons:
     c_bands      :      3.46s CPU      2.37s WALL (       8 calls)
     sum_band     :      0.89s CPU      0.64s WALL (       8 calls)
     v_of_rho     :      0.06s CPU      0.04s WALL (       8 calls)
     newd         :      0.23s CPU      0.17s WALL (       8 calls)
     mix_rho      :      0.02s CPU      0.01s WALL (       8 calls)

     Called by c_bands:
     init_us_2    :      0.13s CPU      0.10s WALL (     152 calls)
     init_us_2:cp :      0.13s CPU      0.10s WALL (     152 calls)
     cegterg      :      3.13s CPU      2.13s WALL (      64 calls)

     Called by *egterg:
     cdiaghg      :      0.18s CPU      0.12s WALL (     199 calls)
     h_psi        :      3.06s CPU      2.09s WALL (     215 calls)
     s_psi        :      0.05s CPU      0.04s WALL (     215 calls)
     g_psi        :      0.02s CPU      0.01s WALL (     143 calls)

     Called by h_psi:
     h_psi:calbec :      0.06s CPU      0.04s WALL (     215 calls)
     vloc_psi     :      2.93s CPU      2.00s WALL (     215 calls)
     add_vuspsi   :      0.05s CPU      0.04s WALL (     215 calls)

     General routines
     calbec       :      0.08s CPU      0.06s WALL (     319 calls)
     fft          :      0.18s CPU      0.17s WALL (      41 calls)
     ffts         :      0.01s CPU      0.01s WALL (       8 calls)
     fftw         :      2.75s CPU      1.89s WALL (    5696 calls)

     Parallel routines

     PWSCF        :      6.59s CPU      4.80s WALL


   This run was terminated on:  15:41:56  14Oct2023            

=------------------------------------------------------------------------------=
   JOB DONE.
=------------------------------------------------------------------------------=
