LAMMPS (29 Oct 2020)
Reading data file ...
  orthogonal box = (0.0000000 0.0000000 0.0000000) to (23.136500 23.136500 20.000000)
  1 by 1 by 1 MPI processor grid
  reading atoms ...
  64 atoms
  read_data CPU = 0.000 seconds
Reading eam potential file /home/gridsan/epan1/3320_atomistic_shared/lammps/potentials/Ag_u3.eam with DATE: 2007-06-11
WARNING: No fixes defined, atoms won't move (../verlet.cpp:54)
Neighbor list info ...
  update every 1 steps, delay 10 steps, check yes
  max neighbors/atom: 2000, page size: 100000
  master list distance cutoff = 7.55
  ghost atom cutoff = 7.55
  binsize = 3.775, bins = 7 7 6
  1 neighbor lists, perpetual/occasional/extra = 1 0 0
  (1) pair eam, perpetual
      attributes: half, newton on
      pair build: half/bin/atomonly/newton
      stencil: half/bin/3d/newton
      bin: standard
Setting up Verlet run ...
  Unit style    : metal
  Current step  : 0
  Time step     : 0.001
Per MPI rank memory allocation (min/avg/max) = 3.314 | 3.314 | 3.314 Mbytes
Step PotEng Lx Ly Lz Press Pxx Pyy Pzz 
       0   -124.16606      23.1365      23.1365           20   -10321.432   -15482.147   -15482.147            0 
Loop time of 0 on 1 procs for 0 steps with 64 atoms

0.0% CPU use with 1 MPI tasks x no OpenMP threads

MPI task timing breakdown:
Section |  min time  |  avg time  |  max time  |%varavg| %total
---------------------------------------------------------------
Pair    | 0          | 0          | 0          |   0.0 |  0.00
Neigh   | 0          | 0          | 0          |   0.0 |  0.00
Comm    | 0          | 0          | 0          |   0.0 |  0.00
Output  | 0          | 0          | 0          |   0.0 |  0.00
Modify  | 0          | 0          | 0          |   0.0 |  0.00
Other   |            | 0          |            |       |  0.00

Nlocal:        64.0000 ave          64 max          64 min
Histogram: 1 0 0 0 0 0 0 0 0 0
Nghost:        105.000 ave         105 max         105 min
Histogram: 1 0 0 0 0 0 0 0 0 0
Neighs:        640.000 ave         640 max         640 min
Histogram: 1 0 0 0 0 0 0 0 0 0

Total # of neighbors = 640
Ave neighs/atom = 10.000000
Neighbor list builds = 0
Dangerous builds = 0
WARNING: Using 'neigh_modify every 1 delay 0 check yes' setting during minimization (../min.cpp:187)
Setting up cg style minimization ...
  Unit style    : metal
  Current step  : 0
WARNING: Energy due to 1 extra global DOFs will be included in minimizer energies
Per MPI rank memory allocation (min/avg/max) = 4.439 | 4.439 | 4.439 Mbytes
Step PotEng Lx Ly Lz Press Pxx Pyy Pzz 
       0   -124.16606      23.1365      23.1365           20   -10321.432   -15482.147   -15482.147            0 
      67   -131.91822    21.626391    21.626391    18.694609 -0.0013436609 -0.0020154914 -0.0020154914            0 
Loop time of 0.00146604 on 1 procs for 67 steps with 64 atoms

100.0% CPU use with 1 MPI tasks x no OpenMP threads

Minimization stats:
  Stopping criterion = energy tolerance
  Energy initial, next-to-last, final = 
     -124.166062133843  -131.918215855868  -131.918215859042
  Force two-norm initial, final = 206.90746 0.00021611686
  Force max component initial, final = 206.90746 2.6758444e-05
  Final line search alpha, max atom move = 0.18488402 4.9472087e-06
  Iterations, force evaluations = 67 69

MPI task timing breakdown:
Section |  min time  |  avg time  |  max time  |%varavg| %total
---------------------------------------------------------------
Pair    | 0.0011344  | 0.0011344  | 0.0011344  |   0.0 | 77.38
Neigh   | 3.8147e-05 | 3.8147e-05 | 3.8147e-05 |   0.0 |  2.60
Comm    | 3.2187e-05 | 3.2187e-05 | 3.2187e-05 |   0.0 |  2.20
Output  | 0          | 0          | 0          |   0.0 |  0.00
Modify  | 0          | 0          | 0          |   0.0 |  0.00
Other   |            | 0.0002613  |            |       | 17.82

Nlocal:        64.0000 ave          64 max          64 min
Histogram: 1 0 0 0 0 0 0 0 0 0
Nghost:        105.000 ave         105 max         105 min
Histogram: 1 0 0 0 0 0 0 0 0 0
Neighs:        640.000 ave         640 max         640 min
Histogram: 1 0 0 0 0 0 0 0 0 0

Total # of neighbors = 640
Ave neighs/atom = 10.000000
Neighbor list builds = 2
Dangerous builds = 0
Total energy (eV) = -131.918215859042
Number of atoms = 64
Lattice constant (Angstoms) = 21.6263907415192
Total wall time: 0:00:00
