
     Program PWSCF v.7.2 starts on  2Nov2023 at 17:42:37 

     This program is part of the open-source Quantum ESPRESSO suite
     for quantum simulation of materials; please cite
         "P. Giannozzi et al., J. Phys.:Condens. Matter 21 395502 (2009);
         "P. Giannozzi et al., J. Phys.:Condens. Matter 29 465901 (2017);
         "P. Giannozzi et al., J. Chem. Phys. 152 154105 (2020);
          URL http://www.quantum-espresso.org", 
     in publications or presentations arising from this work. More details at
     http://www.quantum-espresso.org/quote

     Parallel version (MPI), running on     2 processors

     MPI processes distributed on     2 nodes
     187234 MiB available memory on the printing compute node when the environment starts

     Waiting for input...
     Reading input from standard input
Warning: card &CELL ignored
Warning: card / ignored

     Current dimensions of program PWSCF are:
     Max number of different atomic species (ntypx) = 10
     Max number of k-points (npk) =  40000
     Max angular momentum in pseudopotentials (lmaxx) =  4
     file O.pz-rrkjus.UPF: wavefunction(s)  2S renormalized
     Message from routine setup:
     using ibrav=0 with symmetry is DISCOURAGED, use correct ibrav instead

     R & G space division:  proc/nbgrp/npool/nimage =       2
     Subspace diagonalization in iterative solution of the eigenvalue problem:
     a serial algorithm will be used


     Parallelization info
     --------------------
     sticks:   dense  smooth     PW     G-vecs:    dense   smooth      PW
     Min         490     244     72                11563     4108     678
     Max         491     245     73                11564     4109     679
     Sum         981     489    145                23127     8217    1357

     Using Slab Decomposition



     bravais-lattice index     =            0
     lattice parameter (alat)  =       7.1810  a.u.
     unit-cell volume          =     370.2946 (a.u.)^3
     number of atoms/cell      =            5
     number of atomic types    =            3
     number of electrons       =        44.00
     number of Kohn-Sham states=           22
     kinetic-energy cutoff     =      30.0000  Ry
     charge density cutoff     =     240.0000  Ry
     scf convergence threshold =      1.0E-07
     mixing beta               =       0.7000
     number of iterations used =            8  plain     mixing
     Exchange-correlation= SLA  PZ   NOGX NOGC
                           (   1   1   0   0   0   0   0)

     celldm(1)=   7.180959  celldm(2)=   0.000000  celldm(3)=   0.000000
     celldm(4)=   0.000000  celldm(5)=   0.000000  celldm(6)=   0.000000

     crystal axes: (cart. coord. in units of alat)
               a(1) = (   1.000000   0.000000   0.000000 )  
               a(2) = (   0.000000   1.000000   0.000000 )  
               a(3) = (   0.000000   0.000000   1.000000 )  

     reciprocal axes: (cart. coord. in units 2 pi/alat)
               b(1) = (  1.000000  0.000000  0.000000 )  
               b(2) = (  0.000000  1.000000  0.000000 )  
               b(3) = (  0.000000  0.000000  1.000000 )  


     PseudoPot. # 1 for O  read from file:
     /home/gridsan/epan1/labutil/lab3_samples/pseudopotentials/O.pz-rrkjus.UPF
     MD5 check sum: 24fb942a68ef5d262e498166c462ef4a
     Pseudo is Ultrasoft, Zval =  6.0
     Generated by new atomic code, or converted to UPF format
     Using radial grid of 1269 points,  4 beta functions with: 
                l(1) =   0
                l(2) =   0
                l(3) =   1
                l(4) =   1
     Q(r) pseudized with 0 coefficients 


     PseudoPot. # 2 for Pb read from file:
     /home/gridsan/epan1/labutil/lab3_samples/pseudopotentials/Pb.pz-d-van.UPF
     MD5 check sum: 4e1e5920686a026ae26139ac417581ff
     Pseudo is Ultrasoft, Zval = 14.0
     Generated by new atomic code, or converted to UPF format
     Using radial grid of  899 points,  6 beta functions with: 
                l(1) =   0
                l(2) =   0
                l(3) =   1
                l(4) =   1
                l(5) =   2
                l(6) =   2
     Q(r) pseudized with  8 coefficients,  rinner =    1.000   1.000   1.000
                                                       1.000   1.000

     PseudoPot. # 3 for Ti read from file:
     /home/gridsan/epan1/labutil/lab3_samples/pseudopotentials/Ti.pz-sp-van_ak.UPF
     MD5 check sum: 545d0e6e05332b8871a8093f427cb0ca
     Pseudo is Ultrasoft, Zval = 12.0
     Generated by new atomic code, or converted to UPF format
     Using radial grid of  851 points,  6 beta functions with: 
                l(1) =   0
                l(2) =   0
                l(3) =   1
                l(4) =   1
                l(5) =   2
                l(6) =   2
     Q(r) pseudized with  8 coefficients,  rinner =    1.000   1.000   1.000
                                                       1.000   1.000

     atomic species   valence    mass     pseudopotential
        O              6.00    15.99900     O ( 1.00)
        Pb            14.00   207.20000     Pb( 1.00)
        Ti            12.00    47.86700     Ti( 1.00)

     48 Sym. Ops., with inversion, found



   Cartesian axes

     site n.     atom                  positions (alat units)
         1           Pb  tau(   1) = (   0.0000000   0.0000000   0.0000000  )
         2           Ti  tau(   2) = (   0.5000000   0.5000000   0.5000000  )
         3           O   tau(   3) = (   0.0000000   0.5000000   0.5000000  )
         4           O   tau(   4) = (   0.5000000   0.0000000   0.5000000  )
         5           O   tau(   5) = (   0.5000000   0.5000000   0.0000000  )

     number of k points=     4
                       cart. coord. in units 2pi/alat
        k(    1) = (   0.1250000   0.1250000   0.1250000), wk =   0.2500000
        k(    2) = (   0.1250000   0.1250000   0.3750000), wk =   0.7500000
        k(    3) = (   0.1250000   0.3750000   0.3750000), wk =   0.7500000
        k(    4) = (   0.3750000   0.3750000   0.3750000), wk =   0.2500000

     Dense  grid:    23127 G-vectors     FFT dimensions: (  36,  36,  36)

     Smooth grid:     8217 G-vectors     FFT dimensions: (  25,  25,  25)

     Estimated max dynamical RAM per process >      47.59 MB

     Estimated total dynamical RAM >      95.17 MB

     Initial potential from superposition of free atoms

     starting charge      42.9982, renormalised to      44.0000
     Starting wfcs are   31 randomized atomic wfcs

     total cpu time spent up to now is        1.0 secs

     Self-consistent Calculation

     iteration #  1     ecut=    30.00 Ry     beta= 0.70
     Davidson diagonalization with overlap
     ethr =  1.00E-02,  avg # of iterations =  2.0

     total cpu time spent up to now is        1.2 secs

     total energy              =    -332.62277788 Ry
     estimated scf accuracy    <       1.08741033 Ry

     iteration #  2     ecut=    30.00 Ry     beta= 0.70
     Davidson diagonalization with overlap
     ethr =  2.47E-03,  avg # of iterations =  5.8

     total cpu time spent up to now is        1.5 secs

     total energy              =    -332.49108583 Ry
     estimated scf accuracy    <       3.33311834 Ry

     iteration #  3     ecut=    30.00 Ry     beta= 0.70
     Davidson diagonalization with overlap
     ethr =  2.47E-03,  avg # of iterations =  5.5

     total cpu time spent up to now is        1.7 secs

     total energy              =    -333.15203210 Ry
     estimated scf accuracy    <       0.18734504 Ry

     iteration #  4     ecut=    30.00 Ry     beta= 0.70
     Davidson diagonalization with overlap
     ethr =  4.26E-04,  avg # of iterations =  2.5

     total cpu time spent up to now is        1.9 secs

     total energy              =    -333.15032594 Ry
     estimated scf accuracy    <       0.04578611 Ry

     iteration #  5     ecut=    30.00 Ry     beta= 0.70
     Davidson diagonalization with overlap
     ethr =  1.04E-04,  avg # of iterations =  5.5

     total cpu time spent up to now is        2.2 secs

     total energy              =    -333.17238379 Ry
     estimated scf accuracy    <       0.02400895 Ry

     iteration #  6     ecut=    30.00 Ry     beta= 0.70
     Davidson diagonalization with overlap
     ethr =  5.46E-05,  avg # of iterations =  2.5

     total cpu time spent up to now is        2.4 secs

     total energy              =    -333.17147890 Ry
     estimated scf accuracy    <       0.00737574 Ry

     iteration #  7     ecut=    30.00 Ry     beta= 0.70
     Davidson diagonalization with overlap
     ethr =  1.68E-05,  avg # of iterations =  4.5

     total cpu time spent up to now is        2.6 secs

     total energy              =    -333.17402951 Ry
     estimated scf accuracy    <       0.00053144 Ry

     iteration #  8     ecut=    30.00 Ry     beta= 0.70
     Davidson diagonalization with overlap
     ethr =  1.21E-06,  avg # of iterations =  1.8

     total cpu time spent up to now is        2.8 secs

     total energy              =    -333.17393192 Ry
     estimated scf accuracy    <       0.00039970 Ry

     iteration #  9     ecut=    30.00 Ry     beta= 0.70
     Davidson diagonalization with overlap
     ethr =  9.08E-07,  avg # of iterations =  4.0

     total cpu time spent up to now is        3.0 secs

     total energy              =    -333.17397131 Ry
     estimated scf accuracy    <       0.00002886 Ry

     iteration # 10     ecut=    30.00 Ry     beta= 0.70
     Davidson diagonalization with overlap
     ethr =  6.56E-08,  avg # of iterations =  4.8

     total cpu time spent up to now is        3.3 secs

     total energy              =    -333.17399026 Ry
     estimated scf accuracy    <       0.00001018 Ry

     iteration # 11     ecut=    30.00 Ry     beta= 0.70
     Davidson diagonalization with overlap
     ethr =  2.31E-08,  avg # of iterations =  1.0

     total cpu time spent up to now is        3.5 secs

     total energy              =    -333.17398555 Ry
     estimated scf accuracy    <       0.00000959 Ry

     iteration # 12     ecut=    30.00 Ry     beta= 0.70
     Davidson diagonalization with overlap
     ethr =  2.18E-08,  avg # of iterations =  4.5

     total cpu time spent up to now is        3.7 secs

     total energy              =    -333.17398796 Ry
     estimated scf accuracy    <       0.00000116 Ry

     iteration # 13     ecut=    30.00 Ry     beta= 0.70
     Davidson diagonalization with overlap
     ethr =  2.63E-09,  avg # of iterations =  4.5

     total cpu time spent up to now is        3.9 secs

     End of self-consistent calculation

          k = 0.1250 0.1250 0.1250 (  1027 PWs)   bands (ev):

   -43.4348 -20.1021 -20.1008 -20.1008  -5.6345  -4.4487  -4.4487  -2.8524
    -2.8524  -2.8352  -2.6596  -2.6596   5.6311   8.1053   8.1053   9.1118
    10.0119  10.0119  10.7692  10.9229  10.9229  11.1173

          k = 0.1250 0.1250 0.3750 (  1036 PWs)   bands (ev):

   -43.4331 -20.1781 -20.0987 -20.0979  -5.1744  -4.3171  -4.2173  -2.9299
    -2.8486  -2.8352  -2.7699  -2.6133   4.7915   7.6537   8.0678   8.7124
     9.3773   9.5880  10.3589  10.8366  11.0598  12.0210

          k = 0.1250 0.3750 0.3750 (  1031 PWs)   bands (ev):

   -43.4314 -20.1744 -20.1732 -20.0947  -4.9300  -4.1251  -4.0418  -2.8977
    -2.8457  -2.7892  -2.6809  -2.5233   4.3277   7.5904   7.6663   7.9285
     8.2537   9.6497  10.3584  10.3911  11.1575  11.6858

          k = 0.3750 0.3750 0.3750 (  1033 PWs)   bands (ev):

   -43.4297 -20.1702 -20.1700 -20.1700  -4.4413  -4.2467  -4.2467  -2.7851
    -2.7851  -2.4755  -2.4013  -2.4013   4.9637   6.5696   6.5696   7.6177
     7.8154   7.8154   9.0026  11.6424  11.6424  11.7092

     highest occupied level (ev):    12.0210

!    total energy              =    -333.17398817 Ry
     estimated scf accuracy    <       0.00000001 Ry

     The total energy is the sum of the following terms:
     one-electron contribution =     -68.60054567 Ry
     hartree contribution      =      64.01818535 Ry
     xc contribution           =     -49.87983754 Ry
     ewald contribution        =    -278.71179032 Ry

     convergence has been achieved in  13 iterations

     Forces acting on atoms (cartesian axes, Ry/au):

     atom    1 type  2   force =     0.00000000    0.00000000    0.00000000
     atom    2 type  3   force =     0.00000000    0.00000000    0.00000000
     atom    3 type  1   force =     0.00000000    0.00000000    0.00000000
     atom    4 type  1   force =     0.00000000    0.00000000    0.00000000
     atom    5 type  1   force =     0.00000000    0.00000000    0.00000000
     The non-local contrib.  to forces
     atom    1 type  2   force =     0.00000000    0.00000000    0.00000000
     atom    2 type  3   force =     0.00000000    0.00000000    0.00000000
     atom    3 type  1   force =     0.00000000    0.00000000    0.00000000
     atom    4 type  1   force =     0.00000000    0.00000000    0.00000000
     atom    5 type  1   force =     0.00000000    0.00000000    0.00000000
     The ionic contribution  to forces
     atom    1 type  2   force =    -0.00000000   -0.00000000   -0.00000000
     atom    2 type  3   force =     0.00000000    0.00000000    0.00000000
     atom    3 type  1   force =    -0.00000000    0.00000000    0.00000000
     atom    4 type  1   force =     0.00000000   -0.00000000    0.00000000
     atom    5 type  1   force =     0.00000000    0.00000000   -0.00000000
     The local contribution  to forces
     atom    1 type  2   force =     0.00000000    0.00000000    0.00000000
     atom    2 type  3   force =     0.00000000    0.00000000    0.00000000
     atom    3 type  1   force =     0.00000000    0.00000000    0.00000000
     atom    4 type  1   force =     0.00000000   -0.00000000    0.00000000
     atom    5 type  1   force =     0.00000000    0.00000000    0.00000000
     The core correction contribution to forces
     atom    1 type  2   force =     0.00000000    0.00000000    0.00000000
     atom    2 type  3   force =     0.00000000    0.00000000    0.00000000
     atom    3 type  1   force =     0.00000000    0.00000000    0.00000000
     atom    4 type  1   force =     0.00000000    0.00000000    0.00000000
     atom    5 type  1   force =     0.00000000    0.00000000    0.00000000
     The Hubbard contrib.    to forces
     atom    1 type  2   force =     0.00000000    0.00000000    0.00000000
     atom    2 type  3   force =     0.00000000    0.00000000    0.00000000
     atom    3 type  1   force =     0.00000000    0.00000000    0.00000000
     atom    4 type  1   force =     0.00000000    0.00000000    0.00000000
     atom    5 type  1   force =     0.00000000    0.00000000    0.00000000
     The SCF correction term to forces
     atom    1 type  2   force =     0.00000000    0.00000000    0.00000000
     atom    2 type  3   force =     0.00000000   -0.00000000   -0.00000000
     atom    3 type  1   force =     0.00000000   -0.00000000   -0.00000000
     atom    4 type  1   force =     0.00000000   -0.00000000   -0.00000000
     atom    5 type  1   force =     0.00000000    0.00000000   -0.00000000

     Total force =     0.000000     Total SCF correction =     0.000000


     Computing stress (Cartesian axis) and pressure

          total   stress  (Ry/bohr**3)                   (kbar)     P=      123.33
   0.00083838   0.00000000   0.00000000          123.33        0.00        0.00
   0.00000000   0.00083838   0.00000000            0.00      123.33        0.00
   0.00000000   0.00000000   0.00083838            0.00        0.00      123.33


     init_run     :      0.64s CPU      0.66s WALL (       1 calls)
     electrons    :      3.80s CPU      2.88s WALL (       1 calls)
     forces       :      0.12s CPU      0.09s WALL (       1 calls)
     stress       :      0.87s CPU      0.73s WALL (       1 calls)

     Called by init_run:
     wfcinit      :      0.06s CPU      0.06s WALL (       1 calls)
     potinit      :      0.04s CPU      0.04s WALL (       1 calls)
     hinit0       :      0.44s CPU      0.45s WALL (       1 calls)

     Called by electrons:
     c_bands      :      1.81s CPU      1.36s WALL (      13 calls)
     sum_band     :      1.20s CPU      0.91s WALL (      13 calls)
     v_of_rho     :      0.03s CPU      0.03s WALL (      14 calls)
     newd         :      0.75s CPU      0.59s WALL (      14 calls)
     mix_rho      :      0.03s CPU      0.03s WALL (      13 calls)

     Called by c_bands:
     init_us_2    :      0.07s CPU      0.05s WALL (     116 calls)
     init_us_2:cp :      0.06s CPU      0.05s WALL (     116 calls)
     cegterg      :      1.67s CPU      1.23s WALL (      52 calls)

     Called by *egterg:
     cdiaghg      :      0.29s CPU      0.22s WALL (     247 calls)
     h_psi        :      1.16s CPU      0.88s WALL (     251 calls)
     s_psi        :      0.05s CPU      0.04s WALL (     251 calls)
     g_psi        :      0.01s CPU      0.01s WALL (     195 calls)

     Called by h_psi:
     h_psi:calbec :      0.07s CPU      0.06s WALL (     251 calls)
     vloc_psi     :      1.03s CPU      0.78s WALL (     251 calls)
     add_vuspsi   :      0.05s CPU      0.04s WALL (     251 calls)

     General routines
     calbec       :      0.10s CPU      0.08s WALL (     323 calls)
     fft          :      0.20s CPU      0.20s WALL (      87 calls)
     ffts         :      0.04s CPU      0.04s WALL (      27 calls)
     fftw         :      1.01s CPU      0.76s WALL (    7668 calls)
     interpolate  :      0.04s CPU      0.04s WALL (      14 calls)

     Parallel routines

     PWSCF        :      5.77s CPU      4.76s WALL


   This run was terminated on:  17:42:42   2Nov2023            

=------------------------------------------------------------------------------=
   JOB DONE.
=------------------------------------------------------------------------------=
