Header of the LAMMPS data file 

4 atoms 
1 atom types

0.0 3.8757575757575755  xlo xhi
0.0 3.8757575757575755  ylo yhi
0.0 3.8757575757575755  zlo zhi

Masses 

1  107.8682

Atoms # atomic 

1 1 0.00000 0.00000 0.00000 
2 1 0.00000 1.93788 1.93788 
3 1 1.93788 0.00000 1.93788 
4 1 1.93788 1.93788 0.00000 
