
     Program PWSCF v.7.2 starts on  2Nov2023 at 17:56:15 

     This program is part of the open-source Quantum ESPRESSO suite
     for quantum simulation of materials; please cite
         "P. Giannozzi et al., J. Phys.:Condens. Matter 21 395502 (2009);
         "P. Giannozzi et al., J. Phys.:Condens. Matter 29 465901 (2017);
         "P. Giannozzi et al., J. Chem. Phys. 152 154105 (2020);
          URL http://www.quantum-espresso.org", 
     in publications or presentations arising from this work. More details at
     http://www.quantum-espresso.org/quote

     Parallel version (MPI), running on     2 processors

     MPI processes distributed on     2 nodes
     187058 MiB available memory on the printing compute node when the environment starts

     Waiting for input...
     Reading input from standard input
Warning: card &CELL ignored
Warning: card / ignored

     Current dimensions of program PWSCF are:
     Max number of different atomic species (ntypx) = 10
     Max number of k-points (npk) =  40000
     Max angular momentum in pseudopotentials (lmaxx) =  4
     file O.pz-rrkjus.UPF: wavefunction(s)  2S renormalized
     Message from routine setup:
     using ibrav=0 with symmetry is DISCOURAGED, use correct ibrav instead

     R & G space division:  proc/nbgrp/npool/nimage =       2
     Subspace diagonalization in iterative solution of the eigenvalue problem:
     a serial algorithm will be used


     Parallelization info
     --------------------
     sticks:   dense  smooth     PW     G-vecs:    dense   smooth      PW
     Min         516     254     74                12418     4366     709
     Max         517     255     75                12419     4367     710
     Sum        1033     509    149                24837     8733    1419

     Using Slab Decomposition



     bravais-lattice index     =            0
     lattice parameter (alat)  =       7.3321  a.u.
     unit-cell volume          =     394.1775 (a.u.)^3
     number of atoms/cell      =            5
     number of atomic types    =            3
     number of electrons       =        44.00
     number of Kohn-Sham states=           22
     kinetic-energy cutoff     =      30.0000  Ry
     charge density cutoff     =     240.0000  Ry
     scf convergence threshold =      1.0E-07
     mixing beta               =       0.7000
     number of iterations used =            8  plain     mixing
     energy convergence thresh.=      1.0E-04
     force convergence thresh. =      1.0E-03
     Exchange-correlation= SLA  PZ   NOGX NOGC
                           (   1   1   0   0   0   0   0)
     nstep                     =           50


     celldm(1)=   7.332137  celldm(2)=   0.000000  celldm(3)=   0.000000
     celldm(4)=   0.000000  celldm(5)=   0.000000  celldm(6)=   0.000000

     crystal axes: (cart. coord. in units of alat)
               a(1) = (   1.000000   0.000000   0.000000 )  
               a(2) = (   0.000000   1.000000   0.000000 )  
               a(3) = (   0.000000   0.000000   1.000000 )  

     reciprocal axes: (cart. coord. in units 2 pi/alat)
               b(1) = (  1.000000  0.000000  0.000000 )  
               b(2) = (  0.000000  1.000000  0.000000 )  
               b(3) = (  0.000000  0.000000  1.000000 )  


     PseudoPot. # 1 for O  read from file:
     /home/gridsan/epan1/labutil/lab3_samples/pseudopotentials/O.pz-rrkjus.UPF
     MD5 check sum: 24fb942a68ef5d262e498166c462ef4a
     Pseudo is Ultrasoft, Zval =  6.0
     Generated by new atomic code, or converted to UPF format
     Using radial grid of 1269 points,  4 beta functions with: 
                l(1) =   0
                l(2) =   0
                l(3) =   1
                l(4) =   1
     Q(r) pseudized with 0 coefficients 


     PseudoPot. # 2 for Pb read from file:
     /home/gridsan/epan1/labutil/lab3_samples/pseudopotentials/Pb.pz-d-van.UPF
     MD5 check sum: 4e1e5920686a026ae26139ac417581ff
     Pseudo is Ultrasoft, Zval = 14.0
     Generated by new atomic code, or converted to UPF format
     Using radial grid of  899 points,  6 beta functions with: 
                l(1) =   0
                l(2) =   0
                l(3) =   1
                l(4) =   1
                l(5) =   2
                l(6) =   2
     Q(r) pseudized with  8 coefficients,  rinner =    1.000   1.000   1.000
                                                       1.000   1.000

     PseudoPot. # 3 for Ti read from file:
     /home/gridsan/epan1/labutil/lab3_samples/pseudopotentials/Ti.pz-sp-van_ak.UPF
     MD5 check sum: 545d0e6e05332b8871a8093f427cb0ca
     Pseudo is Ultrasoft, Zval = 12.0
     Generated by new atomic code, or converted to UPF format
     Using radial grid of  851 points,  6 beta functions with: 
                l(1) =   0
                l(2) =   0
                l(3) =   1
                l(4) =   1
                l(5) =   2
                l(6) =   2
     Q(r) pseudized with  8 coefficients,  rinner =    1.000   1.000   1.000
                                                       1.000   1.000

     atomic species   valence    mass     pseudopotential
        O              6.00    15.99900     O ( 1.00)
        Pb            14.00   207.20000     Pb( 1.00)
        Ti            12.00    47.86700     Ti( 1.00)

      8 Sym. Ops. (no inversion) found



   Cartesian axes

     site n.     atom                  positions (alat units)
         1           Pb  tau(   1) = (   0.0000000   0.0000000   0.0000000  )
         2           Ti  tau(   2) = (   0.5000000   0.5000000   0.4105258  )
         3           O   tau(   3) = (   0.0000000   0.5000000   0.5000000  )
         4           O   tau(   4) = (   0.5000000   0.0000000   0.5000000  )
         5           O   tau(   5) = (   0.5000000   0.5000000   0.0000000  )

     number of k points=     6
                       cart. coord. in units 2pi/alat
        k(    1) = (   0.1250000   0.1250000   0.1250000), wk =   0.2500000
        k(    2) = (   0.1250000   0.1250000   0.3750000), wk =   0.2500000
        k(    3) = (   0.1250000   0.3750000   0.3750000), wk =   0.5000000
        k(    4) = (   0.3750000   0.3750000   0.3750000), wk =   0.2500000
        k(    5) = (   0.3750000  -0.1250000   0.1250000), wk =   0.5000000
        k(    6) = (   0.3750000  -0.3750000   0.1250000), wk =   0.2500000

     Dense  grid:    24837 G-vectors     FFT dimensions: (  40,  40,  40)

     Smooth grid:     8733 G-vectors     FFT dimensions: (  25,  25,  25)

     Estimated max dynamical RAM per process >      51.66 MB

     Estimated total dynamical RAM >     103.32 MB

     Initial potential from superposition of free atoms

     starting charge      42.9982, renormalised to      44.0000
     Starting wfcs are   31 randomized atomic wfcs

     total cpu time spent up to now is        1.0 secs

     Self-consistent Calculation

     iteration #  1     ecut=    30.00 Ry     beta= 0.70
     Davidson diagonalization with overlap
     ethr =  1.00E-02,  avg # of iterations =  2.0

     total cpu time spent up to now is        1.3 secs

     total energy              =    -332.60832213 Ry
     estimated scf accuracy    <       1.05886281 Ry

     iteration #  2     ecut=    30.00 Ry     beta= 0.70
     Davidson diagonalization with overlap
     ethr =  2.41E-03,  avg # of iterations =  5.8

     total cpu time spent up to now is        1.7 secs

     total energy              =    -332.54254762 Ry
     estimated scf accuracy    <       2.70224201 Ry

     iteration #  3     ecut=    30.00 Ry     beta= 0.70
     Davidson diagonalization with overlap
     ethr =  2.41E-03,  avg # of iterations =  5.0

     total cpu time spent up to now is        2.0 secs

     total energy              =    -333.10337034 Ry
     estimated scf accuracy    <       0.18646992 Ry

     iteration #  4     ecut=    30.00 Ry     beta= 0.70
     Davidson diagonalization with overlap
     ethr =  4.24E-04,  avg # of iterations =  2.7

     total cpu time spent up to now is        2.3 secs

     total energy              =    -333.10242147 Ry
     estimated scf accuracy    <       0.04155622 Ry

     iteration #  5     ecut=    30.00 Ry     beta= 0.70
     Davidson diagonalization with overlap
     ethr =  9.44E-05,  avg # of iterations =  5.3

     total cpu time spent up to now is        2.7 secs

     total energy              =    -333.12699915 Ry
     estimated scf accuracy    <       0.04372739 Ry

     iteration #  6     ecut=    30.00 Ry     beta= 0.70
     Davidson diagonalization with overlap
     ethr =  9.44E-05,  avg # of iterations =  1.2

     total cpu time spent up to now is        2.9 secs

     total energy              =    -333.12193555 Ry
     estimated scf accuracy    <       0.02234973 Ry

     iteration #  7     ecut=    30.00 Ry     beta= 0.70
     Davidson diagonalization with overlap
     ethr =  5.08E-05,  avg # of iterations =  3.0

     total cpu time spent up to now is        3.2 secs

     total energy              =    -333.12649942 Ry
     estimated scf accuracy    <       0.00029452 Ry

     iteration #  8     ecut=    30.00 Ry     beta= 0.70
     Davidson diagonalization with overlap
     ethr =  6.69E-07,  avg # of iterations =  6.7

     total cpu time spent up to now is        3.6 secs

     total energy              =    -333.12689234 Ry
     estimated scf accuracy    <       0.00058318 Ry

     iteration #  9     ecut=    30.00 Ry     beta= 0.70
     Davidson diagonalization with overlap
     ethr =  6.69E-07,  avg # of iterations =  2.0

     total cpu time spent up to now is        3.9 secs

     total energy              =    -333.12681414 Ry
     estimated scf accuracy    <       0.00028008 Ry

     iteration # 10     ecut=    30.00 Ry     beta= 0.70
     Davidson diagonalization with overlap
     ethr =  6.37E-07,  avg # of iterations =  4.5

     total cpu time spent up to now is        4.2 secs

     total energy              =    -333.12687776 Ry
     estimated scf accuracy    <       0.00000573 Ry

     iteration # 11     ecut=    30.00 Ry     beta= 0.70
     Davidson diagonalization with overlap
     ethr =  1.30E-08,  avg # of iterations =  3.5

     total cpu time spent up to now is        4.6 secs

     total energy              =    -333.12687818 Ry
     estimated scf accuracy    <       0.00000234 Ry

     iteration # 12     ecut=    30.00 Ry     beta= 0.70
     Davidson diagonalization with overlap
     ethr =  5.33E-09,  avg # of iterations =  4.7

     total cpu time spent up to now is        4.9 secs

     total energy              =    -333.12687898 Ry
     estimated scf accuracy    <       0.00000035 Ry

     iteration # 13     ecut=    30.00 Ry     beta= 0.70
     Davidson diagonalization with overlap
     ethr =  7.88E-10,  avg # of iterations =  3.0

     total cpu time spent up to now is        5.2 secs

     End of self-consistent calculation

          k = 0.1250 0.1250 0.1250 (  1096 PWs)   bands (ev):

   -44.2016 -21.4007 -20.7510 -20.7501  -6.3547  -5.3079  -5.0871  -4.1931
    -4.1362  -4.1238  -3.9482  -3.8978   4.4168   6.9813   7.3314   7.9664
     8.3623   8.4338   9.2853   9.6815  10.0617  10.2753

          k = 0.1250 0.1250 0.3750 (  1095 PWs)   bands (ev):

   -44.2003 -21.4580 -20.7482 -20.7473  -5.7894  -5.2913  -4.9267  -4.2298
    -4.1896  -4.1090  -4.0015  -3.9308   3.5369   6.5662   6.6591   7.5891
     8.2642   8.5687   9.5403   9.6328  10.3912  11.0187

          k = 0.1250 0.3750 0.3750 (  1093 PWs)   bands (ev):

   -44.1990 -21.4543 -20.8026 -20.7459  -5.5938  -5.2231  -4.8638  -4.2077
    -4.1721  -4.0801  -3.9759  -3.7488   3.2993   6.2644   6.8689   7.2582
     7.7183   8.6711   9.0074   9.5753   9.8287  10.6022

          k = 0.3750 0.3750 0.3750 (  1082 PWs)   bands (ev):

   -44.1977 -21.4514 -20.8000 -20.7998  -5.4992  -5.1560  -5.0711  -4.1283
    -4.0755  -3.8705  -3.6865  -3.6368   3.9549   5.5590   5.9530   6.5807
     7.4296   7.6886   7.8607  10.1982  10.2791  10.9123

          k = 0.3750-0.1250 0.1250 (  1095 PWs)   bands (ev):

   -44.2003 -21.3979 -20.8064 -20.7483  -6.0310  -5.1162  -4.9794  -4.2153
    -4.1654  -4.1252  -4.0409  -3.8981   3.6934   7.0373   7.2348   7.6477
     8.2939   8.6665   9.1521   9.5317   9.7391  10.7633

          k = 0.3750-0.3750 0.1250 (  1093 PWs)   bands (ev):

   -44.1991 -21.3958 -20.8036 -20.8027  -5.9610  -4.9123  -4.8328  -4.1582
    -4.1447  -4.0490  -3.9609  -3.9214   3.4637   6.5770   6.6822   7.0223
     7.6177   8.7031   9.4550   9.5978   9.9960  10.8890

     highest occupied level (ev):    11.0187

!    total energy              =    -333.12687897 Ry
     estimated scf accuracy    <       0.00000005 Ry

     The total energy is the sum of the following terms:
     one-electron contribution =     -80.52494411 Ry
     hartree contribution      =      68.25525407 Ry
     xc contribution           =     -49.77371953 Ry
     ewald contribution        =    -271.08346941 Ry

     convergence has been achieved in  13 iterations

     Forces acting on atoms (cartesian axes, Ry/au):

     atom    1 type  2   force =     0.00000000    0.00000000   -0.03914074
     atom    2 type  3   force =     0.00000000    0.00000000    0.29692829
     atom    3 type  1   force =     0.00000000    0.00000000   -0.01510148
     atom    4 type  1   force =     0.00000000    0.00000000   -0.01510148
     atom    5 type  1   force =     0.00000000    0.00000000   -0.22758459
     The non-local contrib.  to forces
     atom    1 type  2   force =     0.00000000    0.00000000    0.01947754
     atom    2 type  3   force =     0.00000000    0.00000000   -0.15987343
     atom    3 type  1   force =     0.00000000    0.00000000   -0.26412812
     atom    4 type  1   force =     0.00000000    0.00000000   -0.26412812
     atom    5 type  1   force =     0.00000000    0.00000000    0.58929623
     The ionic contribution  to forces
     atom    1 type  2   force =     0.00000000    0.00000000   -2.23218843
     atom    2 type  3   force =    -0.00000000   -0.00000000    6.12301093
     atom    3 type  1   force =     0.00000000   -0.00000000    2.41656567
     atom    4 type  1   force =    -0.00000000    0.00000000    2.41656567
     atom    5 type  1   force =    -0.00000000   -0.00000000   -8.72395383
     The local contribution  to forces
     atom    1 type  2   force =     0.00000000    0.00000000    2.17348210
     atom    2 type  3   force =    -0.00000000   -0.00000000   -5.66621741
     atom    3 type  1   force =     0.00000000   -0.00000000   -2.16745542
     atom    4 type  1   force =    -0.00000000    0.00000000   -2.16745542
     atom    5 type  1   force =    -0.00000000   -0.00000000    7.90686945
     The core correction contribution to forces
     atom    1 type  2   force =     0.00000000    0.00000000    0.00000000
     atom    2 type  3   force =     0.00000000    0.00000000    0.00000000
     atom    3 type  1   force =     0.00000000    0.00000000    0.00000000
     atom    4 type  1   force =     0.00000000    0.00000000    0.00000000
     atom    5 type  1   force =     0.00000000    0.00000000    0.00000000
     The Hubbard contrib.    to forces
     atom    1 type  2   force =     0.00000000    0.00000000    0.00000000
     atom    2 type  3   force =     0.00000000    0.00000000    0.00000000
     atom    3 type  1   force =     0.00000000    0.00000000    0.00000000
     atom    4 type  1   force =     0.00000000    0.00000000    0.00000000
     atom    5 type  1   force =     0.00000000    0.00000000    0.00000000
     The SCF correction term to forces
     atom    1 type  2   force =    -0.00000000    0.00000000    0.00000000
     atom    2 type  3   force =     0.00000000   -0.00000000    0.00000000
     atom    3 type  1   force =    -0.00000000    0.00000000   -0.00007743
     atom    4 type  1   force =     0.00000000    0.00000000   -0.00007743
     atom    5 type  1   force =    -0.00000000   -0.00000000    0.00020973

     Total force =     0.228584     Total SCF correction =     0.000237


     Computing stress (Cartesian axis) and pressure

          total   stress  (Ry/bohr**3)                   (kbar)     P=       78.43
  -0.00001238   0.00000000   0.00000000           -1.82        0.00        0.00
   0.00000000  -0.00001238   0.00000000            0.00       -1.82        0.00
   0.00000000   0.00000000   0.00162420            0.00        0.00      238.93


     BFGS Geometry Optimization
     Energy error            =      0.0E+00 Ry
     Gradient error          =      2.3E-01 Ry/Bohr

     number of scf cycles    =   1
     number of bfgs steps    =   0

     energy             new  =    -333.1268789745 Ry

     new trust radius        =       0.2275845912 bohr
     new conv_thr            =       0.0000001000 Ry


ATOMIC_POSITIONS (angstrom)
Pb            0.0000000000        0.0000000000        0.0000000000    0   0   0
Ti            1.9400000000        1.9400000000        1.5928400000    0   0   0
O             0.0000000000        1.9400000000        1.9320086399
O             1.9400000000        0.0000000000        1.9320086399
O             1.9400000000        1.9400000000       -0.1204325792



     Writing config-only to output data dir /home/gridsan/epan1/labutil/lab3_samples/problem2/Lab3/PbTiO3_a_3.88_ecut_30_nk_4_displ_-0.08947368421052632/pwscf.save/
     NEW-OLD atomic charge density approx. for the potential

     total cpu time spent up to now is        6.3 secs

     Self-consistent Calculation

     iteration #  1     ecut=    30.00 Ry     beta= 0.70
     Davidson diagonalization with overlap
     ethr =  1.00E-06,  avg # of iterations = 11.3

     total cpu time spent up to now is        6.9 secs

     total energy              =    -333.14636609 Ry
     estimated scf accuracy    <       0.01988109 Ry

     iteration #  2     ecut=    30.00 Ry     beta= 0.70
     Davidson diagonalization with overlap
     ethr =  4.52E-05,  avg # of iterations =  6.0

     total cpu time spent up to now is        7.3 secs

     total energy              =    -333.14323107 Ry
     estimated scf accuracy    <       0.06799177 Ry

     iteration #  3     ecut=    30.00 Ry     beta= 0.70
     Davidson diagonalization with overlap
     ethr =  4.52E-05,  avg # of iterations =  4.7

     total cpu time spent up to now is        7.6 secs

     total energy              =    -333.15529411 Ry
     estimated scf accuracy    <       0.00122182 Ry

     iteration #  4     ecut=    30.00 Ry     beta= 0.70
     Davidson diagonalization with overlap
     ethr =  2.78E-06,  avg # of iterations =  3.0

     total cpu time spent up to now is        7.9 secs

     total energy              =    -333.15546545 Ry
     estimated scf accuracy    <       0.00029521 Ry

     iteration #  5     ecut=    30.00 Ry     beta= 0.70
     Davidson diagonalization with overlap
     ethr =  6.71E-07,  avg # of iterations =  3.8

     total cpu time spent up to now is        8.3 secs

     total energy              =    -333.15553269 Ry
     estimated scf accuracy    <       0.00001746 Ry

     iteration #  6     ecut=    30.00 Ry     beta= 0.70
     Davidson diagonalization with overlap
     ethr =  3.97E-08,  avg # of iterations =  5.2

     total cpu time spent up to now is        8.6 secs

     total energy              =    -333.15554033 Ry
     estimated scf accuracy    <       0.00000847 Ry

     iteration #  7     ecut=    30.00 Ry     beta= 0.70
     Davidson diagonalization with overlap
     ethr =  1.92E-08,  avg # of iterations =  3.7

     total cpu time spent up to now is        8.9 secs

     total energy              =    -333.15554089 Ry
     estimated scf accuracy    <       0.00000145 Ry

     iteration #  8     ecut=    30.00 Ry     beta= 0.70
     Davidson diagonalization with overlap
     ethr =  3.30E-09,  avg # of iterations =  4.5

     total cpu time spent up to now is        9.3 secs

     total energy              =    -333.15554138 Ry
     estimated scf accuracy    <       0.00000026 Ry

     iteration #  9     ecut=    30.00 Ry     beta= 0.70
     Davidson diagonalization with overlap
     ethr =  5.82E-10,  avg # of iterations =  3.3

     total cpu time spent up to now is        9.6 secs

     End of self-consistent calculation

          k = 0.1250 0.1250 0.1250 (  1096 PWs)   bands (ev):

   -44.4986 -21.3178 -21.0833 -21.0825  -6.3956  -5.3071  -5.1419  -4.1175
    -4.0808  -4.0702  -3.8972  -3.8657   4.4926   7.1499   7.2772   7.9862
     8.6449   8.8512   9.3961   9.6623  10.1347  10.1836

          k = 0.1250 0.1250 0.3750 (  1095 PWs)   bands (ev):

   -44.4973 -21.3762 -21.0808 -21.0798  -5.8668  -5.2538  -4.9972  -4.1623
    -4.1136  -4.0592  -3.9668  -3.8785   3.6868   6.7015   6.8426   7.6218
     8.4898   8.6015   9.4997   9.6725  10.2998  11.0106

          k = 0.1250 0.3750 0.3750 (  1093 PWs)   bands (ev):

   -44.4960 -21.3727 -21.1330 -21.0786  -5.6575  -5.1783  -4.9290  -4.1381
    -4.0981  -4.0290  -3.9310  -3.7257   3.4132   6.4442   6.9826   7.1695
     7.6612   8.7340   9.2039   9.6224   9.9353  10.5978

          k = 0.3750 0.3750 0.3750 (  1082 PWs)   bands (ev):

   -44.4947 -21.3699 -21.1306 -21.1303  -5.4675  -5.1907  -5.1177  -4.0558
    -4.0218  -3.7922  -3.6672  -3.6272   4.0441   5.7876   5.9887   6.5357
     7.3978   7.5468   7.9943  10.3972  10.4753  10.8326

          k = 0.3750-0.1250 0.1250 (  1095 PWs)   bands (ev):

   -44.4973 -21.3151 -21.1366 -21.0807  -6.0449  -5.1442  -5.0403  -4.1511
    -4.0986  -4.0706  -3.9889  -3.8602   3.7816   7.0088   7.3905   7.7515
     8.3604   8.8038   9.2140   9.6656   9.8189  10.7927

          k = 0.3750-0.3750 0.1250 (  1093 PWs)   bands (ev):

   -44.4961 -21.3132 -21.1339 -21.1331  -5.9319  -4.9766  -4.8993  -4.1063
    -4.0809  -4.0055  -3.9231  -3.8473   3.4899   6.8275   6.8861   7.1318
     7.5712   8.6946   9.5589   9.5665   9.9679  10.8217

     highest occupied level (ev):    11.0106

!    total energy              =    -333.15554141 Ry
     estimated scf accuracy    <       0.00000002 Ry

     The total energy is the sum of the following terms:
     one-electron contribution =     -77.62113373 Ry
     hartree contribution      =      66.73312925 Ry
     xc contribution           =     -49.66538516 Ry
     ewald contribution        =    -272.60215176 Ry

     convergence has been achieved in   9 iterations

     Forces acting on atoms (cartesian axes, Ry/au):

     atom    1 type  2   force =     0.00000000    0.00000000   -0.04034770
     atom    2 type  3   force =     0.00000000    0.00000000    0.13370039
     atom    3 type  1   force =     0.00000000    0.00000000   -0.02846546
     atom    4 type  1   force =     0.00000000    0.00000000   -0.02846546
     atom    5 type  1   force =     0.00000000    0.00000000   -0.03642177
     The non-local contrib.  to forces
     atom    1 type  2   force =     0.00000000    0.00000000    0.02460549
     atom    2 type  3   force =     0.00000000    0.00000000   -0.07542725
     atom    3 type  1   force =     0.00000000    0.00000000   -0.30447891
     atom    4 type  1   force =     0.00000000    0.00000000   -0.30447891
     atom    5 type  1   force =     0.00000000    0.00000000    0.51269079
     The ionic contribution  to forces
     atom    1 type  2   force =     0.00000000    0.00000000   -1.91047890
     atom    2 type  3   force =    -0.00000000   -0.00000000    2.99681934
     atom    3 type  1   force =     0.00000000    0.00000000    2.09413368
     atom    4 type  1   force =     0.00000000    0.00000000    2.09413368
     atom    5 type  1   force =    -0.00000000   -0.00000000   -5.27460779
     The local contribution  to forces
     atom    1 type  2   force =     0.00000000   -0.00000000    1.84552048
     atom    2 type  3   force =    -0.00000000   -0.00000000   -2.78763046
     atom    3 type  1   force =     0.00000000   -0.00000000   -1.81805066
     atom    4 type  1   force =    -0.00000000    0.00000000   -1.81805066
     atom    5 type  1   force =    -0.00000000   -0.00000000    4.72547248
     The core correction contribution to forces
     atom    1 type  2   force =     0.00000000    0.00000000    0.00000000
     atom    2 type  3   force =     0.00000000    0.00000000    0.00000000
     atom    3 type  1   force =     0.00000000    0.00000000    0.00000000
     atom    4 type  1   force =     0.00000000    0.00000000    0.00000000
     atom    5 type  1   force =     0.00000000    0.00000000    0.00000000
     The Hubbard contrib.    to forces
     atom    1 type  2   force =     0.00000000    0.00000000    0.00000000
     atom    2 type  3   force =     0.00000000    0.00000000    0.00000000
     atom    3 type  1   force =     0.00000000    0.00000000    0.00000000
     atom    4 type  1   force =     0.00000000    0.00000000    0.00000000
     atom    5 type  1   force =     0.00000000    0.00000000    0.00000000
     The SCF correction term to forces
     atom    1 type  2   force =     0.00000000   -0.00000000    0.00000000
     atom    2 type  3   force =    -0.00000000   -0.00000000   -0.00000000
     atom    3 type  1   force =    -0.00000000   -0.00000000   -0.00003750
     atom    4 type  1   force =    -0.00000000   -0.00000000   -0.00003750
     atom    5 type  1   force =     0.00000000   -0.00000000    0.00005482

     Total force =     0.054287     Total SCF correction =     0.000076


     Computing stress (Cartesian axis) and pressure

          total   stress  (Ry/bohr**3)                   (kbar)     P=        4.75
  -0.00013723   0.00000000   0.00000000          -20.19        0.00        0.00
   0.00000000  -0.00013723   0.00000000            0.00      -20.19        0.00
   0.00000000   0.00000000   0.00037137            0.00        0.00       54.63

     Energy error            =      2.9E-02 Ry
     Gradient error          =      3.6E-02 Ry/Bohr

     number of scf cycles    =   2
     number of bfgs steps    =   1

     energy             old  =    -333.1268789745 Ry
     energy             new  =    -333.1555414090 Ry

     CASE: energy            _new < energy            _old

     new trust radius        =       0.0527631923 bohr
     new conv_thr            =       0.0000000364 Ry


ATOMIC_POSITIONS (angstrom)
Pb            0.0000000000        0.0000000000        0.0000000000    0   0   0
Ti            1.9400000000        1.9400000000        1.5928400000    0   0   0
O             0.0000000000        1.9400000000        1.9134457111
O             1.9400000000        0.0000000000        1.9134457111
O             1.9400000000        1.9400000000       -0.1483536582



     Writing config-only to output data dir /home/gridsan/epan1/labutil/lab3_samples/problem2/Lab3/PbTiO3_a_3.88_ecut_30_nk_4_displ_-0.08947368421052632/pwscf.save/
     NEW-OLD atomic charge density approx. for the potential

     total cpu time spent up to now is       10.7 secs

     Self-consistent Calculation

     iteration #  1     ecut=    30.00 Ry     beta= 0.70
     Davidson diagonalization with overlap
     ethr =  1.00E-06,  avg # of iterations =  8.7

     total cpu time spent up to now is       11.3 secs

     total energy              =    -333.15849174 Ry
     estimated scf accuracy    <       0.00085613 Ry

     iteration #  2     ecut=    30.00 Ry     beta= 0.70
     Davidson diagonalization with overlap
     ethr =  1.95E-06,  avg # of iterations =  5.5

     total cpu time spent up to now is       11.7 secs

     total energy              =    -333.15838398 Ry
     estimated scf accuracy    <       0.00182075 Ry

     iteration #  3     ecut=    30.00 Ry     beta= 0.70
     Davidson diagonalization with overlap
     ethr =  1.95E-06,  avg # of iterations =  4.3

     total cpu time spent up to now is       12.1 secs

     total energy              =    -333.15876985 Ry
     estimated scf accuracy    <       0.00007331 Ry

     iteration #  4     ecut=    30.00 Ry     beta= 0.70
     Davidson diagonalization with overlap
     ethr =  1.67E-07,  avg # of iterations =  2.7

     total cpu time spent up to now is       12.4 secs

     total energy              =    -333.15877544 Ry
     estimated scf accuracy    <       0.00001880 Ry

     iteration #  5     ecut=    30.00 Ry     beta= 0.70
     Davidson diagonalization with overlap
     ethr =  4.27E-08,  avg # of iterations =  4.0

     total cpu time spent up to now is       12.7 secs

     total energy              =    -333.15877906 Ry
     estimated scf accuracy    <       0.00000090 Ry

     iteration #  6     ecut=    30.00 Ry     beta= 0.70
     Davidson diagonalization with overlap
     ethr =  2.04E-09,  avg # of iterations =  6.3

     total cpu time spent up to now is       13.1 secs

     total energy              =    -333.15877962 Ry
     estimated scf accuracy    <       0.00000048 Ry

     iteration #  7     ecut=    30.00 Ry     beta= 0.70
     Davidson diagonalization with overlap
     ethr =  1.09E-09,  avg # of iterations =  3.0

     total cpu time spent up to now is       13.4 secs

     total energy              =    -333.15877962 Ry
     estimated scf accuracy    <       0.00000012 Ry

     iteration #  8     ecut=    30.00 Ry     beta= 0.70
     Davidson diagonalization with overlap
     ethr =  2.66E-10,  avg # of iterations =  4.5

     total cpu time spent up to now is       13.7 secs

     End of self-consistent calculation

          k = 0.1250 0.1250 0.1250 (  1096 PWs)   bands (ev):

   -44.5555 -21.3181 -21.1456 -21.1448  -6.3950  -5.3083  -5.1691  -4.1033
    -4.0711  -4.0610  -3.8886  -3.8610   4.5058   7.1694   7.2622   7.9907
     8.7167   8.9348   9.4331   9.6752  10.1474  10.1506

          k = 0.1250 0.1250 0.3750 (  1095 PWs)   bands (ev):

   -44.5541 -21.3764 -21.1431 -21.1422  -5.8853  -5.2370  -5.0296  -4.1491
    -4.0993  -4.0506  -3.9607  -3.8688   3.7203   6.7134   6.9070   7.6300
     8.5290   8.5840   9.4842   9.6986  10.2664  10.9944

          k = 0.1250 0.3750 0.3750 (  1093 PWs)   bands (ev):

   -44.5529 -21.3729 -21.1956 -21.1409  -5.6752  -5.1576  -4.9489  -4.1251
    -4.0841  -4.0194  -3.9220  -3.7235   3.4320   6.4869   7.0071   7.1230
     7.6212   8.7265   9.2453   9.5993   9.9747  10.5998

          k = 0.3750 0.3750 0.3750 (  1082 PWs)   bands (ev):

   -44.5516 -21.3701 -21.1931 -21.1929  -5.4467  -5.1991  -5.1335  -4.0423
    -4.0124  -3.7749  -3.6636  -3.6258   4.0519   5.8199   5.9750   6.5450
     7.3578   7.4747   8.0104  10.4435  10.5188  10.8034

          k = 0.3750-0.1250 0.1250 (  1095 PWs)   bands (ev):

   -44.5542 -21.3156 -21.1991 -21.1430  -6.0342  -5.1562  -5.0619  -4.1398
    -4.0862  -4.0611  -3.9767  -3.8529   3.7960   6.9789   7.3947   7.7536
     8.3645   8.8269   9.2155   9.7168   9.8430  10.7969

          k = 0.3750-0.3750 0.1250 (  1093 PWs)   bands (ev):

   -44.5530 -21.3136 -21.1963 -21.1956  -5.9061  -4.9965  -4.9208  -4.0974
    -4.0692  -3.9967  -3.9147  -3.8311   3.4873   6.8223   6.9133   7.1541
     7.5464   8.6855   9.5440   9.5700   9.9636  10.7966

     highest occupied level (ev):    10.9944

!    total energy              =    -333.15877965 Ry
     estimated scf accuracy    <       0.00000004 Ry

     The total energy is the sum of the following terms:
     one-electron contribution =     -77.39612302 Ry
     hartree contribution      =      66.60566958 Ry
     xc contribution           =     -49.65188369 Ry
     ewald contribution        =    -272.71644252 Ry

     convergence has been achieved in   8 iterations

     Forces acting on atoms (cartesian axes, Ry/au):

     atom    1 type  2   force =     0.00000000    0.00000000   -0.03902161
     atom    2 type  3   force =     0.00000000    0.00000000    0.10781316
     atom    3 type  1   force =     0.00000000    0.00000000   -0.02927603
     atom    4 type  1   force =     0.00000000    0.00000000   -0.02927603
     atom    5 type  1   force =     0.00000000    0.00000000   -0.01023948
     The non-local contrib.  to forces
     atom    1 type  2   force =     0.00000000    0.00000000    0.03841724
     atom    2 type  3   force =     0.00000000    0.00000000   -0.06301977
     atom    3 type  1   force =     0.00000000    0.00000000   -0.30581886
     atom    4 type  1   force =     0.00000000    0.00000000   -0.30581886
     atom    5 type  1   force =     0.00000000    0.00000000    0.47971230
     The ionic contribution  to forces
     atom    1 type  2   force =     0.00000000    0.00000000   -2.06714953
     atom    2 type  3   force =    -0.00000000   -0.00000000    2.51652516
     atom    3 type  1   force =     0.00000000   -0.00000000    2.08143700
     atom    4 type  1   force =    -0.00000000    0.00000000    2.08143700
     atom    5 type  1   force =    -0.00000000   -0.00000000   -4.61224963
     The local contribution  to forces
     atom    1 type  2   force =    -0.00000000    0.00000000    1.98970159
     atom    2 type  3   force =    -0.00000000   -0.00000000   -2.34553052
     atom    3 type  1   force =     0.00000000   -0.00000000   -1.80482412
     atom    4 type  1   force =    -0.00000000    0.00000000   -1.80482412
     atom    5 type  1   force =    -0.00000000   -0.00000000    4.12224981
     The core correction contribution to forces
     atom    1 type  2   force =     0.00000000    0.00000000    0.00000000
     atom    2 type  3   force =     0.00000000    0.00000000    0.00000000
     atom    3 type  1   force =     0.00000000    0.00000000    0.00000000
     atom    4 type  1   force =     0.00000000    0.00000000    0.00000000
     atom    5 type  1   force =     0.00000000    0.00000000    0.00000000
     The Hubbard contrib.    to forces
     atom    1 type  2   force =     0.00000000    0.00000000    0.00000000
     atom    2 type  3   force =     0.00000000    0.00000000    0.00000000
     atom    3 type  1   force =     0.00000000    0.00000000    0.00000000
     atom    4 type  1   force =     0.00000000    0.00000000    0.00000000
     atom    5 type  1   force =     0.00000000    0.00000000    0.00000000
     The SCF correction term to forces
     atom    1 type  2   force =    -0.00000000    0.00000000    0.00000000
     atom    2 type  3   force =     0.00000000   -0.00000000   -0.00000000
     atom    3 type  1   force =     0.00000000    0.00000000   -0.00004533
     atom    4 type  1   force =    -0.00000000    0.00000000   -0.00004533
     atom    5 type  1   force =     0.00000000   -0.00000000    0.00007277

     Total force =     0.042650     Total SCF correction =     0.000097


     Computing stress (Cartesian axis) and pressure

          total   stress  (Ry/bohr**3)                   (kbar)     P=       -4.32
  -0.00014075   0.00000000   0.00000000          -20.70        0.00        0.00
   0.00000000  -0.00014075   0.00000000            0.00      -20.70        0.00
   0.00000000   0.00000000   0.00019346            0.00        0.00       28.46

     Energy error            =      3.2E-03 Ry
     Gradient error          =      2.9E-02 Ry/Bohr

     number of scf cycles    =   3
     number of bfgs steps    =   2

     energy             old  =    -333.1555414090 Ry
     energy             new  =    -333.1587796474 Ry

     CASE: energy            _new < energy            _old

     new trust radius        =       0.0580395115 bohr
     new conv_thr            =       0.0000000293 Ry


ATOMIC_POSITIONS (angstrom)
Pb            0.0000000000        0.0000000000        0.0000000000    0   0   0
Ti            1.9400000000        1.9400000000        1.5928400000    0   0   0
O             0.0000000000        1.9400000000        1.8827325243
O             1.9400000000        0.0000000000        1.8827325243
O             1.9400000000        1.9400000000       -0.1748704517



     Writing config-only to output data dir /home/gridsan/epan1/labutil/lab3_samples/problem2/Lab3/PbTiO3_a_3.88_ecut_30_nk_4_displ_-0.08947368421052632/pwscf.save/
     NEW-OLD atomic charge density approx. for the potential

     total cpu time spent up to now is       14.9 secs

     Self-consistent Calculation

     iteration #  1     ecut=    30.00 Ry     beta= 0.70
     Davidson diagonalization with overlap
     ethr =  1.00E-06,  avg # of iterations =  9.2

     total cpu time spent up to now is       15.4 secs

     total energy              =    -333.16192352 Ry
     estimated scf accuracy    <       0.00099228 Ry

     iteration #  2     ecut=    30.00 Ry     beta= 0.70
     Davidson diagonalization with overlap
     ethr =  2.26E-06,  avg # of iterations =  5.2

     total cpu time spent up to now is       15.8 secs

     total energy              =    -333.16179923 Ry
     estimated scf accuracy    <       0.00137342 Ry

     iteration #  3     ecut=    30.00 Ry     beta= 0.70
     Davidson diagonalization with overlap
     ethr =  2.26E-06,  avg # of iterations =  4.5

     total cpu time spent up to now is       16.1 secs

     total energy              =    -333.16215041 Ry
     estimated scf accuracy    <       0.00022711 Ry

     iteration #  4     ecut=    30.00 Ry     beta= 0.70
     Davidson diagonalization with overlap
     ethr =  5.16E-07,  avg # of iterations =  2.3

     total cpu time spent up to now is       16.4 secs

     total energy              =    -333.16215753 Ry
     estimated scf accuracy    <       0.00004427 Ry

     iteration #  5     ecut=    30.00 Ry     beta= 0.70
     Davidson diagonalization with overlap
     ethr =  1.01E-07,  avg # of iterations =  4.3

     total cpu time spent up to now is       16.7 secs

     total energy              =    -333.16217696 Ry
     estimated scf accuracy    <       0.00000856 Ry

     iteration #  6     ecut=    30.00 Ry     beta= 0.70
     Davidson diagonalization with overlap
     ethr =  1.94E-08,  avg # of iterations =  2.2

     total cpu time spent up to now is       17.0 secs

     total energy              =    -333.16217621 Ry
     estimated scf accuracy    <       0.00000451 Ry

     iteration #  7     ecut=    30.00 Ry     beta= 0.70
     Davidson diagonalization with overlap
     ethr =  1.03E-08,  avg # of iterations =  3.7

     total cpu time spent up to now is       17.3 secs

     total energy              =    -333.16217678 Ry
     estimated scf accuracy    <       0.00000032 Ry

     iteration #  8     ecut=    30.00 Ry     beta= 0.70
     Davidson diagonalization with overlap
     ethr =  7.38E-10,  avg # of iterations =  4.8

     total cpu time spent up to now is       17.7 secs

     total energy              =    -333.16217695 Ry
     estimated scf accuracy    <       0.00000006 Ry

     iteration #  9     ecut=    30.00 Ry     beta= 0.70
     Davidson diagonalization with overlap
     ethr =  1.46E-10,  avg # of iterations =  1.8

     total cpu time spent up to now is       17.9 secs

     total energy              =    -333.16217695 Ry
     estimated scf accuracy    <       0.00000003 Ry

     iteration # 10     ecut=    30.00 Ry     beta= 0.70
     Davidson diagonalization with overlap
     ethr =  7.27E-11,  avg # of iterations =  3.7

     total cpu time spent up to now is       18.2 secs

     End of self-consistent calculation

          k = 0.1250 0.1250 0.1250 (  1096 PWs)   bands (ev):

   -44.6056 -21.3232 -21.2015 -21.2007  -6.3941  -5.3145  -5.2082  -4.0890
    -4.0615  -4.0520  -3.8812  -3.8547   4.5189   7.1885   7.2503   8.0034
     8.7804   8.9932   9.4854   9.6976  10.1071  10.1475

          k = 0.1250 0.1250 0.3750 (  1095 PWs)   bands (ev):

   -44.6043 -21.3811 -21.1991 -21.1981  -5.9083  -5.2216  -5.0754  -4.1347
    -4.0847  -4.0420  -3.9525  -3.8594   3.7559   6.7280   6.9826   7.6479
     8.5412   8.5536   9.4577   9.7328  10.2220  10.9670

          k = 0.1250 0.3750 0.3750 (  1093 PWs)   bands (ev):

   -44.6031 -21.3777 -21.2521 -21.1968  -5.6985  -5.1378  -4.9744  -4.1118
    -4.0704  -4.0091  -3.9120  -3.7203   3.4480   6.5337   7.0181   7.0757
     7.5646   8.7116   9.2717   9.5632  10.0088  10.6013

          k = 0.3750 0.3750 0.3750 (  1082 PWs)   bands (ev):

   -44.6018 -21.3750 -21.2496 -21.2494  -5.4245  -5.2096  -5.1544  -4.0287
    -4.0030  -3.7575  -3.6587  -3.6225   4.0504   5.8431   5.9486   6.5645
     7.2937   7.3752   8.0242  10.4848  10.5570  10.7647

          k = 0.3750-0.1250 0.1250 (  1095 PWs)   bands (ev):

   -44.6044 -21.3207 -21.2556 -21.1989  -6.0218  -5.1765  -5.0901  -4.1287
    -4.0737  -4.0517  -3.9614  -3.8443   3.8071   6.9351   7.3854   7.7553
     8.3637   8.8231   9.2187   9.7628   9.8703  10.7980

          k = 0.3750-0.3750 0.1250 (  1093 PWs)   bands (ev):

   -44.6031 -21.3188 -21.2528 -21.2520  -5.8756  -5.0233  -4.9496  -4.0885
    -4.0566  -3.9850  -3.9029  -3.8144   3.4776   6.8061   6.9170   7.1612
     7.5072   8.6715   9.5226   9.5534   9.9641  10.7626

     highest occupied level (ev):    10.9670

!    total energy              =    -333.16217695 Ry
     estimated scf accuracy    <          9.6E-10 Ry

     The total energy is the sum of the following terms:
     one-electron contribution =     -77.43890565 Ry
     hartree contribution      =      66.61245064 Ry
     xc contribution           =     -49.64524068 Ry
     ewald contribution        =    -272.69048126 Ry

     convergence has been achieved in  10 iterations

     Forces acting on atoms (cartesian axes, Ry/au):

     atom    1 type  2   force =     0.00000000    0.00000000   -0.03666226
     atom    2 type  3   force =     0.00000000    0.00000000    0.08608663
     atom    3 type  1   force =     0.00000000    0.00000000   -0.02824364
     atom    4 type  1   force =     0.00000000    0.00000000   -0.02824364
     atom    5 type  1   force =     0.00000000    0.00000000    0.00706292
     The non-local contrib.  to forces
     atom    1 type  2   force =     0.00000000    0.00000000    0.06129001
     atom    2 type  3   force =     0.00000000    0.00000000   -0.05252997
     atom    3 type  1   force =     0.00000000    0.00000000   -0.30014775
     atom    4 type  1   force =     0.00000000    0.00000000   -0.30014775
     atom    5 type  1   force =     0.00000000    0.00000000    0.43803359
     The ionic contribution  to forces
     atom    1 type  2   force =     0.00000000    0.00000000   -2.39605081
     atom    2 type  3   force =    -0.00000000   -0.00000000    2.24191074
     atom    3 type  1   force =     0.00000000   -0.00000000    2.11143174
     atom    4 type  1   force =    -0.00000000    0.00000000    2.11143174
     atom    5 type  1   force =     0.00000000    0.00000000   -4.06872342
     The local contribution  to forces
     atom    1 type  2   force =    -0.00000000    0.00000000    2.29806730
     atom    2 type  3   force =    -0.00000000   -0.00000000   -2.10329857
     atom    3 type  1   force =     0.00000000   -0.00000000   -1.83953245
     atom    4 type  1   force =    -0.00000000    0.00000000   -1.83953245
     atom    5 type  1   force =    -0.00000000   -0.00000000    3.63771778
     The core correction contribution to forces
     atom    1 type  2   force =     0.00000000    0.00000000    0.00000000
     atom    2 type  3   force =     0.00000000    0.00000000    0.00000000
     atom    3 type  1   force =     0.00000000    0.00000000    0.00000000
     atom    4 type  1   force =     0.00000000    0.00000000    0.00000000
     atom    5 type  1   force =     0.00000000    0.00000000    0.00000000
     The Hubbard contrib.    to forces
     atom    1 type  2   force =     0.00000000    0.00000000    0.00000000
     atom    2 type  3   force =     0.00000000    0.00000000    0.00000000
     atom    3 type  1   force =     0.00000000    0.00000000    0.00000000
     atom    4 type  1   force =     0.00000000    0.00000000    0.00000000
     atom    5 type  1   force =     0.00000000    0.00000000    0.00000000
     The SCF correction term to forces
     atom    1 type  2   force =     0.00000000    0.00000000    0.00000000
     atom    2 type  3   force =     0.00000000   -0.00000000   -0.00000000
     atom    3 type  1   force =    -0.00000000   -0.00000000   -0.00001137
     atom    4 type  1   force =     0.00000000   -0.00000000   -0.00001137
     atom    5 type  1   force =     0.00000000    0.00000000    0.00001879

     Total force =     0.040562     Total SCF correction =     0.000025


     Computing stress (Cartesian axis) and pressure

          total   stress  (Ry/bohr**3)                   (kbar)     P=       -8.78
  -0.00012581   0.00000000   0.00000000          -18.51        0.00        0.00
   0.00000000  -0.00012581   0.00000000            0.00      -18.51        0.00
   0.00000000   0.00000000   0.00007261            0.00        0.00       10.68

     Energy error            =      3.4E-03 Ry
     Gradient error          =      2.8E-02 Ry/Bohr

     number of scf cycles    =   4
     number of bfgs steps    =   3

     energy             old  =    -333.1587796474 Ry
     energy             new  =    -333.1621769513 Ry

     CASE: energy            _new < energy            _old

     new trust radius        =       0.0870592673 bohr
     new conv_thr            =       0.0000000282 Ry


ATOMIC_POSITIONS (angstrom)
Pb            0.0000000000        0.0000000000        0.0000000000    0   0   0
Ti            1.9400000000        1.9400000000        1.5928400000    0   0   0
O             0.0000000000        1.9400000000        1.8366627440
O             1.9400000000        0.0000000000        1.8366627440
O             1.9400000000        1.9400000000       -0.2032244331



     Writing config-only to output data dir /home/gridsan/epan1/labutil/lab3_samples/problem2/Lab3/PbTiO3_a_3.88_ecut_30_nk_4_displ_-0.08947368421052632/pwscf.save/
     NEW-OLD atomic charge density approx. for the potential

     total cpu time spent up to now is       19.3 secs

     Self-consistent Calculation

     iteration #  1     ecut=    30.00 Ry     beta= 0.70
     Davidson diagonalization with overlap
     ethr =  1.00E-06,  avg # of iterations =  9.7

     total cpu time spent up to now is       19.9 secs

     total energy              =    -333.16578345 Ry
     estimated scf accuracy    <       0.00162702 Ry

     iteration #  2     ecut=    30.00 Ry     beta= 0.70
     Davidson diagonalization with overlap
     ethr =  3.70E-06,  avg # of iterations =  4.2

     total cpu time spent up to now is       20.2 secs

     total energy              =    -333.16574106 Ry
     estimated scf accuracy    <       0.00128637 Ry

     iteration #  3     ecut=    30.00 Ry     beta= 0.70
     Davidson diagonalization with overlap
     ethr =  2.92E-06,  avg # of iterations =  4.3

     total cpu time spent up to now is       20.5 secs

     total energy              =    -333.16607334 Ry
     estimated scf accuracy    <       0.00053243 Ry

     iteration #  4     ecut=    30.00 Ry     beta= 0.70
     Davidson diagonalization with overlap
     ethr =  1.21E-06,  avg # of iterations =  3.0

     total cpu time spent up to now is       20.8 secs

     total energy              =    -333.16611577 Ry
     estimated scf accuracy    <       0.00005281 Ry

     iteration #  5     ecut=    30.00 Ry     beta= 0.70
     Davidson diagonalization with overlap
     ethr =  1.20E-07,  avg # of iterations =  5.0

     total cpu time spent up to now is       21.2 secs

     total energy              =    -333.16615621 Ry
     estimated scf accuracy    <       0.00005381 Ry

     iteration #  6     ecut=    30.00 Ry     beta= 0.70
     Davidson diagonalization with overlap
     ethr =  1.20E-07,  avg # of iterations =  1.0

     total cpu time spent up to now is       21.4 secs

     total energy              =    -333.16614836 Ry
     estimated scf accuracy    <       0.00003297 Ry

     iteration #  7     ecut=    30.00 Ry     beta= 0.70
     Davidson diagonalization with overlap
     ethr =  7.49E-08,  avg # of iterations =  2.7

     total cpu time spent up to now is       21.7 secs

     total energy              =    -333.16615311 Ry
     estimated scf accuracy    <       0.00000234 Ry

     iteration #  8     ecut=    30.00 Ry     beta= 0.70
     Davidson diagonalization with overlap
     ethr =  5.31E-09,  avg # of iterations =  4.8

     total cpu time spent up to now is       22.1 secs

     total energy              =    -333.16615415 Ry
     estimated scf accuracy    <       0.00000015 Ry

     iteration #  9     ecut=    30.00 Ry     beta= 0.70
     Davidson diagonalization with overlap
     ethr =  3.50E-10,  avg # of iterations =  4.8

     total cpu time spent up to now is       22.4 secs

     total energy              =    -333.16615411 Ry
     estimated scf accuracy    <       0.00000034 Ry

     iteration # 10     ecut=    30.00 Ry     beta= 0.70
     Davidson diagonalization with overlap
     ethr =  3.50E-10,  avg # of iterations =  3.7

     total cpu time spent up to now is       22.7 secs

     total energy              =    -333.16615411 Ry
     estimated scf accuracy    <       0.00000006 Ry

     iteration # 11     ecut=    30.00 Ry     beta= 0.70
     Davidson diagonalization with overlap
     ethr =  1.32E-10,  avg # of iterations =  4.3

     total cpu time spent up to now is       23.1 secs

     End of self-consistent calculation

          k = 0.1250 0.1250 0.1250 (  1096 PWs)   bands (ev):

   -44.6551 -21.3323 -21.2577 -21.2569  -6.3986  -5.3229  -5.2669  -4.0700
    -4.0484  -4.0394  -3.8714  -3.8405   4.5345   7.2072   7.2406   8.0244
     8.8426   9.0288   9.5656   9.7283  10.0435  10.1306

          k = 0.1250 0.1250 0.3750 (  1095 PWs)   bands (ev):

   -44.6538 -21.3897 -21.2554 -21.2544  -5.9457  -5.2012  -5.1436  -4.1146
    -4.0651  -4.0297  -3.9361  -3.8464   3.7994   6.7471   7.0780   7.6716
     8.4680   8.5738   9.4127   9.7740  10.1574  10.9268

          k = 0.1250 0.3750 0.3750 (  1093 PWs)   bands (ev):

   -44.6526 -21.3864 -21.3093 -21.2531  -5.7361  -5.1163  -5.0115  -4.0936
    -4.0525  -3.9937  -3.8962  -3.7112   3.4654   6.5893   6.9497   7.0860
     7.4918   8.6821   9.2873   9.5115  10.0392  10.6037

          k = 0.3750 0.3750 0.3750 (  1082 PWs)   bands (ev):

   -44.6513 -21.3837 -21.3068 -21.3065  -5.4047  -5.2211  -5.1877  -4.0106
    -3.9895  -3.7358  -3.6482  -3.6132   4.0370   5.8632   5.9083   6.5917
     7.2019   7.2430   8.0476  10.5237  10.5902  10.7096

          k = 0.3750-0.1250 0.1250 (  1095 PWs)   bands (ev):

   -44.6538 -21.3299 -21.3126 -21.2551  -6.0117  -5.2071  -5.1316  -4.1138
    -4.0561  -4.0385  -3.9370  -3.8293   3.8165   6.8735   7.3593   7.7594
     8.3607   8.7880   9.2284   9.7958   9.9094  10.7983

          k = 0.3750-0.3750 0.1250 (  1093 PWs)   bands (ev):

   -44.6526 -21.3281 -21.3097 -21.3091  -5.8373  -5.0656  -4.9959  -4.0759
    -4.0381  -3.9642  -3.8810  -3.7921   3.4571   6.7776   6.8944   7.1522
     7.4571   8.6558   9.4950   9.5157   9.9760  10.7120

     highest occupied level (ev):    10.9268

!    total energy              =    -333.16615412 Ry
     estimated scf accuracy    <       0.00000002 Ry

     The total energy is the sum of the following terms:
     one-electron contribution =     -77.75451887 Ry
     hartree contribution      =      66.75463259 Ry
     xc contribution           =     -49.64456975 Ry
     ewald contribution        =    -272.52169809 Ry

     convergence has been achieved in  11 iterations

     Forces acting on atoms (cartesian axes, Ry/au):

     atom    1 type  2   force =     0.00000000    0.00000000   -0.03360188
     atom    2 type  3   force =     0.00000000    0.00000000    0.06653499
     atom    3 type  1   force =     0.00000000    0.00000000   -0.02525807
     atom    4 type  1   force =     0.00000000    0.00000000   -0.02525807
     atom    5 type  1   force =     0.00000000    0.00000000    0.01758303
     The non-local contrib.  to forces
     atom    1 type  2   force =     0.00000000    0.00000000    0.09513224
     atom    2 type  3   force =     0.00000000    0.00000000   -0.04299417
     atom    3 type  1   force =     0.00000000    0.00000000   -0.28672146
     atom    4 type  1   force =     0.00000000    0.00000000   -0.28672146
     atom    5 type  1   force =     0.00000000    0.00000000    0.38288901
     The ionic contribution  to forces
     atom    1 type  2   force =     0.00000000    0.00000000   -2.92779300
     atom    2 type  3   force =    -0.00000000   -0.00000000    2.14928111
     atom    3 type  1   force =     0.00000000   -0.00000000    2.17571024
     atom    4 type  1   force =    -0.00000000    0.00000000    2.17571024
     atom    5 type  1   force =    -0.00000000   -0.00000000   -3.57290858
     The local contribution  to forces
     atom    1 type  2   force =    -0.00000000    0.00000000    2.79911176
     atom    2 type  3   force =    -0.00000000   -0.00000000   -2.03973742
     atom    3 type  1   force =    -0.00000000   -0.00000000   -1.91427763
     atom    4 type  1   force =    -0.00000000   -0.00000000   -1.91427763
     atom    5 type  1   force =    -0.00000000   -0.00000000    3.20766918
     The core correction contribution to forces
     atom    1 type  2   force =     0.00000000    0.00000000    0.00000000
     atom    2 type  3   force =     0.00000000    0.00000000    0.00000000
     atom    3 type  1   force =     0.00000000    0.00000000    0.00000000
     atom    4 type  1   force =     0.00000000    0.00000000    0.00000000
     atom    5 type  1   force =     0.00000000    0.00000000    0.00000000
     The Hubbard contrib.    to forces
     atom    1 type  2   force =     0.00000000    0.00000000    0.00000000
     atom    2 type  3   force =     0.00000000    0.00000000    0.00000000
     atom    3 type  1   force =     0.00000000    0.00000000    0.00000000
     atom    4 type  1   force =     0.00000000    0.00000000    0.00000000
     atom    5 type  1   force =     0.00000000    0.00000000    0.00000000
     The SCF correction term to forces
     atom    1 type  2   force =    -0.00000000   -0.00000000   -0.00000000
     atom    2 type  3   force =    -0.00000000   -0.00000000   -0.00000000
     atom    3 type  1   force =    -0.00000000    0.00000000    0.00003723
     atom    4 type  1   force =    -0.00000000    0.00000000    0.00003723
     atom    5 type  1   force =    -0.00000000    0.00000000   -0.00006012

     Total force =     0.039813     Total SCF correction =     0.000080


     Computing stress (Cartesian axis) and pressure

          total   stress  (Ry/bohr**3)                   (kbar)     P=       -9.69
  -0.00009393   0.00000000   0.00000000          -13.82        0.00        0.00
   0.00000000  -0.00009393   0.00000000            0.00      -13.82        0.00
   0.00000000   0.00000000  -0.00000965            0.00        0.00       -1.42

     Energy error            =      4.0E-03 Ry
     Gradient error          =      2.5E-02 Ry/Bohr

     number of scf cycles    =   5
     number of bfgs steps    =   4

     energy             old  =    -333.1621769513 Ry
     energy             new  =    -333.1661541196 Ry

     CASE: energy            _new < energy            _old

     new trust radius        =       0.1305889009 bohr
     new conv_thr            =       0.0000000253 Ry


ATOMIC_POSITIONS (angstrom)
Pb            0.0000000000        0.0000000000        0.0000000000    0   0   0
Ti            1.9400000000        1.9400000000        1.5928400000    0   0   0
O             0.0000000000        1.9400000000        1.7675580736
O             1.9400000000        0.0000000000        1.7675580736
O             1.9400000000        1.9400000000       -0.2371439732



     Writing config-only to output data dir /home/gridsan/epan1/labutil/lab3_samples/problem2/Lab3/PbTiO3_a_3.88_ecut_30_nk_4_displ_-0.08947368421052632/pwscf.save/
     NEW-OLD atomic charge density approx. for the potential

     total cpu time spent up to now is       24.2 secs

     Self-consistent Calculation

     iteration #  1     ecut=    30.00 Ry     beta= 0.70
     Davidson diagonalization with overlap
     ethr =  1.00E-06,  avg # of iterations = 10.8

     total cpu time spent up to now is       24.7 secs

     total energy              =    -333.17007243 Ry
     estimated scf accuracy    <       0.00322257 Ry

     iteration #  2     ecut=    30.00 Ry     beta= 0.70
     Davidson diagonalization with overlap
     ethr =  7.32E-06,  avg # of iterations =  4.2

     total cpu time spent up to now is       25.0 secs

     total energy              =    -333.17008768 Ry
     estimated scf accuracy    <       0.00196824 Ry

     iteration #  3     ecut=    30.00 Ry     beta= 0.70
     Davidson diagonalization with overlap
     ethr =  4.47E-06,  avg # of iterations =  4.3

     total cpu time spent up to now is       25.4 secs

     total energy              =    -333.17058694 Ry
     estimated scf accuracy    <       0.00117722 Ry

     iteration #  4     ecut=    30.00 Ry     beta= 0.70
     Davidson diagonalization with overlap
     ethr =  2.68E-06,  avg # of iterations =  3.3

     total cpu time spent up to now is       25.7 secs

     total energy              =    -333.17069872 Ry
     estimated scf accuracy    <       0.00008954 Ry

     iteration #  5     ecut=    30.00 Ry     beta= 0.70
     Davidson diagonalization with overlap
     ethr =  2.04E-07,  avg # of iterations =  5.3

     total cpu time spent up to now is       26.0 secs

     total energy              =    -333.17078100 Ry
     estimated scf accuracy    <       0.00012701 Ry

     iteration #  6     ecut=    30.00 Ry     beta= 0.70
     Davidson diagonalization with overlap
     ethr =  2.04E-07,  avg # of iterations =  1.3

     total cpu time spent up to now is       26.3 secs

     total energy              =    -333.17076243 Ry
     estimated scf accuracy    <       0.00007862 Ry

     iteration #  7     ecut=    30.00 Ry     beta= 0.70
     Davidson diagonalization with overlap
     ethr =  1.79E-07,  avg # of iterations =  2.7

     total cpu time spent up to now is       26.6 secs

     total energy              =    -333.17077334 Ry
     estimated scf accuracy    <       0.00000532 Ry

     iteration #  8     ecut=    30.00 Ry     beta= 0.70
     Davidson diagonalization with overlap
     ethr =  1.21E-08,  avg # of iterations =  5.0

     total cpu time spent up to now is       26.9 secs

     total energy              =    -333.17077577 Ry
     estimated scf accuracy    <       0.00000069 Ry

     iteration #  9     ecut=    30.00 Ry     beta= 0.70
     Davidson diagonalization with overlap
     ethr =  1.56E-09,  avg # of iterations =  2.5

     total cpu time spent up to now is       27.2 secs

     total energy              =    -333.17077568 Ry
     estimated scf accuracy    <       0.00000054 Ry

     iteration # 10     ecut=    30.00 Ry     beta= 0.70
     Davidson diagonalization with overlap
     ethr =  1.22E-09,  avg # of iterations =  2.7

     total cpu time spent up to now is       27.5 secs

     total energy              =    -333.17077567 Ry
     estimated scf accuracy    <       0.00000014 Ry

     iteration # 11     ecut=    30.00 Ry     beta= 0.70
     Davidson diagonalization with overlap
     ethr =  3.18E-10,  avg # of iterations =  4.8

     total cpu time spent up to now is       27.9 secs

     total energy              =    -333.17077574 Ry
     estimated scf accuracy    <       0.00000006 Ry

     iteration # 12     ecut=    30.00 Ry     beta= 0.70
     Davidson diagonalization with overlap
     ethr =  1.40E-10,  avg # of iterations =  1.0

     total cpu time spent up to now is       28.1 secs

     total energy              =    -333.17077572 Ry
     estimated scf accuracy    <       0.00000004 Ry

     iteration # 13     ecut=    30.00 Ry     beta= 0.70
     Davidson diagonalization with overlap
     ethr =  9.27E-11,  avg # of iterations =  3.8

     total cpu time spent up to now is       28.5 secs

     End of self-consistent calculation

          k = 0.1250 0.1250 0.1250 (  1096 PWs)   bands (ev):

   -44.7097 -21.3474 -21.3207 -21.3199  -6.4218  -5.3598  -5.3276  -4.0389
    -4.0252  -4.0156  -3.8529  -3.8052   4.5561   7.2170   7.2318   8.0514
     8.9092   9.0365   9.6921   9.7642   9.9457  10.0856

          k = 0.1250 0.1250 0.3750 (  1095 PWs)   bands (ev):

   -44.7084 -21.4042 -21.3185 -21.3175  -6.0161  -5.2500  -5.1657  -4.0813
    -4.0319  -4.0068  -3.8977  -3.8228   3.8591   6.7727   7.1956   7.6839
     8.3588   8.6061   9.3343   9.8187  10.0569  10.8741

          k = 0.1250 0.3750 0.3750 (  1093 PWs)   bands (ev):

   -44.7072 -21.4009 -21.3736 -21.3161  -5.8041  -5.1217  -5.0411  -4.0631
    -4.0228  -3.9647  -3.8651  -3.6849   3.4898   6.6518   6.8376   7.0940
     7.4160   8.6224   9.2854   9.4471  10.0687  10.6103

          k = 0.3750 0.3750 0.3750 (  1082 PWs)   bands (ev):

   -44.7059 -21.3983 -21.3709 -21.3707  -5.4109  -5.2476  -5.2181  -3.9801
    -3.9647  -3.7039  -3.6220  -3.5880   4.0013   5.8532   5.8852   6.6169
     7.0729   7.0823   8.1006  10.5609  10.5887  10.6530

          k = 0.3750-0.1250 0.1250 (  1095 PWs)   bands (ev):

   -44.7084 -21.3770 -21.3450 -21.3180  -6.0164  -5.2521  -5.1954  -4.0878
    -4.0253  -4.0140  -3.8924  -3.7970   3.8244   6.7879   7.3080   7.7643
     8.3554   8.7188   9.2444   9.8041   9.9636  10.8047

          k = 0.3750-0.3750 0.1250 (  1093 PWs)   bands (ev):

   -44.7072 -21.3741 -21.3732 -21.3430  -5.7893  -5.1376  -5.0782  -4.0524
    -4.0051  -3.9218  -3.8349  -3.7555   3.4165   6.7297   6.8334   7.1239
     7.4039   8.6436   9.4577   9.4651  10.0111  10.6315

     highest occupied level (ev):    10.8741

!    total energy              =    -333.17077573 Ry
     estimated scf accuracy    <          7.8E-10 Ry

     The total energy is the sum of the following terms:
     one-electron contribution =     -78.45109431 Ry
     hartree contribution      =      67.08504384 Ry
     xc contribution           =     -49.65118834 Ry
     ewald contribution        =    -272.15353692 Ry

     convergence has been achieved in  13 iterations

     Forces acting on atoms (cartesian axes, Ry/au):

     atom    1 type  2   force =     0.00000000    0.00000000   -0.03031822
     atom    2 type  3   force =     0.00000000    0.00000000    0.04947644
     atom    3 type  1   force =     0.00000000    0.00000000   -0.01959171
     atom    4 type  1   force =     0.00000000    0.00000000   -0.01959171
     atom    5 type  1   force =     0.00000000    0.00000000    0.02002519
     The non-local contrib.  to forces
     atom    1 type  2   force =     0.00000000    0.00000000    0.14462420
     atom    2 type  3   force =     0.00000000    0.00000000   -0.03412149
     atom    3 type  1   force =     0.00000000    0.00000000   -0.26374427
     atom    4 type  1   force =     0.00000000    0.00000000   -0.26374427
     atom    5 type  1   force =     0.00000000    0.00000000    0.30533279
     The ionic contribution  to forces
     atom    1 type  2   force =     0.00000000    0.00000000   -3.74640818
     atom    2 type  3   force =    -0.00000000   -0.00000000    2.28100790
     atom    3 type  1   force =     0.00000000   -0.00000000    2.26804541
     atom    4 type  1   force =    -0.00000000    0.00000000    2.26804541
     atom    5 type  1   force =    -0.00000000   -0.00000000   -3.07069053
     The local contribution  to forces
     atom    1 type  2   force =    -0.00000000   -0.00000000    3.57146060
     atom    2 type  3   force =    -0.00000000   -0.00000000   -2.19741619
     atom    3 type  1   force =     0.00000000   -0.00000000   -2.02390368
     atom    4 type  1   force =    -0.00000000    0.00000000   -2.02390368
     atom    5 type  1   force =    -0.00000000   -0.00000000    2.78538302
     The core correction contribution to forces
     atom    1 type  2   force =     0.00000000    0.00000000    0.00000000
     atom    2 type  3   force =     0.00000000    0.00000000    0.00000000
     atom    3 type  1   force =     0.00000000    0.00000000    0.00000000
     atom    4 type  1   force =     0.00000000    0.00000000    0.00000000
     atom    5 type  1   force =     0.00000000    0.00000000    0.00000000
     The Hubbard contrib.    to forces
     atom    1 type  2   force =     0.00000000    0.00000000    0.00000000
     atom    2 type  3   force =     0.00000000    0.00000000    0.00000000
     atom    3 type  1   force =     0.00000000    0.00000000    0.00000000
     atom    4 type  1   force =     0.00000000    0.00000000    0.00000000
     atom    5 type  1   force =     0.00000000    0.00000000    0.00000000
     The SCF correction term to forces
     atom    1 type  2   force =    -0.00000000    0.00000000   -0.00000000
     atom    2 type  3   force =     0.00000000   -0.00000000   -0.00000000
     atom    3 type  1   force =     0.00000000    0.00000000    0.00000365
     atom    4 type  1   force =     0.00000000    0.00000000    0.00000365
     atom    5 type  1   force =    -0.00000000   -0.00000000   -0.00000728

     Total force =     0.034186     Total SCF correction =     0.000009


     Computing stress (Cartesian axis) and pressure

          total   stress  (Ry/bohr**3)                   (kbar)     P=       -7.01
  -0.00004233   0.00000000   0.00000000           -6.23        0.00        0.00
   0.00000000  -0.00004233   0.00000000            0.00       -6.23        0.00
   0.00000000   0.00000000  -0.00005821            0.00        0.00       -8.56

     Energy error            =      4.6E-03 Ry
     Gradient error          =      2.0E-02 Ry/Bohr

     number of scf cycles    =   6
     number of bfgs steps    =   5

     energy             old  =    -333.1661541196 Ry
     energy             new  =    -333.1707757302 Ry

     CASE: energy            _new < energy            _old

     new trust radius        =       0.1958833514 bohr
     new conv_thr            =       0.0000000200 Ry


ATOMIC_POSITIONS (angstrom)
Pb            0.0000000000        0.0000000000        0.0000000000    0   0   0
Ti            1.9400000000        1.9400000000        1.5928400000    0   0   0
O             0.0000000000        1.9400000000        1.6639010681
O             1.9400000000        0.0000000000        1.6639010681
O             1.9400000000        1.9400000000       -0.2818662195



     Writing config-only to output data dir /home/gridsan/epan1/labutil/lab3_samples/problem2/Lab3/PbTiO3_a_3.88_ecut_30_nk_4_displ_-0.08947368421052632/pwscf.save/
     NEW-OLD atomic charge density approx. for the potential

     total cpu time spent up to now is       29.7 secs

     Self-consistent Calculation

     iteration #  1     ecut=    30.00 Ry     beta= 0.70
     Davidson diagonalization with overlap
     ethr =  1.00E-06,  avg # of iterations = 10.3

     total cpu time spent up to now is       30.3 secs

     total energy              =    -333.17359301 Ry
     estimated scf accuracy    <       0.00688101 Ry

     iteration #  2     ecut=    30.00 Ry     beta= 0.70
     Davidson diagonalization with overlap
     ethr =  1.56E-05,  avg # of iterations =  4.2

     total cpu time spent up to now is       30.6 secs

     total energy              =    -333.17368770 Ry
     estimated scf accuracy    <       0.00400951 Ry

     iteration #  3     ecut=    30.00 Ry     beta= 0.70
     Davidson diagonalization with overlap
     ethr =  9.11E-06,  avg # of iterations =  4.3

     total cpu time spent up to now is       30.9 secs

     total energy              =    -333.17470201 Ry
     estimated scf accuracy    <       0.00248433 Ry

     iteration #  4     ecut=    30.00 Ry     beta= 0.70
     Davidson diagonalization with overlap
     ethr =  5.65E-06,  avg # of iterations =  3.7

     total cpu time spent up to now is       31.2 secs

     total energy              =    -333.17499457 Ry
     estimated scf accuracy    <       0.00010655 Ry

     iteration #  5     ecut=    30.00 Ry     beta= 0.70
     Davidson diagonalization with overlap
     ethr =  2.42E-07,  avg # of iterations =  6.0

     total cpu time spent up to now is       31.6 secs

     total energy              =    -333.17511223 Ry
     estimated scf accuracy    <       0.00017810 Ry

     iteration #  6     ecut=    30.00 Ry     beta= 0.70
     Davidson diagonalization with overlap
     ethr =  2.42E-07,  avg # of iterations =  1.8

     total cpu time spent up to now is       31.9 secs

     total energy              =    -333.17508804 Ry
     estimated scf accuracy    <       0.00010280 Ry

     iteration #  7     ecut=    30.00 Ry     beta= 0.70
     Davidson diagonalization with overlap
     ethr =  2.34E-07,  avg # of iterations =  4.2

     total cpu time spent up to now is       32.2 secs

     total energy              =    -333.17510626 Ry
     estimated scf accuracy    <       0.00000258 Ry

     iteration #  8     ecut=    30.00 Ry     beta= 0.70
     Davidson diagonalization with overlap
     ethr =  5.85E-09,  avg # of iterations =  5.3

     total cpu time spent up to now is       32.6 secs

     total energy              =    -333.17510820 Ry
     estimated scf accuracy    <       0.00000109 Ry

     iteration #  9     ecut=    30.00 Ry     beta= 0.70
     Davidson diagonalization with overlap
     ethr =  2.48E-09,  avg # of iterations =  2.3

     total cpu time spent up to now is       32.8 secs

     total energy              =    -333.17510815 Ry
     estimated scf accuracy    <       0.00000035 Ry

     iteration # 10     ecut=    30.00 Ry     beta= 0.70
     Davidson diagonalization with overlap
     ethr =  8.02E-10,  avg # of iterations =  4.5

     total cpu time spent up to now is       33.2 secs

     total energy              =    -333.17510827 Ry
     estimated scf accuracy    <       0.00000005 Ry

     iteration # 11     ecut=    30.00 Ry     beta= 0.70
     Davidson diagonalization with overlap
     ethr =  1.06E-10,  avg # of iterations =  2.7

     total cpu time spent up to now is       33.5 secs

     End of self-consistent calculation

          k = 0.1250 0.1250 0.1250 (  1096 PWs)   bands (ev):

   -44.7810 -21.4016 -21.4007 -21.3787  -6.4932  -5.5092  -5.3126  -3.9845
    -3.9779  -3.9608  -3.8119  -3.7202   4.5883   7.1842   7.2188   8.0710
     8.9817   9.0027   9.7332   9.8563   9.8676  10.0133

          k = 0.1250 0.1250 0.3750 (  1095 PWs)   bands (ev):

   -44.7798 -21.4347 -21.3994 -21.3984  -6.1505  -5.4173  -5.0992  -4.0225
    -3.9692  -3.9571  -3.8066  -3.7740   3.9443   6.8063   7.2803   7.6324
     8.2526   8.6699   9.2091   9.8365   9.9086  10.8269

          k = 0.1250 0.3750 0.3750 (  1093 PWs)   bands (ev):

   -44.7785 -21.4556 -21.4314 -21.3969  -5.9289  -5.2463  -4.9930  -4.0068
    -3.9653  -3.9055  -3.7982  -3.6157   3.5308   6.6388   6.7709   7.0125
     7.3860   8.5107   9.2120   9.4184  10.1122  10.6244

          k = 0.3750 0.3750 0.3750 (  1082 PWs)   bands (ev):

   -44.7772 -21.4529 -21.4526 -21.4287  -5.4959  -5.3624  -5.1684  -3.9216
    -3.9125  -3.6502  -3.5592  -3.5242   3.9172   5.7928   5.9133   6.5952
     6.8844   6.9747   8.2237  10.4535  10.5942  10.6687

          k = 0.3750-0.1250 0.1250 (  1095 PWs)   bands (ev):

   -44.7797 -21.4589 -21.3988 -21.3764  -6.0711  -5.3518  -5.2536  -4.0352
    -3.9707  -3.9567  -3.8086  -3.7209   3.8296   6.6735   7.2260   7.7534
     8.3311   8.6298   9.2626   9.7790  10.0086  10.8412

          k = 0.3750-0.3750 0.1250 (  1093 PWs)   bands (ev):

   -44.7785 -21.4559 -21.4550 -21.3745  -5.7410  -5.2559  -5.2294  -4.0018
    -3.9416  -3.8358  -3.7362  -3.6869   3.3359   6.6463   6.7203   7.0843
     7.3713   8.6474   9.3975   9.4445  10.0900  10.5001

     highest occupied level (ev):    10.8412

!    total energy              =    -333.17510826 Ry
     estimated scf accuracy    <       0.00000002 Ry

     The total energy is the sum of the following terms:
     one-electron contribution =     -79.73641305 Ry
     hartree contribution      =      67.70791025 Ry
     xc contribution           =     -49.66798249 Ry
     ewald contribution        =    -271.47862298 Ry

     convergence has been achieved in  11 iterations

     Forces acting on atoms (cartesian axes, Ry/au):

     atom    1 type  2   force =     0.00000000    0.00000000   -0.02971782
     atom    2 type  3   force =     0.00000000    0.00000000    0.03804558
     atom    3 type  1   force =     0.00000000    0.00000000   -0.00911165
     atom    4 type  1   force =     0.00000000    0.00000000   -0.00911165
     atom    5 type  1   force =     0.00000000    0.00000000    0.00989552
     The non-local contrib.  to forces
     atom    1 type  2   force =     0.00000000    0.00000000    0.21523712
     atom    2 type  3   force =     0.00000000    0.00000000   -0.02638814
     atom    3 type  1   force =     0.00000000    0.00000000   -0.22882107
     atom    4 type  1   force =     0.00000000    0.00000000   -0.22882107
     atom    5 type  1   force =     0.00000000    0.00000000    0.19356244
     The ionic contribution  to forces
     atom    1 type  2   force =     0.00000000    0.00000000   -4.95927695
     atom    2 type  3   force =    -0.00000000   -0.00000000    2.71872684
     atom    3 type  1   force =     0.00000000   -0.00000000    2.36652547
     atom    4 type  1   force =    -0.00000000    0.00000000    2.36652547
     atom    5 type  1   force =     0.00000000    0.00000000   -2.49250082
     The local contribution  to forces
     atom    1 type  2   force =     0.00000000   -0.00000000    4.71432711
     atom    2 type  3   force =    -0.00000000   -0.00000000   -2.65430801
     atom    3 type  1   force =     0.00000000   -0.00000000   -2.14684443
     atom    4 type  1   force =    -0.00000000    0.00000000   -2.14684443
     atom    5 type  1   force =    -0.00000000   -0.00000000    2.30884482
     The core correction contribution to forces
     atom    1 type  2   force =     0.00000000    0.00000000    0.00000000
     atom    2 type  3   force =     0.00000000    0.00000000    0.00000000
     atom    3 type  1   force =     0.00000000    0.00000000    0.00000000
     atom    4 type  1   force =     0.00000000    0.00000000    0.00000000
     atom    5 type  1   force =     0.00000000    0.00000000    0.00000000
     The Hubbard contrib.    to forces
     atom    1 type  2   force =     0.00000000    0.00000000    0.00000000
     atom    2 type  3   force =     0.00000000    0.00000000    0.00000000
     atom    3 type  1   force =     0.00000000    0.00000000    0.00000000
     atom    4 type  1   force =     0.00000000    0.00000000    0.00000000
     atom    5 type  1   force =     0.00000000    0.00000000    0.00000000
     The SCF correction term to forces
     atom    1 type  2   force =    -0.00000000   -0.00000000   -0.00000000
     atom    2 type  3   force =     0.00000000   -0.00000000    0.00000000
     atom    3 type  1   force =     0.00000000   -0.00000000    0.00001451
     atom    4 type  1   force =    -0.00000000    0.00000000    0.00001451
     atom    5 type  1   force =    -0.00000000   -0.00000000   -0.00002478

     Total force =     0.016247     Total SCF correction =     0.000032


     Computing stress (Cartesian axis) and pressure

          total   stress  (Ry/bohr**3)                   (kbar)     P=        1.35
   0.00004140   0.00000000   0.00000000            6.09        0.00        0.00
   0.00000000   0.00004140   0.00000000            0.00        6.09        0.00
   0.00000000   0.00000000  -0.00005523            0.00        0.00       -8.12

     Energy error            =      4.3E-03 Ry
     Gradient error          =      9.9E-03 Ry/Bohr

     number of scf cycles    =   7
     number of bfgs steps    =   6

     energy             old  =    -333.1707757302 Ry
     energy             new  =    -333.1751082636 Ry

     CASE: energy            _new < energy            _old

     new trust radius        =       0.1641443553 bohr
     new conv_thr            =       0.0000000099 Ry


ATOMIC_POSITIONS (angstrom)
Pb            0.0000000000        0.0000000000        0.0000000000    0   0   0
Ti            1.9400000000        1.9400000000        1.5928400000    0   0   0
O             0.0000000000        1.9400000000        1.5770396160
O             1.9400000000        0.0000000000        1.5770396160
O             1.9400000000        1.9400000000       -0.3188076936



     Writing config-only to output data dir /home/gridsan/epan1/labutil/lab3_samples/problem2/Lab3/PbTiO3_a_3.88_ecut_30_nk_4_displ_-0.08947368421052632/pwscf.save/
     NEW-OLD atomic charge density approx. for the potential

     total cpu time spent up to now is       34.6 secs

     Self-consistent Calculation

     iteration #  1     ecut=    30.00 Ry     beta= 0.70
     Davidson diagonalization with overlap
     ethr =  1.00E-06,  avg # of iterations = 10.7

     total cpu time spent up to now is       35.2 secs

     total energy              =    -333.17524035 Ry
     estimated scf accuracy    <       0.00476071 Ry

     iteration #  2     ecut=    30.00 Ry     beta= 0.70
     Davidson diagonalization with overlap
     ethr =  1.08E-05,  avg # of iterations =  4.2

     total cpu time spent up to now is       35.5 secs

     total energy              =    -333.17531903 Ry
     estimated scf accuracy    <       0.00259377 Ry

     iteration #  3     ecut=    30.00 Ry     beta= 0.70
     Davidson diagonalization with overlap
     ethr =  5.89E-06,  avg # of iterations =  4.5

     total cpu time spent up to now is       35.8 secs

     total energy              =    -333.17599688 Ry
     estimated scf accuracy    <       0.00173749 Ry

     iteration #  4     ecut=    30.00 Ry     beta= 0.70
     Davidson diagonalization with overlap
     ethr =  3.95E-06,  avg # of iterations =  3.3

     total cpu time spent up to now is       36.1 secs

     total energy              =    -333.17617306 Ry
     estimated scf accuracy    <       0.00010417 Ry

     iteration #  5     ecut=    30.00 Ry     beta= 0.70
     Davidson diagonalization with overlap
     ethr =  2.37E-07,  avg # of iterations =  5.8

     total cpu time spent up to now is       36.5 secs

     total energy              =    -333.17627147 Ry
     estimated scf accuracy    <       0.00014918 Ry

     iteration #  6     ecut=    30.00 Ry     beta= 0.70
     Davidson diagonalization with overlap
     ethr =  2.37E-07,  avg # of iterations =  2.0

     total cpu time spent up to now is       36.8 secs

     total energy              =    -333.17625320 Ry
     estimated scf accuracy    <       0.00008392 Ry

     iteration #  7     ecut=    30.00 Ry     beta= 0.70
     Davidson diagonalization with overlap
     ethr =  1.91E-07,  avg # of iterations =  4.0

     total cpu time spent up to now is       37.1 secs

     total energy              =    -333.17626619 Ry
     estimated scf accuracy    <       0.00000366 Ry

     iteration #  8     ecut=    30.00 Ry     beta= 0.70
     Davidson diagonalization with overlap
     ethr =  8.32E-09,  avg # of iterations =  5.3

     total cpu time spent up to now is       37.4 secs

     total energy              =    -333.17626837 Ry
     estimated scf accuracy    <       0.00000073 Ry

     iteration #  9     ecut=    30.00 Ry     beta= 0.70
     Davidson diagonalization with overlap
     ethr =  1.65E-09,  avg # of iterations =  2.0

     total cpu time spent up to now is       37.7 secs

     total energy              =    -333.17626826 Ry
     estimated scf accuracy    <       0.00000044 Ry

     iteration # 10     ecut=    30.00 Ry     beta= 0.70
     Davidson diagonalization with overlap
     ethr =  9.99E-10,  avg # of iterations =  4.2

     total cpu time spent up to now is       38.0 secs

     total energy              =    -333.17626834 Ry
     estimated scf accuracy    <       0.00000003 Ry

     iteration # 11     ecut=    30.00 Ry     beta= 0.70
     Davidson diagonalization with overlap
     ethr =  7.62E-11,  avg # of iterations =  5.0

     total cpu time spent up to now is       38.4 secs

[...]
     Davidson diagonalization with overlap
     ethr =  4.03E-09,  avg # of iterations =  4.3

     total cpu time spent up to now is       65.8 secs

     total energy              =    -333.17657861 Ry
     estimated scf accuracy    <       0.00000036 Ry

     iteration #  6     ecut=    30.00 Ry     beta= 0.70
     Davidson diagonalization with overlap
     ethr =  8.23E-10,  avg # of iterations =  3.3

     total cpu time spent up to now is       66.1 secs

     total energy              =    -333.17657861 Ry
     estimated scf accuracy    <       0.00000006 Ry

     iteration #  7     ecut=    30.00 Ry     beta= 0.70
     Davidson diagonalization with overlap
     ethr =  1.46E-10,  avg # of iterations =  5.2

     total cpu time spent up to now is       66.4 secs

     total energy              =    -333.17657865 Ry
     estimated scf accuracy    <       0.00000005 Ry

     iteration #  8     ecut=    30.00 Ry     beta= 0.70
     Davidson diagonalization with overlap
     ethr =  1.17E-10,  avg # of iterations =  1.0

     total cpu time spent up to now is       66.7 secs

     total energy              =    -333.17657865 Ry
     estimated scf accuracy    <       0.00000003 Ry

     iteration #  9     ecut=    30.00 Ry     beta= 0.70
     Davidson diagonalization with overlap
     ethr =  6.39E-11,  avg # of iterations =  3.2

     total cpu time spent up to now is       67.0 secs

     End of self-consistent calculation

          k = 0.1250 0.1250 0.1250 (  1096 PWs)   bands (ev):

   -44.8592 -21.4876 -21.4867 -21.4310  -6.6609  -5.7474  -5.2635  -3.8935
    -3.8879  -3.8441  -3.7333  -3.5302   4.6240   7.0428   7.1576   8.0932
     8.9011   9.0020   9.5241   9.7173   9.8367  10.2092

          k = 0.1250 0.1250 0.3750 (  1095 PWs)   bands (ev):

   -44.8580 -21.4876 -21.4844 -21.4840  -6.3848  -5.6764  -4.9959  -3.9245
    -3.8674  -3.8427  -3.6884  -3.6037   4.0386   6.8345   7.1233   7.4605
     8.3068   8.6209   9.1251   9.6273   9.8264  10.8507

          k = 0.1250 0.3750 0.3750 (  1093 PWs)   bands (ev):

   -44.8568 -21.5419 -21.4839 -21.4818  -6.1435  -5.5068  -4.9145  -3.9102
    -3.8524  -3.7959  -3.6639  -3.4532   3.6018   6.4630   6.7074   6.8984
     7.3683   8.3705   9.0148   9.4245  10.2304  10.6187

          k = 0.3750 0.3750 0.3750 (  1082 PWs)   bands (ev):

   -44.8554 -21.5392 -21.5389 -21.4800  -5.7088  -5.5860  -5.0712  -3.8163
    -3.8061  -3.5686  -3.4329  -3.3786   3.7262   5.7517   5.9385   6.4603
     6.7915   6.9725   8.4974  10.2151  10.5819  10.6617

          k = 0.3750-0.1250 0.1250 (  1095 PWs)   bands (ev):

   -44.8579 -21.5451 -21.4848 -21.4286  -6.2365  -5.5879  -5.2620  -3.9299
    -3.8776  -3.8399  -3.6638  -3.5440   3.8306   6.5328   7.1238   7.6845
     8.2164   8.5633   9.2576   9.6992   9.9342  10.9682

          k = 0.3750-0.3750 0.1250 (  1093 PWs)   bands (ev):

   -44.8567 -21.5421 -21.5412 -21.4266  -5.7824  -5.5010  -5.3867  -3.8964
    -3.8288  -3.6878  -3.5613  -3.5402   3.1745   6.5050   6.5874   7.0852
     7.4344   8.6831   9.3618   9.3925  10.2364  10.2880

     highest occupied level (ev):    10.9682

!    total energy              =    -333.17657865 Ry
     estimated scf accuracy    <          1.6E-10 Ry

     The total energy is the sum of the following terms:
     one-electron contribution =     -81.73295269 Ry
     hartree contribution      =      68.68607986 Ry
     xc contribution           =     -49.70194591 Ry
     ewald contribution        =    -270.42775990 Ry

     convergence has been achieved in   9 iterations

     Forces acting on atoms (cartesian axes, Ry/au):

     atom    1 type  2   force =     0.00000000    0.00000000   -0.04144885
     atom    2 type  3   force =     0.00000000    0.00000000    0.04204526
     atom    3 type  1   force =     0.00000000    0.00000000    0.00035668
     atom    4 type  1   force =     0.00000000    0.00000000    0.00035668
     atom    5 type  1   force =     0.00000000    0.00000000   -0.00130977
     The non-local contrib.  to forces
     atom    1 type  2   force =     0.00000000    0.00000000    0.31287886
     atom    2 type  3   force =     0.00000000    0.00000000   -0.01576412
     atom    3 type  1   force =     0.00000000    0.00000000   -0.20435371
     atom    4 type  1   force =     0.00000000    0.00000000   -0.20435371
     atom    5 type  1   force =     0.00000000    0.00000000   -0.03198028
     The ionic contribution  to forces
     atom    1 type  2   force =     0.00000000    0.00000000   -6.49047902
     atom    2 type  3   force =    -0.00000000   -0.00000000    2.24730554
     atom    3 type  1   force =     0.00000000   -0.00000000    2.26375101
     atom    4 type  1   force =    -0.00000000    0.00000000    2.26375101
     atom    5 type  1   force =    -0.00000000   -0.00000000   -0.28432854
     The local contribution  to forces
     atom    1 type  2   force =     0.00000000   -0.00000000    6.13615347
     atom    2 type  3   force =    -0.00000000   -0.00000000   -2.18948321
     atom    3 type  1   force =     0.00000000   -0.00000000   -2.05902044
     atom    4 type  1   force =    -0.00000000   -0.00000000   -2.05902044
     atom    5 type  1   force =    -0.00000000   -0.00000000    0.31500759
     The core correction contribution to forces
     atom    1 type  2   force =     0.00000000    0.00000000    0.00000000
     atom    2 type  3   force =     0.00000000    0.00000000    0.00000000
     atom    3 type  1   force =     0.00000000    0.00000000    0.00000000
     atom    4 type  1   force =     0.00000000    0.00000000    0.00000000
     atom    5 type  1   force =     0.00000000    0.00000000    0.00000000
     The Hubbard contrib.    to forces
     atom    1 type  2   force =     0.00000000    0.00000000    0.00000000
     atom    2 type  3   force =     0.00000000    0.00000000    0.00000000
     atom    3 type  1   force =     0.00000000    0.00000000    0.00000000
     atom    4 type  1   force =     0.00000000    0.00000000    0.00000000
     atom    5 type  1   force =     0.00000000    0.00000000    0.00000000
     The SCF correction term to forces
     atom    1 type  2   force =    -0.00000000   -0.00000000    0.00000000
     atom    2 type  3   force =    -0.00000000    0.00000000   -0.00000000
     atom    3 type  1   force =     0.00000000    0.00000000   -0.00000955
     atom    4 type  1   force =     0.00000000    0.00000000   -0.00000955
     atom    5 type  1   force =    -0.00000000    0.00000000    0.00000209

     Total force =     0.001404     Total SCF correction =     0.000014


     Computing stress (Cartesian axis) and pressure

          total   stress  (Ry/bohr**3)                   (kbar)     P=       18.68
   0.00016755   0.00000000   0.00000000           24.65        0.00        0.00
   0.00000000   0.00016755   0.00000000            0.00       24.65        0.00
   0.00000000   0.00000000   0.00004584            0.00        0.00        6.74

     Energy error            =      6.8E-05 Ry
     Gradient error          =      1.3E-03 Ry/Bohr

     number of scf cycles    =  15
     number of bfgs steps    =  14

     energy             old  =    -333.1765108542 Ry
     energy             new  =    -333.1765786529 Ry

     CASE: energy            _new < energy            _old

     new trust radius        =       0.0353489665 bohr
     new conv_thr            =       0.0000000010 Ry


ATOMIC_POSITIONS (angstrom)
Pb            0.0000000000        0.0000000000        0.0000000000    0   0   0
Ti            1.9400000000        1.9400000000        1.5928400000    0   0   0
O             0.0000000000        1.9400000000        1.4943374466
O             1.9400000000        0.0000000000        1.4943374466
O             1.9400000000        1.9400000000       -0.4179821097



     Writing config-only to output data dir /home/gridsan/epan1/labutil/lab3_samples/problem2/Lab3/PbTiO3_a_3.88_ecut_30_nk_4_displ_-0.08947368421052632/pwscf.save/
     NEW-OLD atomic charge density approx. for the potential

     total cpu time spent up to now is       68.2 secs

     Self-consistent Calculation

     iteration #  1     ecut=    30.00 Ry     beta= 0.70
     Davidson diagonalization with overlap
     ethr =  1.00E-06,  avg # of iterations =  7.3

     total cpu time spent up to now is       68.6 secs

     total energy              =    -333.17654657 Ry
     estimated scf accuracy    <       0.00026884 Ry

     iteration #  2     ecut=    30.00 Ry     beta= 0.70
     Davidson diagonalization with overlap
     ethr =  6.11E-07,  avg # of iterations =  2.0

     total cpu time spent up to now is       68.9 secs

     total energy              =    -333.17658077 Ry
     estimated scf accuracy    <       0.00001456 Ry

     iteration #  3     ecut=    30.00 Ry     beta= 0.70
     Davidson diagonalization with overlap
     ethr =  3.31E-08,  avg # of iterations =  4.3

     total cpu time spent up to now is       69.2 secs

     total energy              =    -333.17658310 Ry
     estimated scf accuracy    <       0.00000746 Ry

     iteration #  4     ecut=    30.00 Ry     beta= 0.70
     Davidson diagonalization with overlap
     ethr =  1.69E-08,  avg # of iterations =  4.8

     total cpu time spent up to now is       69.6 secs

     total energy              =    -333.17658477 Ry
     estimated scf accuracy    <       0.00000332 Ry

     iteration #  5     ecut=    30.00 Ry     beta= 0.70
     Davidson diagonalization with overlap
     ethr =  7.55E-09,  avg # of iterations =  4.7

     total cpu time spent up to now is       69.9 secs

     total energy              =    -333.17658544 Ry
     estimated scf accuracy    <       0.00000025 Ry

     iteration #  6     ecut=    30.00 Ry     beta= 0.70
     Davidson diagonalization with overlap
     ethr =  5.71E-10,  avg # of iterations =  5.0

     total cpu time spent up to now is       70.2 secs

     total energy              =    -333.17658549 Ry
     estimated scf accuracy    <       0.00000017 Ry

     iteration #  7     ecut=    30.00 Ry     beta= 0.70
     Davidson diagonalization with overlap
     ethr =  3.88E-10,  avg # of iterations =  3.3

     total cpu time spent up to now is       70.5 secs

     total energy              =    -333.17658549 Ry
     estimated scf accuracy    <       0.00000002 Ry

     iteration #  8     ecut=    30.00 Ry     beta= 0.70
     Davidson diagonalization with overlap
     ethr =  5.59E-11,  avg # of iterations =  5.8

     total cpu time spent up to now is       70.9 secs

     total energy              =    -333.17658551 Ry
     estimated scf accuracy    <       0.00000003 Ry

     iteration #  9     ecut=    30.00 Ry     beta= 0.70
     Davidson diagonalization with overlap
     ethr =  5.59E-11,  avg # of iterations =  1.5

     total cpu time spent up to now is       71.2 secs

     total energy              =    -333.17658551 Ry
     estimated scf accuracy    <       0.00000002 Ry

     iteration # 10     ecut=    30.00 Ry     beta= 0.70
     Davidson diagonalization with overlap
     ethr =  3.81E-11,  avg # of iterations =  3.5

     total cpu time spent up to now is       71.5 secs

     End of self-consistent calculation

          k = 0.1250 0.1250 0.1250 (  1096 PWs)   bands (ev):

   -44.8519 -21.4808 -21.4799 -21.4304  -6.6771  -5.7683  -5.2633  -3.8858
    -3.8804  -3.8341  -3.7277  -3.5099   4.6249   7.0280   7.1483   8.1008
     8.8904   8.9889   9.5096   9.6754   9.8227  10.2213

          k = 0.1250 0.1250 0.3750 (  1095 PWs)   bands (ev):

   -44.8507 -21.4861 -21.4781 -21.4775  -6.4047  -5.6989  -4.9921  -3.9166
    -3.8586  -3.8326  -3.6830  -3.5819   4.0400   6.8314   7.0957   7.4506
     8.3160   8.5979   9.1198   9.6071   9.8138  10.8593

          k = 0.1250 0.3750 0.3750 (  1093 PWs)   bands (ev):

   -44.8494 -21.5351 -21.4824 -21.4758  -6.1619  -5.5319  -4.9141  -3.9025
    -3.8423  -3.7870  -3.6515  -3.4356   3.6072   6.4425   6.6929   6.8954
     7.3638   8.3648   8.9973   9.4117  10.2434  10.6098

          k = 0.3750 0.3750 0.3750 (  1082 PWs)   bands (ev):

   -44.8481 -21.5324 -21.5320 -21.4794  -5.7297  -5.6076  -5.0666  -3.8080
    -3.7961  -3.5652  -3.4214  -3.3629   3.7042   5.7485   5.9375   6.4487
     6.7993   6.9777   8.5274  10.1949  10.5675  10.6500

          k = 0.3750-0.1250 0.1250 (  1095 PWs)   bands (ev):

   -44.8506 -21.5383 -21.4780 -21.4279  -6.2534  -5.6111  -5.2667  -3.9201
    -3.8698  -3.8304  -3.6511  -3.5249   3.8301   6.5242   7.1150   7.6778
     8.2011   8.5602   9.2446   9.6859   9.9080  10.9791

          k = 0.3750-0.3750 0.1250 (  1093 PWs)   bands (ev):

   -44.8494 -21.5353 -21.5344 -21.4259  -5.7961  -5.5263  -5.3953  -3.8864
    -3.8197  -3.6768  -3.5502  -3.5204   3.1571   6.4943   6.5848   7.0862
     7.4433   8.6851   9.3570   9.3781  10.2484  10.2685

     highest occupied level (ev):    10.9791

!    total energy              =    -333.17658551 Ry
     estimated scf accuracy    <          1.3E-10 Ry

     The total energy is the sum of the following terms:
     one-electron contribution =     -81.96795249 Ry
     hartree contribution      =      68.80513855 Ry
     xc contribution           =     -49.70836660 Ry
     ewald contribution        =    -270.30540498 Ry

     convergence has been achieved in  10 iterations

     Forces acting on atoms (cartesian axes, Ry/au):

     atom    1 type  2   force =     0.00000000    0.00000000   -0.04316530
     atom    2 type  3   force =     0.00000000    0.00000000    0.04256890
     atom    3 type  1   force =     0.00000000    0.00000000    0.00005448
     atom    4 type  1   force =     0.00000000    0.00000000    0.00005448
     atom    5 type  1   force =     0.00000000    0.00000000    0.00048743
     The non-local contrib.  to forces
     atom    1 type  2   force =     0.00000000    0.00000000    0.32205074
     atom    2 type  3   force =     0.00000000    0.00000000   -0.01352769
     atom    3 type  1   force =     0.00000000    0.00000000   -0.20537580
     atom    4 type  1   force =     0.00000000    0.00000000   -0.20537580
     atom    5 type  1   force =     0.00000000    0.00000000   -0.06254469
     The ionic contribution  to forces
     atom    1 type  2   force =     0.00000000    0.00000000   -6.60605295
     atom    2 type  3   force =    -0.00000000   -0.00000000    2.01969291
     atom    3 type  1   force =     0.00000000   -0.00000000    2.22714268
     atom    4 type  1   force =    -0.00000000    0.00000000    2.22714268
     atom    5 type  1   force =    -0.00000000   -0.00000000    0.13207468
     The local contribution  to forces
     atom    1 type  2   force =    -0.00000000    0.00000000    6.24082309
     atom    2 type  3   force =    -0.00000000   -0.00000000   -1.96359013
     atom    3 type  1   force =    -0.00000000   -0.00000000   -2.02170591
     atom    4 type  1   force =    -0.00000000    0.00000000   -2.02170591
     atom    5 type  1   force =    -0.00000000   -0.00000000   -0.06904036
     The core correction contribution to forces
     atom    1 type  2   force =     0.00000000    0.00000000    0.00000000
     atom    2 type  3   force =     0.00000000    0.00000000    0.00000000
     atom    3 type  1   force =     0.00000000    0.00000000    0.00000000
     atom    4 type  1   force =     0.00000000    0.00000000    0.00000000
     atom    5 type  1   force =     0.00000000    0.00000000    0.00000000
     The Hubbard contrib.    to forces
     atom    1 type  2   force =     0.00000000    0.00000000    0.00000000
     atom    2 type  3   force =     0.00000000    0.00000000    0.00000000
     atom    3 type  1   force =     0.00000000    0.00000000    0.00000000
     atom    4 type  1   force =     0.00000000    0.00000000    0.00000000
     atom    5 type  1   force =     0.00000000    0.00000000    0.00000000
     The SCF correction term to forces
     atom    1 type  2   force =     0.00000000   -0.00000000    0.00000000
     atom    2 type  3   force =     0.00000000    0.00000000   -0.00000000
     atom    3 type  1   force =     0.00000000    0.00000000   -0.00000542
     atom    4 type  1   force =     0.00000000   -0.00000000   -0.00000542
     atom    5 type  1   force =     0.00000000   -0.00000000   -0.00000114

     Total force =     0.000493     Total SCF correction =     0.000008


     Computing stress (Cartesian axis) and pressure

          total   stress  (Ry/bohr**3)                   (kbar)     P=       22.31
   0.00018439   0.00000000   0.00000000           27.12        0.00        0.00
   0.00000000   0.00018439   0.00000000            0.00       27.12        0.00
   0.00000000   0.00000000   0.00008615            0.00        0.00       12.67

     Energy error            =      6.9E-06 Ry
     Gradient error          =      4.9E-04 Ry/Bohr

     bfgs converged in  16 scf cycles and  15 bfgs steps
     (criteria: energy <  1.0E-04 Ry, force <  1.0E-03 Ry/Bohr)

     End of BFGS Geometry Optimization

     Final energy             =    -333.1765855095 Ry

     File /home/gridsan/epan1/labutil/lab3_samples/problem2/Lab3/PbTiO3_a_3.88_ecut_30_nk_4_displ_-0.08947368421052632/pwscf.bfgs deleted, as requested
Begin final coordinates

ATOMIC_POSITIONS (angstrom)
Pb            0.0000000000        0.0000000000        0.0000000000    0   0   0
Ti            1.9400000000        1.9400000000        1.5928400000    0   0   0
O             0.0000000000        1.9400000000        1.4943374466
O             1.9400000000        0.0000000000        1.4943374466
O             1.9400000000        1.9400000000       -0.4179821097
End final coordinates



     init_run     :      0.69s CPU      0.70s WALL (       1 calls)
     electrons    :     64.57s CPU     52.86s WALL (      16 calls)
     update_pot   :      0.60s CPU      0.55s WALL (      15 calls)
     forces       :      2.19s CPU      1.80s WALL (      16 calls)
     stress       :     16.66s CPU     14.53s WALL (      16 calls)

     Called by init_run:
     wfcinit      :      0.09s CPU      0.08s WALL (       1 calls)
     potinit      :      0.04s CPU      0.04s WALL (       1 calls)
     hinit0       :      0.46s CPU      0.47s WALL (       1 calls)

     Called by electrons:
     c_bands      :     37.53s CPU     29.24s WALL (     157 calls)
     sum_band     :     16.45s CPU     14.34s WALL (     157 calls)
     v_of_rho     :      0.60s CPU      0.53s WALL (     170 calls)
     newd         :     10.05s CPU      8.77s WALL (     170 calls)
     mix_rho      :      0.37s CPU      0.32s WALL (     157 calls)

     Called by c_bands:
     init_us_2    :      1.10s CPU      0.87s WALL (    2082 calls)
     init_us_2:cp :      1.10s CPU      0.87s WALL (    2082 calls)
     cegterg      :     34.72s CPU     26.69s WALL (     942 calls)

     Called by *egterg:
     cdiaghg      :      5.88s CPU      4.41s WALL (    4896 calls)
     h_psi        :     23.38s CPU     18.31s WALL (    5010 calls)
     s_psi        :      0.99s CPU      0.74s WALL (    5010 calls)
     g_psi        :      0.24s CPU      0.17s WALL (    4062 calls)

     Called by h_psi:
     h_psi:calbec :      1.37s CPU      1.06s WALL (    5010 calls)
     vloc_psi     :     20.85s CPU     16.36s WALL (    5010 calls)
     add_vuspsi   :      1.02s CPU      0.78s WALL (    5010 calls)

     General routines
     calbec       :      1.89s CPU      1.49s WALL (    6432 calls)
     fft          :      1.04s CPU      0.90s WALL (    1086 calls)
     ffts         :      0.10s CPU      0.09s WALL (     327 calls)
     fftw         :     19.85s CPU     15.60s WALL (  148486 calls)
     interpolate  :      0.20s CPU      0.18s WALL (     170 calls)

     Parallel routines

     PWSCF        :   1m26.23s CPU   1m12.54s WALL


   This run was terminated on:  17:57:28   2Nov2023            

=------------------------------------------------------------------------------=
   JOB DONE.
=------------------------------------------------------------------------------=
