
     Program PWSCF v.7.2 starts on  1Nov2023 at 16:59: 9 

     This program is part of the open-source Quantum ESPRESSO suite
     for quantum simulation of materials; please cite
         "P. Giannozzi et al., J. Phys.:Condens. Matter 21 395502 (2009);
         "P. Giannozzi et al., J. Phys.:Condens. Matter 29 465901 (2017);
         "P. Giannozzi et al., J. Chem. Phys. 152 154105 (2020);
          URL http://www.quantum-espresso.org", 
     in publications or presentations arising from this work. More details at
     http://www.quantum-espresso.org/quote

     Parallel version (MPI), running on     4 processors

     MPI processes distributed on     4 nodes
     186770 MiB available memory on the printing compute node when the environment starts

     Waiting for input...
     Reading input from standard input
Warning: card &CELL ignored
Warning: card / ignored

     Current dimensions of program PWSCF are:
     Max number of different atomic species (ntypx) = 10
     Max number of k-points (npk) =  40000
     Max angular momentum in pseudopotentials (lmaxx) =  4
     file Fe.pbe-nd-rrkjus.UPF: wavefunction(s)  4S renormalized
     Message from routine setup:
     using ibrav=0 with symmetry is DISCOURAGED, use correct ibrav instead

     R & G space division:  proc/nbgrp/npool/nimage =       4
     Subspace diagonalization in iterative solution of the eigenvalue problem:
     a serial algorithm will be used


     Parallelization info
     --------------------
     sticks:   dense  smooth     PW     G-vecs:    dense   smooth      PW
     Min          95      45     22                 1181      400     138
     Max          96      46     23                 1183      401     139
     Sum         383     181     91                 4729     1601     555

     Using Slab Decomposition



     bravais-lattice index     =            0
     lattice parameter (alat)  =       4.5823  a.u.
     unit-cell volume          =      74.0697 (a.u.)^3
     number of atoms/cell      =            1
     number of atomic types    =            1
     number of electrons       =         8.00
     number of Kohn-Sham states=            8
     kinetic-energy cutoff     =      30.0000  Ry
     charge density cutoff     =     240.0000  Ry
     scf convergence threshold =      1.0E-07
     mixing beta               =       0.5000
     number of iterations used =            8  plain     mixing
     Exchange-correlation=  SLA  PW   PBE  PBE
                           (   1   4   3   4   0   0   0)

     celldm(1)=   4.582342  celldm(2)=   0.000000  celldm(3)=   0.000000
     celldm(4)=   0.000000  celldm(5)=   0.000000  celldm(6)=   0.000000

     crystal axes: (cart. coord. in units of alat)
               a(1) = (  -0.577350   0.577350   0.577350 )  
               a(2) = (   0.577350  -0.577350   0.577350 )  
               a(3) = (   0.577350   0.577350  -0.577350 )  

     reciprocal axes: (cart. coord. in units 2 pi/alat)
               b(1) = (  0.000000  0.866025  0.866025 )  
               b(2) = (  0.866025  0.000000  0.866025 )  
               b(3) = (  0.866025  0.866025  0.000000 )  


     PseudoPot. # 1 for Fe read from file:
     /home/gridsan/epan1/labutil/lab3_samples/pseudopotentials/Fe.pbe-nd-rrkjus.UPF
     MD5 check sum: 398036227a04b607635f6f5e8dfd8242
     Pseudo is Ultrasoft + core correction, Zval =  8.0
     Generated by new atomic code, or converted to UPF format
     Using radial grid of  957 points,  6 beta functions with: 
                l(1) =   0
                l(2) =   0
                l(3) =   1
                l(4) =   1
                l(5) =   2
                l(6) =   2
     Q(r) pseudized with 0 coefficients 


     atomic species   valence    mass     pseudopotential
        Fe             8.00    55.84500     Fe( 1.00)

     Starting magnetic structure 
     atomic species   magnetization
        Fe           0.700

     48 Sym. Ops., with inversion, found



   Cartesian axes

     site n.     atom                  positions (alat units)
         1           Fe  tau(   1) = (   0.0000000   0.0000000   0.0000000  )

     number of k points=    47  Methfessel-Paxton smearing, width (Ry)=  0.0200
                       cart. coord. in units 2pi/alat
        k(    1) = (   0.0000000   0.0000000   0.0000000), wk =   0.0010000
        k(    2) = (   0.0866025   0.0866025   0.0000000), wk =   0.0120000
        k(    3) = (   0.1732051   0.1732051   0.0000000), wk =   0.0120000
        k(    4) = (   0.2598076   0.2598076   0.0000000), wk =   0.0120000
        k(    5) = (   0.3464102   0.3464102   0.0000000), wk =   0.0120000
        k(    6) = (  -0.4330127  -0.4330127   0.0000000), wk =   0.0060000
        k(    7) = (   0.1732051   0.0866025   0.0866025), wk =   0.0240000
        k(    8) = (   0.2598076   0.1732051   0.0866025), wk =   0.0480000
        k(    9) = (   0.3464102   0.2598076   0.0866025), wk =   0.0480000
        k(   10) = (   0.4330127   0.3464102   0.0866025), wk =   0.0480000
        k(   11) = (   0.3464102   0.1732051   0.1732051), wk =   0.0240000
        k(   12) = (   0.4330127   0.2598076   0.1732051), wk =   0.0480000
        k(   13) = (   0.5196152   0.3464102   0.1732051), wk =   0.0240000
        k(   14) = (   0.5196152   0.2598076   0.2598076), wk =   0.0240000
        k(   15) = (   0.1732051   0.1732051   0.1732051), wk =   0.0080000
        k(   16) = (   0.2598076   0.2598076   0.1732051), wk =   0.0240000
        k(   17) = (   0.3464102   0.3464102   0.1732051), wk =   0.0240000
        k(   18) = (   0.4330127   0.4330127   0.1732051), wk =   0.0120000
        k(   19) = (   0.0000000   0.0000000   0.1732051), wk =   0.0060000
        k(   20) = (   0.3464102   0.2598076   0.2598076), wk =   0.0240000
        k(   21) = (   0.4330127   0.3464102   0.2598076), wk =   0.0480000
        k(   22) = (   0.0000000  -0.0866025   0.2598076), wk =   0.0240000
        k(   23) = (   0.5196152   0.3464102   0.3464102), wk =   0.0080000
        k(   24) = (   0.0000000  -0.1732051   0.3464102), wk =   0.0240000
        k(   25) = (   0.0866025  -0.0866025   0.3464102), wk =   0.0240000
        k(   26) = (   0.0000000  -0.2598076   0.4330127), wk =   0.0240000
        k(   27) = (   0.0866025  -0.1732051   0.4330127), wk =   0.0480000
        k(   28) = (  -0.8660254  -0.3464102  -0.3464102), wk =   0.0120000
        k(   29) = (  -0.7794229  -0.2598076  -0.3464102), wk =   0.0480000
        k(   30) = (  -0.6928203  -0.1732051  -0.3464102), wk =   0.0240000
        k(   31) = (  -0.6928203  -0.2598076  -0.2598076), wk =   0.0240000
        k(   32) = (   0.3464102   0.3464102   0.3464102), wk =   0.0080000
        k(   33) = (   0.4330127   0.4330127   0.3464102), wk =   0.0120000
        k(   34) = (   0.0000000   0.0000000   0.3464102), wk =   0.0060000
        k(   35) = (   0.0000000  -0.0866025   0.4330127), wk =   0.0240000
        k(   36) = (   0.0000000  -0.1732051   0.5196152), wk =   0.0240000
        k(   37) = (   0.0866025  -0.0866025   0.5196152), wk =   0.0240000
        k(   38) = (  -0.8660254  -0.2598076  -0.2598076), wk =   0.0120000
        k(   39) = (  -0.7794229  -0.1732051  -0.2598076), wk =   0.0480000
        k(   40) = (  -0.6928203  -0.1732051  -0.1732051), wk =   0.0080000
        k(   41) = (   0.0000000   0.0000000   0.5196152), wk =   0.0060000
        k(   42) = (   0.0000000  -0.0866025   0.6062178), wk =   0.0240000
        k(   43) = (  -0.8660254  -0.1732051  -0.1732051), wk =   0.0120000
        k(   44) = (  -0.7794229  -0.0866025  -0.1732051), wk =   0.0240000
        k(   45) = (   0.0000000   0.0000000   0.6928203), wk =   0.0060000
        k(   46) = (  -0.8660254  -0.0866025  -0.0866025), wk =   0.0120000
        k(   47) = (  -0.8660254  -0.8660254  -0.8660254), wk =   0.0010000

     Dense  grid:     4729 G-vectors     FFT dimensions: (  24,  24,  24)

     Smooth grid:     1601 G-vectors     FFT dimensions: (  15,  15,  15)

     Estimated max dynamical RAM per process >       6.72 MB

     Estimated total dynamical RAM >      26.88 MB
     Generating pointlists ...
     new r_m :   0.4125 (alat units)  1.8902 (a.u.) for type    1

     Initial potential from superposition of free atoms

     starting charge       7.9994, renormalised to       8.0000
     Starting wfcs are    6 randomized atomic wfcs +    2 random wfcs

     total cpu time spent up to now is        0.4 secs

     Self-consistent Calculation

     iteration #  1     ecut=    30.00 Ry     beta= 0.50
     Davidson diagonalization with overlap
     ethr =  1.00E-02,  avg # of iterations =  4.5

     total cpu time spent up to now is        0.6 secs

     total energy              =     -55.67147749 Ry
     estimated scf accuracy    <       0.32660824 Ry

     total magnetization       =     2.97 Bohr mag/cell
     absolute magnetization    =     2.97 Bohr mag/cell

     iteration #  2     ecut=    30.00 Ry     beta= 0.50
     Davidson diagonalization with overlap
     ethr =  4.08E-03,  avg # of iterations =  1.7

     total cpu time spent up to now is        0.8 secs

     total energy              =     -55.76976284 Ry
     estimated scf accuracy    <       0.04580504 Ry

     total magnetization       =     2.80 Bohr mag/cell
     absolute magnetization    =     2.81 Bohr mag/cell

     iteration #  3     ecut=    30.00 Ry     beta= 0.50
     Davidson diagonalization with overlap
     ethr =  5.73E-04,  avg # of iterations =  1.3

     total cpu time spent up to now is        1.0 secs

     total energy              =     -55.79263539 Ry
     estimated scf accuracy    <       0.00740129 Ry

     total magnetization       =     2.72 Bohr mag/cell
     absolute magnetization    =     2.75 Bohr mag/cell

     iteration #  4     ecut=    30.00 Ry     beta= 0.50
     Davidson diagonalization with overlap
     ethr =  9.25E-05,  avg # of iterations =  2.2

     total cpu time spent up to now is        1.2 secs

     total energy              =     -55.79922823 Ry
     estimated scf accuracy    <       0.00128387 Ry

     total magnetization       =     2.34 Bohr mag/cell
     absolute magnetization    =     2.48 Bohr mag/cell

     iteration #  5     ecut=    30.00 Ry     beta= 0.50
     Davidson diagonalization with overlap
     ethr =  1.60E-05,  avg # of iterations =  4.1

     total cpu time spent up to now is        1.4 secs

     total energy              =     -55.79967885 Ry
     estimated scf accuracy    <       0.00095514 Ry

     total magnetization       =     2.28 Bohr mag/cell
     absolute magnetization    =     2.44 Bohr mag/cell

     iteration #  6     ecut=    30.00 Ry     beta= 0.50
     Davidson diagonalization with overlap
     ethr =  1.19E-05,  avg # of iterations =  1.8

     total cpu time spent up to now is        1.5 secs

     total energy              =     -55.80062317 Ry
     estimated scf accuracy    <       0.00058005 Ry

     total magnetization       =     2.20 Bohr mag/cell
     absolute magnetization    =     2.34 Bohr mag/cell

     iteration #  7     ecut=    30.00 Ry     beta= 0.50
     Davidson diagonalization with overlap
     ethr =  7.25E-06,  avg # of iterations =  1.0

     total cpu time spent up to now is        1.7 secs

     total energy              =     -55.80078745 Ry
     estimated scf accuracy    <       0.00015689 Ry

     total magnetization       =     2.15 Bohr mag/cell
     absolute magnetization    =     2.29 Bohr mag/cell

     iteration #  8     ecut=    30.00 Ry     beta= 0.50
     Davidson diagonalization with overlap
     ethr =  1.96E-06,  avg # of iterations =  2.9

     total cpu time spent up to now is        1.9 secs

     total energy              =     -55.80087929 Ry
     estimated scf accuracy    <       0.00004537 Ry

     total magnetization       =     2.17 Bohr mag/cell
     absolute magnetization    =     2.32 Bohr mag/cell

     iteration #  9     ecut=    30.00 Ry     beta= 0.50
     Davidson diagonalization with overlap
     ethr =  5.67E-07,  avg # of iterations =  1.5

     total cpu time spent up to now is        2.1 secs

     total energy              =     -55.80089447 Ry
     estimated scf accuracy    <       0.00000479 Ry

     total magnetization       =     2.15 Bohr mag/cell
     absolute magnetization    =     2.31 Bohr mag/cell

     iteration # 10     ecut=    30.00 Ry     beta= 0.50
     Davidson diagonalization with overlap
     ethr =  5.99E-08,  avg # of iterations =  4.0

     total cpu time spent up to now is        2.5 secs

     total energy              =     -55.80089968 Ry
     estimated scf accuracy    <       0.00000429 Ry

     total magnetization       =     2.15 Bohr mag/cell
     absolute magnetization    =     2.30 Bohr mag/cell

     iteration # 11     ecut=    30.00 Ry     beta= 0.50
     Davidson diagonalization with overlap
     ethr =  5.36E-08,  avg # of iterations =  1.1

     total cpu time spent up to now is        2.8 secs

     total energy              =     -55.80090120 Ry
     estimated scf accuracy    <       0.00000068 Ry

     total magnetization       =     2.15 Bohr mag/cell
     absolute magnetization    =     2.30 Bohr mag/cell

     iteration # 12     ecut=    30.00 Ry     beta= 0.50
     Davidson diagonalization with overlap
     ethr =  8.47E-09,  avg # of iterations =  2.7

     Magnetic moment per site  (integrated on atomic sphere of radius R)
     atom   1 (R=0.413)  charge=  6.4313  magn=  2.2166

     total cpu time spent up to now is        3.2 secs

     End of self-consistent calculation

 ------ SPIN UP ------------


          k = 0.0000 0.0000 0.0000 (   201 PWs)   bands (ev):

     5.6197  11.7337  11.7337  11.7337  12.9911  12.9911  39.2684  39.2684

          k = 0.0866 0.0866 0.0000 (   207 PWs)   bands (ev):

     6.0445  11.6177  11.7189  11.9639  12.8862  13.0010  37.0646  38.6826

          k = 0.1732 0.1732 0.0000 (   201 PWs)   bands (ev):

     7.2085  11.3226  11.6182  12.5997  12.7898  13.0362  32.7750  36.7936

          k = 0.2598 0.2598 0.0000 (   198 PWs)   bands (ev):

     8.5533  10.9732  11.8352  12.9148  13.0976  13.4609  28.1279  34.7328

          k = 0.3464 0.3464 0.0000 (   200 PWs)   bands (ev):

     9.0308  10.7019  12.9289  13.1633  13.5632  14.2371  23.9765  33.3018

          k =-0.4330-0.4330 0.0000 (   194 PWs)   bands (ev):

     9.0354  10.6011  13.0720  13.1926  14.5578  14.8565  21.8736  32.7962

          k = 0.1732 0.0866 0.0866 (   206 PWs)   bands (ev):

     6.8472  11.4773  11.5431  12.4490  12.7451  13.0598  34.6963  35.9609

          k = 0.2598 0.1732 0.0866 (   202 PWs)   bands (ev):

     8.1936  11.1537  11.3894  12.7354  13.1451  13.3311  30.5894  33.6284

          k = 0.3464 0.2598 0.0866 (   203 PWs)   bands (ev):

     9.1577  10.8408  11.8762  12.9388  13.2915  14.4747  26.1069  32.0617

          k = 0.4330 0.3464 0.0866 (   200 PWs)   bands (ev):

     9.2519  10.6656  12.6131  13.0497  13.7417  15.9275  22.5662  31.1923

          k = 0.3464 0.1732 0.1732 (   202 PWs)   bands (ev):

     9.3695  10.8782  11.2450  12.7837  13.2967  14.6420  28.4745  29.4200

          k = 0.4330 0.2598 0.1732 (   204 PWs)   bands (ev):

     9.8075  10.7177  11.5700  12.9757  13.4578  16.5746  24.5776  27.8088

          k = 0.5196 0.3464 0.1732 (   203 PWs)   bands (ev):

     9.7731  10.7032  11.7877  13.0649  13.5989  18.2630  22.0631  27.3500

          k = 0.5196 0.2598 0.2598 (   209 PWs)   bands (ev):

    10.2355  10.7183  11.2122  13.1731  13.4331  19.3910  22.9395  24.5938

          k = 0.1732 0.1732 0.1732 (   204 PWs)   bands (ev):

     7.9340  11.1761  11.1761  12.9508  12.9508  13.3411  32.7220  32.7221

          k = 0.2598 0.2598 0.1732 (   199 PWs)   bands (ev):

     9.2578  10.8435  11.0721  12.9810  13.0972  14.5826  28.5540  31.0870

          k = 0.3464 0.3464 0.1732 (   202 PWs)   bands (ev):

     9.6368  10.6228  11.9348  13.0873  13.1788  16.2424  24.3687  30.0057

          k = 0.4330 0.4330 0.1732 (   206 PWs)   bands (ev):

     9.5854  10.5461  12.5269  13.1363  13.2051  17.6310  22.0146  29.6260

          k = 0.0000 0.0000 0.1732 (   209 PWs)   bands (ev):

     6.4563  11.7428  11.7428  11.9643  12.6093  13.1412  36.1808  38.2706

          k = 0.3464 0.2598 0.2598 (   202 PWs)   bands (ev):

    10.1440  10.6764  11.0112  13.0723  13.1979  16.3849  26.7148  27.5639

          k = 0.4330 0.3464 0.2598 (   206 PWs)   bands (ev):

    10.1426  10.6081  11.5529  13.1634  13.2530  18.7288  23.1922  26.4295

          k = 0.0000-0.0866 0.2598 (   204 PWs)   bands (ev):

     7.5757  11.5353  11.6522  12.3897  12.5419  13.2889  32.9784  35.9999

          k = 0.5196 0.3464 0.3464 (   204 PWs)   bands (ev):

    10.2937  11.0208  11.0208  13.2392  13.2392  21.6343  21.6343  24.1069

          k = 0.0000-0.1732 0.3464 (   203 PWs)   bands (ev):

     8.8530  11.2154  11.4872  12.6767  13.4108  13.5874  28.4169  34.1581

          k = 0.0866-0.0866 0.3464 (   204 PWs)   bands (ev):

     8.7528  11.2420  11.5902  12.3398  13.1541  13.6868  30.7804  31.8740

          k = 0.0000-0.2598 0.4330 (   202 PWs)   bands (ev):

     9.2847  10.9633  11.8669  12.8968  14.2019  14.8550  24.1896  32.9535

          k = 0.0866-0.1732 0.4330 (   205 PWs)   bands (ev):

     9.6031  10.9175  11.4978  12.6704  13.6502  15.0541  26.6327  29.8682

          k =-0.8660-0.3464-0.3464 (   202 PWs)   bands (ev):

     9.2686  10.8688  12.1226  12.8806  14.5299  16.2293  21.9316  32.5297

          k =-0.7794-0.2598-0.3464 (   209 PWs)   bands (ev):

     9.6527  11.0351  11.4138  12.8304  14.1303  17.2110  22.8494  28.9612

          k =-0.6928-0.1732-0.3464 (   214 PWs)   bands (ev):

    10.2016  10.4888  11.3563  12.9638  13.7554  17.5348  24.9281  25.9389

          k =-0.6928-0.2598-0.2598 (   208 PWs)   bands (ev):

    10.2056  10.8154  10.9391  13.1929  13.7886  19.9020  22.2336  25.1640

          k = 0.3464 0.3464 0.3464 (   198 PWs)   bands (ev):

    10.6104  10.6104  11.0030  13.1988  13.1988  18.7499  25.6131  25.6131

          k = 0.4330 0.4330 0.3464 (   210 PWs)   bands (ev):

    10.6024  10.6063  11.1768  13.2209  13.2260  21.1774  22.7562  25.2383

          k = 0.0000 0.0000 0.3464 (   205 PWs)   bands (ev):

     8.5235  11.6065  11.9426  11.9426  12.5810  13.6713  33.0664  34.1827

          k = 0.0000-0.0866 0.4330 (   207 PWs)   bands (ev):

     9.4930  10.9545  11.8734  12.3670  13.3014  14.4921  29.2540  32.0432

          k = 0.0000-0.1732 0.5196 (   215 PWs)   bands (ev):

     9.7654  10.7499  11.6970  12.6293  14.1108  16.4731  24.8659  30.4864

          k = 0.0866-0.0866 0.5196 (   209 PWs)   bands (ev):

     9.9528  10.3965  11.9765  12.7152  13.7528  16.3031  27.4078  27.9977

          k =-0.8660-0.2598-0.2598 (   208 PWs)   bands (ev):

     9.6840  10.8278  11.6256  12.6580  14.4580  18.4179  22.1736  29.8960

          k =-0.7794-0.1732-0.2598 (   209 PWs)   bands (ev):

     9.9084  10.2986  11.8019  13.0549  14.1500  19.0481  23.5649  26.7811

          k =-0.6928-0.1732-0.1732 (   209 PWs)   bands (ev):

    10.0502  10.0502  11.6873  13.7616  13.7616  22.1026  22.1026  24.1787

          k = 0.0000 0.0000 0.5196 (   205 PWs)   bands (ev):

     9.8183  10.3832  12.6013  12.6013  13.3659  15.9057  29.6469  29.6469

          k = 0.0000-0.0866 0.6062 (   210 PWs)   bands (ev):

     9.7680   9.9266  12.7324  12.9911  14.0077  18.2834  25.9139  27.9207

          k =-0.8660-0.1732-0.1732 (   210 PWs)   bands (ev):

     9.6204   9.8552  12.7106  13.1157  14.3698  20.8187  22.7691  27.2639

          k =-0.7794-0.0866-0.1732 (   218 PWs)   bands (ev):

     9.5787   9.6067  12.8383  13.6838  14.1627  21.1018  24.5031  25.1180

          k = 0.0000 0.0000 0.6928 (   212 PWs)   bands (ev):

     9.4189   9.4215  13.6479  13.6479  14.0187  20.5892  26.0319  26.0319

          k =-0.8660-0.0866-0.0866 (   216 PWs)   bands (ev):

     9.2403   9.2616  13.7852  13.9173  14.2989  23.1859  23.7982  25.2969

          k =-0.8660-0.8660-0.8660 (   236 PWs)   bands (ev):

     9.0617   9.0617  14.2717  14.2717  14.2717  24.5195  24.5195  24.5195

 ------ SPIN DOWN ----------


          k = 0.0000 0.0000 0.0000 (   201 PWs)   bands (ev):

     5.6804  13.8100  13.8100  13.8100  15.9820  15.9820  38.9674  38.9674

          k = 0.0866 0.0866 0.0000 (   207 PWs)   bands (ev):

     6.1082  13.6678  13.7765  14.0621  15.8347  15.9932  37.1030  38.5053

          k = 0.1732 0.1732 0.0000 (   201 PWs)   bands (ev):

     7.3090  13.3093  13.6007  14.7637  15.6298  16.0379  33.2307  36.7940

          k = 0.2598 0.2598 0.0000 (   198 PWs)   bands (ev):

     8.9386  12.8898  13.4274  15.6550  15.7276  16.1232  28.8925  34.7467

          k = 0.3464 0.3464 0.0000 (   200 PWs)   bands (ev):

    10.1152  12.5675  14.0312  15.7890  16.2197  16.6141  25.0811  33.2740

          k =-0.4330-0.4330 0.0000 (   194 PWs)   bands (ev):

    10.3813  12.4484  14.8548  15.8324  16.2639  16.9869  23.2954  32.7459

          k = 0.1732 0.0866 0.0866 (   206 PWs)   bands (ev):

     6.9266  13.4840  13.5672  14.5818  15.6192  16.0569  34.9665  36.1876

          k = 0.2598 0.1732 0.0866 (   202 PWs)   bands (ev):

     8.3847  13.0955  13.2882  15.4693  15.5223  16.1705  31.1866  33.9572

          k = 0.3464 0.2598 0.0866 (   203 PWs)   bands (ev):

     9.9106  12.7143  13.2942  15.6355  16.2230  16.6296  26.9944  32.3851

          k = 0.4330 0.3464 0.0866 (   200 PWs)   bands (ev):

    10.5666  12.5008  13.9885  15.7801  16.3705  17.5892  23.8294  31.4910

          k = 0.3464 0.1732 0.1732 (   202 PWs)   bands (ev):

     9.8695  12.7646  12.9734  15.4938  16.2031  16.7780  29.1978  29.9879

          k = 0.4330 0.2598 0.1732 (   204 PWs)   bands (ev):

    11.0027  12.5083  13.0324  15.6741  16.2811  18.2986  25.5311  28.4259

          k = 0.5196 0.3464 0.1732 (   203 PWs)   bands (ev):

    11.2317  12.4805  13.2670  15.7916  16.3120  19.5366  23.3244  27.9568

          k = 0.5196 0.2598 0.2598 (   209 PWs)   bands (ev):

    11.7773  12.3844  12.7693  15.8781  16.1745  20.6805  23.9621  25.3940

          k = 0.1732 0.1732 0.1732 (   204 PWs)   bands (ev):

     8.0606  13.1217  13.1217  15.4980  15.8796  15.8796  33.1220  33.1222

          k = 0.2598 0.2598 0.1732 (   199 PWs)   bands (ev):

     9.6357  12.6982  12.8203  15.8470  16.0952  16.6721  29.2327  31.5170

          k = 0.3464 0.3464 0.1732 (   202 PWs)   bands (ev):

    10.7742  12.4122  13.1230  15.9287  16.2326  17.9964  25.3456  30.4200

          k = 0.4330 0.4330 0.1732 (   206 PWs)   bands (ev):

    10.9758  12.3122  13.6527  15.9767  16.2807  18.9256  23.3154  30.0279

          k = 0.0000 0.0000 0.1732 (   209 PWs)   bands (ev):

     6.5257  13.7872  13.7872  14.0662  15.4733  16.1662  36.2392  38.3714

          k = 0.3464 0.2598 0.2598 (   202 PWs)   bands (ev):

    11.0265  12.4075  12.5306  15.9722  16.2124  18.1922  27.4709  28.1979

          k = 0.4330 0.3464 0.2598 (   206 PWs)   bands (ev):

    11.5720  12.2755  12.8497  16.0719  16.2729  20.0538  24.2053  27.0908

          k = 0.0000-0.0866 0.2598 (   204 PWs)   bands (ev):

     7.6935  13.5326  13.6810  14.6982  15.0815  16.3079  33.4292  36.2004

          k = 0.5196 0.3464 0.3464 (   204 PWs)   bands (ev):

    11.8797  12.4890  12.4890  16.2026  16.2026  22.6637  22.6637  24.9517

          k = 0.0000-0.1732 0.3464 (   203 PWs)   bands (ev):

     9.2731  13.1492  13.3591  15.1782  15.6692  16.4585  29.1710  34.3431

          k = 0.0866-0.0866 0.3464 (   204 PWs)   bands (ev):

     9.0413  13.3236  13.5057  14.8242  15.4023  16.5333  31.4192  32.3799

          k = 0.0000-0.2598 0.4330 (   202 PWs)   bands (ev):

    10.4257  12.8494  13.4841  15.4661  16.5732  16.9161  25.2546  33.1156

          k = 0.0866-0.1732 0.4330 (   205 PWs)   bands (ev):

    10.4556  12.8517  13.3260  15.0992  16.1652  17.1979  27.4803  30.4445

          k =-0.8660-0.3464-0.3464 (   202 PWs)   bands (ev):

    10.6847  12.7378  13.8254  15.5147  16.9553  17.5656  23.3075  32.6775

          k =-0.7794-0.2598-0.3464 (   209 PWs)   bands (ev):

    11.1068  12.8740  13.1552  15.3398  16.5708  18.6718  24.0152  29.5275

          k =-0.6928-0.1732-0.3464 (   214 PWs)   bands (ev):

    11.5187  12.3819  13.1852  15.3836  16.2600  19.1004  25.8897  26.6400

          k =-0.6928-0.2598-0.2598 (   208 PWs)   bands (ev):

    11.8770  12.5488  12.7510  15.6439  16.2451  21.0819  23.3782  25.9220

          k = 0.3464 0.3464 0.3464 (   198 PWs)   bands (ev):

    12.0717  12.2337  12.2337  16.2326  16.2326  20.1447  26.3750  26.3751

          k = 0.4330 0.4330 0.3464 (   210 PWs)   bands (ev):

    12.0746  12.1853  12.5529  16.2572  16.3092  22.2001  23.7472  25.9995

          k = 0.0000 0.0000 0.3464 (   205 PWs)   bands (ev):

     8.7465  13.9415  13.9415  14.1614  14.7548  16.5842  33.5362  34.7245

          k = 0.0000-0.0866 0.4330 (   207 PWs)   bands (ev):

    10.1096  13.1823  13.8539  14.5181  15.5469  16.9684  29.9717  32.6105

          k = 0.0000-0.1732 0.5196 (   215 PWs)   bands (ev):

    11.1103  12.6516  13.6478  14.9257  16.4680  18.1361  25.8088  31.0091

          k = 0.0866-0.0866 0.5196 (   209 PWs)   bands (ev):

    11.1246  12.5122  13.9661  14.8722  16.0970  18.0627  28.2285  28.6026

          k =-0.8660-0.2598-0.2598 (   208 PWs)   bands (ev):

    11.3418  12.6188  13.5640  14.9776  16.8740  19.5665  23.3908  30.3829

          k =-0.7794-0.1732-0.2598 (   209 PWs)   bands (ev):

    11.6551  12.1557  13.7348  15.2870  16.5248  20.2602  24.5261  27.4251

          k =-0.6928-0.1732-0.1732 (   209 PWs)   bands (ev):

    11.9358  11.9358  13.5225  16.0776  16.0776  23.0928  23.0928  24.9216

          k = 0.0000 0.0000 0.5196 (   205 PWs)   bands (ev):

    10.9482  12.6125  14.6302  14.6302  15.6370  17.7551  30.1931  30.1932

          k = 0.0000-0.0866 0.6062 (   210 PWs)   bands (ev):

    11.4063  11.9723  14.7976  15.0948  16.3517  19.5002  26.6153  28.3925

          k =-0.8660-0.1732-0.1732 (   210 PWs)   bands (ev):

    11.5409  11.7231  14.7794  15.2307  16.7743  21.6961  23.6703  27.6836

          k =-0.7794-0.0866-0.1732 (   218 PWs)   bands (ev):

    11.4626  11.5575  14.8838  15.9172  16.5205  21.9548  25.1858  25.6447

          k = 0.0000 0.0000 0.6928 (   212 PWs)   bands (ev):

    11.2504  11.4330  15.8524  15.8524  16.3760  21.3565  26.3874  26.3874

          k =-0.8660-0.0866-0.0866 (   216 PWs)   bands (ev):

    11.1813  11.1921  16.0485  16.1871  16.6942  23.6787  24.2482  25.5687

          k =-0.8660-0.8660-0.8660 (   236 PWs)   bands (ev):

    10.9996  10.9996  16.6634  16.6634  16.6634  24.6798  24.6798  24.6798

     the Fermi energy is    14.1675 ev

!    total energy              =     -55.80090164 Ry
     estimated scf accuracy    <       0.00000003 Ry
     smearing contrib. (-TS)   =       0.00009472 Ry
     internal energy E=F+TS    =     -55.80099636 Ry

     The total energy is F=E-TS. E is the sum of the following terms:
     one-electron contribution =       8.37847085 Ry
     hartree contribution      =       6.29970846 Ry
     xc contribution           =     -26.46090351 Ry
     ewald contribution        =     -44.01827216 Ry

     total magnetization       =     2.15 Bohr mag/cell
     absolute magnetization    =     2.30 Bohr mag/cell

     convergence has been achieved in  12 iterations

     Forces acting on atoms (cartesian axes, Ry/au):

     atom    1 type  1   force =     0.00000000    0.00000000    0.00000000
     The non-local contrib.  to forces
     atom    1 type  1   force =    -0.00000000   -0.00000000    0.00000000
     The ionic contribution  to forces
     atom    1 type  1   force =    -0.00000000   -0.00000000   -0.00000000
     The local contribution  to forces
     atom    1 type  1   force =    -0.00000000    0.00000000   -0.00000000
     The core correction contribution to forces
     atom    1 type  1   force =    -0.00000000    0.00000000   -0.00000000
     The Hubbard contrib.    to forces
     atom    1 type  1   force =     0.00000000    0.00000000    0.00000000
     The SCF correction term to forces
     atom    1 type  1   force =     0.00000000    0.00000000   -0.00000000

     Total force =     0.000000     Total SCF correction =     0.000000


     Computing stress (Cartesian axis) and pressure

          total   stress  (Ry/bohr**3)                   (kbar)     P=       73.83
   0.00050187   0.00000000   0.00000000           73.83        0.00        0.00
   0.00000000   0.00050187   0.00000000            0.00       73.83        0.00
   0.00000000   0.00000000   0.00050187            0.00        0.00       73.83


     init_run     :      0.24s CPU      0.25s WALL (       1 calls)
     electrons    :      2.28s CPU      2.82s WALL (       1 calls)
     forces       :      0.03s CPU      0.05s WALL (       1 calls)
     stress       :      0.15s CPU      0.21s WALL (       1 calls)

     Called by init_run:
     wfcinit      :      0.04s CPU      0.04s WALL (       1 calls)
     potinit      :      0.01s CPU      0.02s WALL (       1 calls)
     hinit0       :      0.18s CPU      0.18s WALL (       1 calls)

     Called by electrons:
     c_bands      :      1.86s CPU      2.29s WALL (      12 calls)
     sum_band     :      0.29s CPU      0.34s WALL (      12 calls)
     v_of_rho     :      0.05s CPU      0.06s WALL (      13 calls)
     newd         :      0.05s CPU      0.06s WALL (      13 calls)
     mix_rho      :      0.02s CPU      0.03s WALL (      12 calls)

     Called by c_bands:
     init_us_2    :      0.06s CPU      0.07s WALL (    2538 calls)
     init_us_2:cp :      0.06s CPU      0.07s WALL (    2538 calls)
     cegterg      :      1.63s CPU      1.83s WALL (    1128 calls)

     Called by *egterg:
     cdiaghg      :      0.35s CPU      0.38s WALL (    3849 calls)
     h_psi        :      0.98s CPU      1.11s WALL (    3943 calls)
     s_psi        :      0.02s CPU      0.03s WALL (    3943 calls)
     g_psi        :      0.01s CPU      0.01s WALL (    2721 calls)

     Called by h_psi:
     h_psi:calbec :      0.10s CPU      0.11s WALL (    3943 calls)
     vloc_psi     :      0.84s CPU      0.95s WALL (    3943 calls)
     add_vuspsi   :      0.03s CPU      0.03s WALL (    3943 calls)

     General routines
     calbec       :      0.14s CPU      0.17s WALL (    5541 calls)
     fft          :      0.14s CPU      0.15s WALL (     363 calls)
     ffts         :      0.01s CPU      0.01s WALL (      50 calls)
     fftw         :      0.84s CPU      0.94s WALL (   52644 calls)
     interpolate  :      0.01s CPU      0.01s WALL (      26 calls)

     Parallel routines

     PWSCF        :      2.84s CPU      3.52s WALL


   This run was terminated on:  16:59:12   1Nov2023            

=------------------------------------------------------------------------------=
   JOB DONE.
=------------------------------------------------------------------------------=
