LAMMPS (29 Oct 2020)
Reading data file ...
  orthogonal box = (0.0000000 0.0000000 0.0000000) to (16.360000 16.360000 24.540000)
  1 by 1 by 1 MPI processor grid
  reading atoms ...
  384 atoms
  read_data CPU = 0.001 seconds
Reading eam potential file /home/gridsan/epan1/3320_atomistic_shared/lammps/potentials/Ag_u3.eam with DATE: 2007-06-11
WARNING: No fixes defined, atoms won't move (../verlet.cpp:54)
Neighbor list info ...
  update every 1 steps, delay 10 steps, check yes
  max neighbors/atom: 2000, page size: 100000
  master list distance cutoff = 7.55
  ghost atom cutoff = 7.55
  binsize = 3.775, bins = 5 5 7
  1 neighbor lists, perpetual/occasional/extra = 1 0 0
  (1) pair eam, perpetual
      attributes: half, newton on
      pair build: half/bin/atomonly/newton
      stencil: half/bin/3d/newton
      bin: standard
Setting up Verlet run ...
  Unit style    : metal
  Current step  : 0
  Time step     : 0.001
Per MPI rank memory allocation (min/avg/max) = 3.367 | 3.367 | 3.367 Mbytes
Step PotEng Lx Ly Lz Press Pxx Pyy Pzz 
       0      -1094.4        16.36        16.36        24.54 -0.049885263 -0.049742051 -0.049742051 -0.050171686 
Loop time of 9.53674e-07 on 1 procs for 0 steps with 384 atoms

104.9% CPU use with 1 MPI tasks x no OpenMP threads

MPI task timing breakdown:
Section |  min time  |  avg time  |  max time  |%varavg| %total
---------------------------------------------------------------
Pair    | 0          | 0          | 0          |   0.0 |  0.00
Neigh   | 0          | 0          | 0          |   0.0 |  0.00
Comm    | 0          | 0          | 0          |   0.0 |  0.00
Output  | 0          | 0          | 0          |   0.0 |  0.00
Modify  | 0          | 0          | 0          |   0.0 |  0.00
Other   |            | 9.537e-07  |            |       |100.00

Nlocal:        384.000 ave         384 max         384 min
Histogram: 1 0 0 0 0 0 0 0 0 0
Nghost:        1753.00 ave        1753 max        1753 min
Histogram: 1 0 0 0 0 0 0 0 0 0
Neighs:        16512.0 ave       16512 max       16512 min
Histogram: 1 0 0 0 0 0 0 0 0 0

Total # of neighbors = 16512
Ave neighs/atom = 43.000000
Neighbor list builds = 0
Dangerous builds = 0
WARNING: Using 'neigh_modify every 1 delay 0 check yes' setting during minimization (../min.cpp:187)
Setting up cg style minimization ...
  Unit style    : metal
  Current step  : 0
WARNING: Energy due to 1 extra global DOFs will be included in minimizer energies
Per MPI rank memory allocation (min/avg/max) = 4.492 | 4.492 | 4.492 Mbytes
Step PotEng Lx Ly Lz Press Pxx Pyy Pzz 
       0      -1094.4        16.36        16.36        24.54 -0.049885263 -0.049742051 -0.049742051 -0.050171686 
       3      -1094.4        16.36        16.36        24.54 -0.015909246 -0.015909246 -0.015909246 -0.015909246 
Loop time of 0.00292015 on 1 procs for 3 steps with 384 atoms

0.0% CPU use with 1 MPI tasks x no OpenMP threads

Minimization stats:
  Stopping criterion = energy tolerance
  Energy initial, next-to-last, final = 
     -1094.39999316155  -1094.40000059962  -1094.40000060155
  Force two-norm initial, final = 0.011640145 0.00019572728
  Force max component initial, final = 0.00072649786 0.00019565981
  Final line search alpha, max atom move = 0.096122765 1.8807362e-05
  Iterations, force evaluations = 3 6

MPI task timing breakdown:
Section |  min time  |  avg time  |  max time  |%varavg| %total
---------------------------------------------------------------
Pair    | 0.0026782  | 0.0026782  | 0.0026782  |   0.0 | 91.71
Neigh   | 0          | 0          | 0          |   0.0 |  0.00
Comm    | 5.1022e-05 | 5.1022e-05 | 5.1022e-05 |   0.0 |  1.75
Output  | 0          | 0          | 0          |   0.0 |  0.00
Modify  | 0          | 0          | 0          |   0.0 |  0.00
Other   |            | 0.000191   |            |       |  6.54

Nlocal:        384.000 ave         384 max         384 min
Histogram: 1 0 0 0 0 0 0 0 0 0
Nghost:        1753.00 ave        1753 max        1753 min
Histogram: 1 0 0 0 0 0 0 0 0 0
Neighs:        16512.0 ave       16512 max       16512 min
Histogram: 1 0 0 0 0 0 0 0 0 0

Total # of neighbors = 16512
Ave neighs/atom = 43.000000
Neighbor list builds = 0
Dangerous builds = 0
Total energy (eV) = -1094.40000060155
Number of atoms = 384
Lattice constant (Angstoms) = 16.359999777972
Total wall time: 0:00:00
