
     Program PWSCF v.7.2 starts on 16Oct2023 at 10:35:13 

     This program is part of the open-source Quantum ESPRESSO suite
     for quantum simulation of materials; please cite
         "P. Giannozzi et al., J. Phys.:Condens. Matter 21 395502 (2009);
         "P. Giannozzi et al., J. Phys.:Condens. Matter 29 465901 (2017);
         "P. Giannozzi et al., J. Chem. Phys. 152 154105 (2020);
          URL http://www.quantum-espresso.org", 
     in publications or presentations arising from this work. More details at
     http://www.quantum-espresso.org/quote

     Parallel version (MPI), running on     1 processors

     MPI processes distributed on     1 nodes
     34477 MiB available memory on the printing compute node when the environment starts

     Waiting for input...
     Reading input from standard input
Warning: card &CELL ignored
Warning: card / ignored

     Current dimensions of program PWSCF are:
     Max number of different atomic species (ntypx) = 10
     Max number of k-points (npk) =  40000
     Max angular momentum in pseudopotentials (lmaxx) =  4
     file Ge.pz-dn-rrkjus_psl.0.2.2.UPF: wavefunction(s)  3D renormalized
     Message from routine find_sym:
     Not a group! Trying with lower acceptance parameter...
     Message from routine find_sym:
     Still not a group! symmetry disabled

     Subspace diagonalization in iterative solution of the eigenvalue problem:
     a serial algorithm will be used


     G-vector sticks info
     --------------------
     sticks:   dense  smooth     PW     G-vecs:    dense   smooth      PW
     Sum         559     559    163                 8657     8657    1459

     Using Slab Decomposition



     bravais-lattice index     =            0
     lattice parameter (alat)  =       7.6014  a.u.
     unit-cell volume          =     310.5738 (a.u.)^3
     number of atoms/cell      =            2
     number of atomic types    =            1
     number of electrons       =        28.00
     number of Kohn-Sham states=           14
     kinetic-energy cutoff     =      35.0000  Ry
     charge density cutoff     =     140.0000  Ry
     scf convergence threshold =      1.0E-07
     mixing beta               =       0.5000
     number of iterations used =            8  plain     mixing
     Exchange-correlation= LDA
                           (   1   1   0   0   0   0   0)

     celldm(1)=   7.601395  celldm(2)=   0.000000  celldm(3)=   0.000000
     celldm(4)=   0.000000  celldm(5)=   0.000000  celldm(6)=   0.000000

     crystal axes: (cart. coord. in units of alat)
               a(1) = (   0.000000   0.707107   0.707107 )  
               a(2) = (   0.707107   0.000000   0.707107 )  
               a(3) = (   0.707107   0.707107   0.000000 )  

     reciprocal axes: (cart. coord. in units 2 pi/alat)
               b(1) = ( -0.707107  0.707107  0.707107 )  
               b(2) = (  0.707107 -0.707107  0.707107 )  
               b(3) = (  0.707107  0.707107 -0.707107 )  


     PseudoPot. # 1 for Ge read from file:
     ../Ge.pz-dn-rrkjus_psl.0.2.2.UPF
     MD5 check sum: 9948ad5293734715c8cf6021b6c26e6d
     Pseudo is Ultrasoft + core correction, Zval = 14.0
     Generated using "atomic" code by A. Dal Corso  v.5.0.2 svn rev. 9415
     Using radial grid of 1207 points,  6 beta functions with: 
                l(1) =   0
                l(2) =   0
                l(3) =   1
                l(4) =   1
                l(5) =   2
                l(6) =   2
     Q(r) pseudized with 0 coefficients 


     atomic species   valence    mass     pseudopotential
        Ge            14.00    72.63000     Ge( 1.00)

     No symmetry found



   Cartesian axes

     site n.     atom                  positions (alat units)
         1           Ge  tau(   1) = (   0.0000000   0.0000000   0.0000000  )
         2           Ge  tau(   2) = (   0.3535526   0.3535526   0.3535526  )

     number of k points=    63
                       cart. coord. in units 2pi/alat
        k(    1) = (   0.0000000   0.0000000   0.0000000), wk =   0.0160000
        k(    2) = (   0.1414214   0.1414214  -0.1414214), wk =   0.0320000
        k(    3) = (   0.2828427   0.2828427  -0.2828427), wk =   0.0320000
        k(    4) = (   0.2828427   0.0000000   0.0000000), wk =   0.0320000
        k(    5) = (   0.4242641   0.1414214  -0.1414214), wk =   0.0320000
        k(    6) = (  -0.1414214  -0.4242641   0.4242641), wk =   0.0320000
        k(    7) = (   0.0000000  -0.2828427   0.2828427), wk =   0.0320000
        k(    8) = (   0.5656854   0.0000000   0.0000000), wk =   0.0320000
        k(    9) = (   0.0000000  -0.5656854   0.5656854), wk =   0.0320000
        k(   10) = (  -0.1414214  -0.4242641   0.7071068), wk =   0.0320000
        k(   11) = (  -0.1414214  -0.1414214  -0.1414214), wk =   0.0320000
        k(   12) = (  -0.1414214   0.1414214   0.1414214), wk =   0.0320000
        k(   13) = (   0.1414214  -0.1414214   0.1414214), wk =   0.0320000
        k(   14) = (  -0.2828427  -0.2828427  -0.2828427), wk =   0.0320000
        k(   15) = (  -0.2828427   0.2828427   0.2828427), wk =   0.0320000
        k(   16) = (   0.2828427  -0.2828427   0.2828427), wk =   0.0320000
        k(   17) = (   0.0000000  -0.2828427   0.0000000), wk =   0.0320000
        k(   18) = (   0.0000000   0.0000000  -0.2828427), wk =   0.0320000
        k(   19) = (  -0.4242641  -0.1414214  -0.1414214), wk =   0.0320000
        k(   20) = (  -0.4242641   0.1414214   0.1414214), wk =   0.0320000
        k(   21) = (   0.4242641  -0.1414214   0.1414214), wk =   0.0320000
        k(   22) = (  -0.1414214  -0.4242641   0.1414214), wk =   0.0320000
        k(   23) = (   0.1414214  -0.1414214  -0.4242641), wk =   0.0320000
        k(   24) = (   0.1414214  -0.1414214   0.4242641), wk =   0.0320000
        k(   25) = (  -0.1414214  -0.1414214  -0.4242641), wk =   0.0320000
        k(   26) = (   0.1414214   0.1414214  -0.4242641), wk =   0.0320000
        k(   27) = (  -0.1414214   0.4242641   0.1414214), wk =   0.0320000
        k(   28) = (  -0.1414214  -0.4242641  -0.1414214), wk =   0.0320000
        k(   29) = (   0.1414214  -0.4242641   0.1414214), wk =   0.0320000
        k(   30) = (   0.1414214   0.4242641   0.4242641), wk =   0.0320000
        k(   31) = (   0.1414214  -0.4242641  -0.4242641), wk =   0.0320000
        k(   32) = (  -0.1414214   0.4242641  -0.4242641), wk =   0.0320000
        k(   33) = (   0.4242641   0.1414214  -0.4242641), wk =   0.0320000
        k(   34) = (  -0.4242641   0.4242641   0.1414214), wk =   0.0320000
        k(   35) = (  -0.4242641   0.4242641  -0.1414214), wk =   0.0320000
        k(   36) = (   0.4242641   0.4242641   0.1414214), wk =   0.0320000
        k(   37) = (  -0.4242641  -0.4242641   0.1414214), wk =   0.0320000
        k(   38) = (   0.4242641  -0.1414214  -0.4242641), wk =   0.0320000
        k(   39) = (   0.4242641   0.1414214   0.4242641), wk =   0.0320000
        k(   40) = (  -0.4242641   0.1414214  -0.4242641), wk =   0.0320000
        k(   41) = (  -0.0000000   0.2828427   0.2828427), wk =   0.0320000
        k(   42) = (   0.2828427  -0.0000000  -0.2828427), wk =   0.0320000
        k(   43) = (  -0.2828427   0.2828427  -0.0000000), wk =   0.0320000
        k(   44) = (   0.2828427   0.2828427  -0.0000000), wk =   0.0320000
        k(   45) = (   0.2828427  -0.0000000   0.2828427), wk =   0.0320000
        k(   46) = (   0.0000000  -0.5656854   0.0000000), wk =   0.0320000
        k(   47) = (   0.0000000   0.0000000  -0.5656854), wk =   0.0320000
        k(   48) = (   0.0000000   0.5656854   0.5656854), wk =   0.0320000
        k(   49) = (   0.5656854   0.0000000  -0.5656854), wk =   0.0320000
        k(   50) = (  -0.5656854   0.5656854   0.0000000), wk =   0.0320000
        k(   51) = (   0.5656854   0.5656854   0.0000000), wk =   0.0320000
        k(   52) = (   0.5656854   0.0000000   0.5656854), wk =   0.0320000
        k(   53) = (   0.1414214  -0.4242641  -0.7071068), wk =   0.0320000
        k(   54) = (   0.4242641   0.1414214  -0.7071068), wk =   0.0320000
        k(   55) = (  -0.7071068   0.4242641   0.1414214), wk =   0.0320000
        k(   56) = (   0.1414214  -0.7071068   0.4242641), wk =   0.0320000
        k(   57) = (  -0.4242641   0.7071068  -0.1414214), wk =   0.0320000
        k(   58) = (  -0.4242641  -0.7071068   0.1414214), wk =   0.0320000
        k(   59) = (   0.7071068  -0.1414214  -0.4242641), wk =   0.0320000
        k(   60) = (  -0.7071068   0.1414214  -0.4242641), wk =   0.0320000
        k(   61) = (   0.4242641  -0.1414214  -0.7071068), wk =   0.0320000
        k(   62) = (  -0.7071068  -0.4242641   0.1414214), wk =   0.0320000
        k(   63) = (  -0.1414214  -0.7071068   0.4242641), wk =   0.0320000

     Dense  grid:     8657 G-vectors     FFT dimensions: (  32,  32,  32)

     Estimated max dynamical RAM per process >      48.80 MB

     Check: negative core charge=   -0.000154

     Initial potential from superposition of free atoms

     starting charge      27.9988, renormalised to      28.0000
     Starting wfcs are   18 randomized atomic wfcs

     total cpu time spent up to now is        2.1 secs

     Self-consistent Calculation

     iteration #  1     ecut=    35.00 Ry     beta= 0.50
     Davidson diagonalization with overlap
     ethr =  1.00E-02,  avg # of iterations =  1.9

     Threshold (ethr) on eigenvalues was too large:
     Diagonalizing with lowered threshold

     Davidson diagonalization with overlap
     ethr =  1.16E-04,  avg # of iterations =  2.2

     total cpu time spent up to now is        7.8 secs

     total energy              =    -421.78450350 Ry
     estimated scf accuracy    <       0.03536160 Ry

     iteration #  2     ecut=    35.00 Ry     beta= 0.50
     Davidson diagonalization with overlap
     ethr =  1.26E-04,  avg # of iterations =  1.0

     total cpu time spent up to now is       10.4 secs

     total energy              =    -421.78309594 Ry
     estimated scf accuracy    <       0.00649814 Ry

     iteration #  3     ecut=    35.00 Ry     beta= 0.50
     Davidson diagonalization with overlap
     ethr =  2.32E-05,  avg # of iterations =  2.0

     total cpu time spent up to now is       13.2 secs

     total energy              =    -421.78359868 Ry
     estimated scf accuracy    <       0.00007618 Ry

     iteration #  4     ecut=    35.00 Ry     beta= 0.50
     Davidson diagonalization with overlap
     ethr =  2.72E-07,  avg # of iterations =  4.0

     total cpu time spent up to now is       17.0 secs

     total energy              =    -421.78361951 Ry
     estimated scf accuracy    <       0.00002929 Ry

     iteration #  5     ecut=    35.00 Ry     beta= 0.50
     Davidson diagonalization with overlap
     ethr =  1.05E-07,  avg # of iterations =  2.0

     total cpu time spent up to now is       19.9 secs

     total energy              =    -421.78361937 Ry
     estimated scf accuracy    <       0.00000513 Ry

     iteration #  6     ecut=    35.00 Ry     beta= 0.50
     Davidson diagonalization with overlap
     ethr =  1.83E-08,  avg # of iterations =  3.4

     total cpu time spent up to now is       23.1 secs

     total energy              =    -421.78363867 Ry
     estimated scf accuracy    <       0.00003718 Ry

     iteration #  7     ecut=    35.00 Ry     beta= 0.50
     Davidson diagonalization with overlap
     ethr =  1.83E-08,  avg # of iterations =  1.0

     total cpu time spent up to now is       25.6 secs

     total energy              =    -421.78364015 Ry
     estimated scf accuracy    <       0.00003782 Ry

     iteration #  8     ecut=    35.00 Ry     beta= 0.50
     Davidson diagonalization with overlap
     ethr =  1.83E-08,  avg # of iterations =  1.0

     total cpu time spent up to now is       28.2 secs

     total energy              =    -421.78364070 Ry
     estimated scf accuracy    <       0.00004060 Ry

     iteration #  9     ecut=    35.00 Ry     beta= 0.50
     Davidson diagonalization with overlap
     ethr =  1.83E-08,  avg # of iterations =  1.0

     total cpu time spent up to now is       30.8 secs

     total energy              =    -421.78363000 Ry
     estimated scf accuracy    <       0.00004190 Ry

     iteration # 10     ecut=    35.00 Ry     beta= 0.50
     Davidson diagonalization with overlap
     ethr =  1.83E-08,  avg # of iterations =  3.0

     total cpu time spent up to now is       34.4 secs

     total energy              =    -421.78363002 Ry
     estimated scf accuracy    <       0.00002273 Ry

     iteration # 11     ecut=    35.00 Ry     beta= 0.50
     Davidson diagonalization with overlap
     ethr =  1.83E-08,  avg # of iterations =  1.2

     total cpu time spent up to now is       37.1 secs

     total energy              =    -421.78364346 Ry
     estimated scf accuracy    <       0.00004684 Ry

     iteration # 12     ecut=    35.00 Ry     beta= 0.50
     Davidson diagonalization with overlap
     ethr =  1.83E-08,  avg # of iterations =  2.0

     total cpu time spent up to now is       39.8 secs

     total energy              =    -421.78363693 Ry
     estimated scf accuracy    <       0.00004957 Ry

     iteration # 13     ecut=    35.00 Ry     beta= 0.50
     Davidson diagonalization with overlap
     ethr =  1.83E-08,  avg # of iterations =  2.2

     total cpu time spent up to now is       42.8 secs

     total energy              =    -421.78363789 Ry
     estimated scf accuracy    <       0.00003986 Ry

     iteration # 14     ecut=    35.00 Ry     beta= 0.50
     Davidson diagonalization with overlap
     ethr =  1.83E-08,  avg # of iterations =  1.0

     total cpu time spent up to now is       45.3 secs

     total energy              =    -421.78363639 Ry
     estimated scf accuracy    <       0.00003896 Ry

     iteration # 15     ecut=    35.00 Ry     beta= 0.50
     Davidson diagonalization with overlap
     ethr =  1.83E-08,  avg # of iterations =  1.0

     total cpu time spent up to now is       47.8 secs

     total energy              =    -421.78362828 Ry
     estimated scf accuracy    <       0.00003572 Ry

     iteration # 16     ecut=    35.00 Ry     beta= 0.50
     Davidson diagonalization with overlap
     ethr =  1.83E-08,  avg # of iterations =  3.3

     total cpu time spent up to now is       51.6 secs

     total energy              =    -421.78363480 Ry
     estimated scf accuracy    <       0.00003568 Ry

     iteration # 17     ecut=    35.00 Ry     beta= 0.50
     Davidson diagonalization with overlap
     ethr =  1.83E-08,  avg # of iterations =  1.0

     total cpu time spent up to now is       54.2 secs

     total energy              =    -421.78363533 Ry
     estimated scf accuracy    <       0.00003147 Ry

     iteration # 18     ecut=    35.00 Ry     beta= 0.50
     Davidson diagonalization with overlap
     ethr =  1.83E-08,  avg # of iterations =  1.0

     total cpu time spent up to now is       56.8 secs

     total energy              =    -421.78361875 Ry
     estimated scf accuracy    <       0.00003229 Ry

     iteration # 19     ecut=    35.00 Ry     beta= 0.50
     Davidson diagonalization with overlap
     ethr =  1.83E-08,  avg # of iterations =  3.6

     total cpu time spent up to now is       60.5 secs

     total energy              =    -421.78362284 Ry
     estimated scf accuracy    <       0.00002073 Ry

     iteration # 20     ecut=    35.00 Ry     beta= 0.50
     Davidson diagonalization with overlap
     ethr =  1.83E-08,  avg # of iterations =  2.5

     total cpu time spent up to now is       63.5 secs

     total energy              =    -421.78362593 Ry
     estimated scf accuracy    <       0.00000595 Ry

     iteration # 21     ecut=    35.00 Ry     beta= 0.50
     Davidson diagonalization with overlap
     ethr =  1.83E-08,  avg # of iterations =  1.5

     total cpu time spent up to now is       66.2 secs

     total energy              =    -421.78362126 Ry
     estimated scf accuracy    <       0.00001033 Ry

     iteration # 22     ecut=    35.00 Ry     beta= 0.50
     Davidson diagonalization with overlap
     ethr =  1.83E-08,  avg # of iterations =  3.2

     total cpu time spent up to now is       69.3 secs

     total energy              =    -421.78362322 Ry
     estimated scf accuracy    <       0.00000337 Ry

     iteration # 23     ecut=    35.00 Ry     beta= 0.50
     Davidson diagonalization with overlap
     ethr =  1.20E-08,  avg # of iterations =  1.0

     total cpu time spent up to now is       71.8 secs

     total energy              =    -421.78362388 Ry
     estimated scf accuracy    <       0.00000414 Ry

     iteration # 24     ecut=    35.00 Ry     beta= 0.50
     Davidson diagonalization with overlap
     ethr =  1.20E-08,  avg # of iterations =  3.7

     total cpu time spent up to now is       75.6 secs

     total energy              =    -421.78362561 Ry
     estimated scf accuracy    <       0.00001146 Ry

     iteration # 25     ecut=    35.00 Ry     beta= 0.50
     Davidson diagonalization with overlap
     ethr =  1.20E-08,  avg # of iterations =  1.0

     total cpu time spent up to now is       78.1 secs

     total energy              =    -421.78362416 Ry
     estimated scf accuracy    <       0.00000947 Ry

     iteration # 26     ecut=    35.00 Ry     beta= 0.50
     Davidson diagonalization with overlap
     ethr =  1.20E-08,  avg # of iterations =  1.0

     total cpu time spent up to now is       80.6 secs

     total energy              =    -421.78362326 Ry
     estimated scf accuracy    <       0.00000631 Ry

     iteration # 27     ecut=    35.00 Ry     beta= 0.50
     Davidson diagonalization with overlap
     ethr =  1.20E-08,  avg # of iterations =  1.0

     total cpu time spent up to now is       83.1 secs

     total energy              =    -421.78362074 Ry
     estimated scf accuracy    <       0.00000425 Ry

     iteration # 28     ecut=    35.00 Ry     beta= 0.50
     Davidson diagonalization with overlap
     ethr =  1.20E-08,  avg # of iterations =  2.7

     total cpu time spent up to now is       86.3 secs

     total energy              =    -421.78363450 Ry
     estimated scf accuracy    <       0.00003518 Ry

     iteration # 29     ecut=    35.00 Ry     beta= 0.50
     Davidson diagonalization with overlap
     ethr =  1.20E-08,  avg # of iterations =  1.0

     total cpu time spent up to now is       88.8 secs

     total energy              =    -421.78363439 Ry
     estimated scf accuracy    <       0.00002930 Ry

     iteration # 30     ecut=    35.00 Ry     beta= 0.50
     Davidson diagonalization with overlap
     ethr =  1.20E-08,  avg # of iterations =  1.0

     total cpu time spent up to now is       91.3 secs

     total energy              =    -421.78363439 Ry
     estimated scf accuracy    <       0.00002900 Ry

     iteration # 31     ecut=    35.00 Ry     beta= 0.50
     Davidson diagonalization with overlap
     ethr =  1.20E-08,  avg # of iterations =  1.0

     total cpu time spent up to now is       93.8 secs

     total energy              =    -421.78363779 Ry
     estimated scf accuracy    <       0.00002894 Ry

     iteration # 32     ecut=    35.00 Ry     beta= 0.50
     Davidson diagonalization with overlap
     ethr =  1.20E-08,  avg # of iterations =  1.0

     total cpu time spent up to now is       96.3 secs

     total energy              =    -421.78363666 Ry
     estimated scf accuracy    <       0.00003620 Ry

     iteration # 33     ecut=    35.00 Ry     beta= 0.50
     Davidson diagonalization with overlap
     ethr =  1.20E-08,  avg # of iterations =  1.0

     total cpu time spent up to now is       98.8 secs

     total energy              =    -421.78363367 Ry
     estimated scf accuracy    <       0.00003403 Ry

     iteration # 34     ecut=    35.00 Ry     beta= 0.50
     Davidson diagonalization with overlap
     ethr =  1.20E-08,  avg # of iterations =  1.0

     total cpu time spent up to now is      101.4 secs

     total energy              =    -421.78362508 Ry
     estimated scf accuracy    <       0.00002761 Ry

     iteration # 35     ecut=    35.00 Ry     beta= 0.50
     Davidson diagonalization with overlap
     ethr =  1.20E-08,  avg # of iterations =  2.3

     total cpu time spent up to now is      104.3 secs

     total energy              =    -421.78361963 Ry
     estimated scf accuracy    <       0.00001013 Ry

     iteration # 36     ecut=    35.00 Ry     beta= 0.50
     Davidson diagonalization with overlap
     ethr =  1.20E-08,  avg # of iterations =  3.6

     total cpu time spent up to now is      107.7 secs

     End of self-consistent calculation

          k = 0.0000 0.0000 0.0000 (  1067 PWs)   bands (ev):

   -16.8905 -16.8897 -16.8871 -16.8553 -16.8541 -16.6541 -16.6535 -16.6512
   -16.6401 -16.6389  -4.7147   7.6529   7.9852   7.9916

          k = 0.1414 0.1414-0.1414 (  1077 PWs)   bands (ev):

   -16.9044 -16.9016 -16.8848 -16.8335 -16.8324 -16.6725 -16.6724 -16.6602
   -16.6247 -16.6232  -4.2417   4.1108   7.3228   7.3311

          k = 0.2828 0.2828-0.2828 (  1095 PWs)   bands (ev):

   -16.9138 -16.9106 -16.8757 -16.8166 -16.8149 -16.6857 -16.6844 -16.6714
   -16.6163 -16.6134  -3.0338   1.0099   6.6875   6.6957

          k = 0.2828 0.0000 0.0000 (  1070 PWs)   bands (ev):

   -16.9027 -16.9025 -16.8968 -16.8328 -16.8072 -16.7146 -16.6590 -16.6338
   -16.6333 -16.6245  -4.0769   4.0819   6.4078   6.4082

          k = 0.4243 0.1414-0.1414 (  1078 PWs)   bands (ev):

   -16.9242 -16.9137 -16.8709 -16.8075 -16.7811 -16.7393 -16.6857 -16.6607
   -16.6157 -16.6017  -3.0430   1.6431   5.1134   5.8493

          k =-0.1414-0.4243 0.4243 (  1080 PWs)   bands (ev):

   -16.9324 -16.9206 -16.8470 -16.7967 -16.7877 -16.7170 -16.7103 -16.6870
   -16.6049 -16.5936  -2.2949   0.4390   4.3193   6.1109

          k = 0.0000-0.2828 0.2828 (  1079 PWs)   bands (ev):

   -16.9191 -16.9164 -16.8635 -16.8237 -16.8012 -16.7048 -16.6867 -16.6675
   -16.6140 -16.6071  -3.4870   2.4352   4.8863   7.0035

          k = 0.5657 0.0000 0.0000 (  1082 PWs)   bands (ev):

   -16.9201 -16.9199 -16.8698 -16.8007 -16.7779 -16.7283 -16.7116 -16.6576
   -16.6056 -16.6054  -2.2231   0.6275   5.1311   5.1312

          k = 0.0000-0.5657 0.5657 (  1103 PWs)   bands (ev):

   -16.9362 -16.9236 -16.8378 -16.7984 -16.7520 -16.7405 -16.7276 -16.6909
   -16.6007 -16.5887  -1.1811  -0.5277   3.9223   5.2441

          k =-0.1414-0.4243 0.7071 (  1091 PWs)   bands (ev):

   -16.9359 -16.9279 -16.8321 -16.7802 -16.7702 -16.7490 -16.7191 -16.6958
   -16.5941 -16.5925  -1.8616   0.2606   3.9734   4.9389

          k =-0.1414-0.1414-0.1414 (  1077 PWs)   bands (ev):

   -16.9043 -16.9017 -16.8849 -16.8335 -16.8324 -16.6725 -16.6724 -16.6603
   -16.6246 -16.6232  -4.2417   4.1103   7.3233   7.3311

          k =-0.1414 0.1414 0.1414 (  1077 PWs)   bands (ev):

   -16.9047 -16.9029 -16.8825 -16.8339 -16.8329 -16.6735 -16.6724 -16.6583
   -16.6251 -16.6234  -4.2421   4.1172   7.3193   7.3284

          k = 0.1414-0.1414 0.1414 (  1077 PWs)   bands (ev):

   -16.9047 -16.9029 -16.8825 -16.8339 -16.8329 -16.6735 -16.6724 -16.6583
   -16.6251 -16.6234  -4.2421   4.1170   7.3193   7.3286

          k =-0.2828-0.2828-0.2828 (  1095 PWs)   bands (ev):

   -16.9137 -16.9106 -16.8758 -16.8165 -16.8149 -16.6857 -16.6844 -16.6714
   -16.6162 -16.6134  -3.0336   1.0092   6.6879   6.6955

          k =-0.2828 0.2828 0.2828 (  1095 PWs)   bands (ev):

   -16.9138 -16.9117 -16.8734 -16.8168 -16.8162 -16.6859 -16.6851 -16.6695
   -16.6161 -16.6141  -3.0364   1.0181   6.6848   6.6938

          k = 0.2828-0.2828 0.2828 (  1095 PWs)   bands (ev):

   -16.9138 -16.9117 -16.8734 -16.8168 -16.8162 -16.6859 -16.6851 -16.6695
   -16.6161 -16.6141  -3.0363   1.0180   6.6848   6.6939

          k = 0.0000-0.2828 0.0000 (  1070 PWs)   bands (ev):

   -16.9027 -16.9025 -16.8968 -16.8328 -16.8072 -16.7146 -16.6590 -16.6338
   -16.6333 -16.6245  -4.0769   4.0819   6.4078   6.4082

          k = 0.0000 0.0000-0.2828 (  1070 PWs)   bands (ev):

   -16.9036 -16.9002 -16.8975 -16.8337 -16.8069 -16.7147 -16.6599 -16.6345
   -16.6316 -16.6245  -4.0768   4.0821   6.4031   6.4121

          k =-0.4243-0.1414-0.1414 (  1078 PWs)   bands (ev):

   -16.9243 -16.9137 -16.8710 -16.8075 -16.7811 -16.7393 -16.6857 -16.6608
   -16.6156 -16.6018  -3.0429   1.6427   5.1136   5.8495

          k =-0.4243 0.1414 0.1414 (  1078 PWs)   bands (ev):

   -16.9255 -16.9133 -16.8689 -16.8081 -16.7819 -16.7401 -16.6861 -16.6588
   -16.6150 -16.6030  -3.0445   1.6504   5.1065   5.8502

          k = 0.4243-0.1414 0.1414 (  1078 PWs)   bands (ev):

   -16.9254 -16.9134 -16.8689 -16.8081 -16.7819 -16.7400 -16.6861 -16.6589
   -16.6151 -16.6029  -3.0445   1.6501   5.1070   5.8499

          k =-0.1414-0.4243 0.1414 (  1078 PWs)   bands (ev):

   -16.9242 -16.9137 -16.8710 -16.8075 -16.7811 -16.7393 -16.6857 -16.6607
   -16.6157 -16.6017  -3.0430   1.6431   5.1135   5.8492

          k = 0.1414-0.1414-0.4243 (  1078 PWs)   bands (ev):

   -16.9232 -16.9148 -16.8701 -16.8087 -16.7810 -16.7390 -16.6868 -16.6598
   -16.6163 -16.6009  -3.0442   1.6485   5.1132   5.8450

          k = 0.1414-0.1414 0.4243 (  1078 PWs)   bands (ev):

   -16.9232 -16.9148 -16.8701 -16.8087 -16.7810 -16.7390 -16.6868 -16.6598
   -16.6163 -16.6009  -3.0442   1.6483   5.1133   5.8450

          k =-0.1414-0.1414-0.4243 (  1078 PWs)   bands (ev):

   -16.9261 -16.9115 -16.8701 -16.8087 -16.7811 -16.7402 -16.6868 -16.6593
   -16.6134 -16.6035  -3.0432   1.6446   5.1072   5.8535

          k = 0.1414 0.1414-0.4243 (  1078 PWs)   bands (ev):

   -16.9262 -16.9114 -16.8700 -16.8087 -16.7812 -16.7402 -16.6868 -16.6593
   -16.6134 -16.6036  -3.0433   1.6452   5.1067   5.8536

          k =-0.1414 0.4243 0.1414 (  1078 PWs)   bands (ev):

   -16.9254 -16.9134 -16.8689 -16.8081 -16.7819 -16.7400 -16.6861 -16.6589
   -16.6150 -16.6029  -3.0445   1.6503   5.1070   5.8499

          k =-0.1414-0.4243-0.1414 (  1078 PWs)   bands (ev):

   -16.9243 -16.9137 -16.8710 -16.8075 -16.7811 -16.7393 -16.6857 -16.6607
   -16.6156 -16.6018  -3.0429   1.6427   5.1134   5.8495

          k = 0.1414-0.4243 0.1414 (  1078 PWs)   bands (ev):

   -16.9255 -16.9133 -16.8689 -16.8081 -16.7819 -16.7401 -16.6861 -16.6588
   -16.6150 -16.6030  -3.0445   1.6503   5.1065   5.8502

          k = 0.1414 0.4243 0.4243 (  1080 PWs)   bands (ev):

   -16.9325 -16.9206 -16.8470 -16.7967 -16.7877 -16.7170 -16.7103 -16.6870
   -16.6049 -16.5937  -2.2946   0.4383   4.3195   6.1111

          k = 0.1414-0.4243-0.4243 (  1080 PWs)   bands (ev):

   -16.9330 -16.9202 -16.8457 -16.7973 -16.7884 -16.7173 -16.7107 -16.6859
   -16.6044 -16.5943  -2.2980   0.4468   4.3143   6.1120

          k =-0.1414 0.4243-0.4243 (  1080 PWs)   bands (ev):

   -16.9330 -16.9203 -16.8458 -16.7972 -16.7884 -16.7173 -16.7107 -16.6859
   -16.6044 -16.5942  -2.2980   0.4467   4.3146   6.1117

          k = 0.4243 0.1414-0.4243 (  1080 PWs)   bands (ev):

   -16.9324 -16.9206 -16.8470 -16.7966 -16.7878 -16.7170 -16.7103 -16.6870
   -16.6049 -16.5936  -2.2949   0.4390   4.3194   6.1109

          k =-0.4243 0.4243 0.1414 (  1080 PWs)   bands (ev):

   -16.9314 -16.9217 -16.8467 -16.7957 -16.7891 -16.7152 -16.7115 -16.6874
   -16.6056 -16.5929  -2.2989   0.4482   4.3187   6.1063

          k =-0.4243 0.4243-0.1414 (  1080 PWs)   bands (ev):

   -16.9314 -16.9217 -16.8467 -16.7957 -16.7891 -16.7152 -16.7115 -16.6874
   -16.6056 -16.5929  -2.2988   0.4480   4.3188   6.1063

          k = 0.4243 0.4243 0.1414 (  1080 PWs)   bands (ev):

   -16.9341 -16.9186 -16.8465 -16.7964 -16.7888 -16.7182 -16.7113 -16.6849
   -16.6029 -16.5955  -2.2938   0.4371   4.3155   6.1157

          k =-0.4243-0.4243 0.1414 (  1080 PWs)   bands (ev):

   -16.9341 -16.9186 -16.8465 -16.7964 -16.7888 -16.7183 -16.7113 -16.6849
   -16.6029 -16.5955  -2.2940   0.4377   4.3151   6.1157

          k = 0.4243-0.1414-0.4243 (  1080 PWs)   bands (ev):

   -16.9330 -16.9203 -16.8458 -16.7972 -16.7885 -16.7173 -16.7107 -16.6859
   -16.6044 -16.5942  -2.2981   0.4469   4.3146   6.1116

          k = 0.4243 0.1414 0.4243 (  1080 PWs)   bands (ev):

   -16.9325 -16.9205 -16.8470 -16.7966 -16.7877 -16.7170 -16.7103 -16.6870
   -16.6048 -16.5937  -2.2946   0.4383   4.3194   6.1112

          k =-0.4243 0.1414-0.4243 (  1080 PWs)   bands (ev):

   -16.9330 -16.9202 -16.8458 -16.7973 -16.7885 -16.7173 -16.7107 -16.6859
   -16.6044 -16.5943  -2.2979   0.4466   4.3143   6.1120

          k =-0.0000 0.2828 0.2828 (  1079 PWs)   bands (ev):

   -16.9190 -16.9165 -16.8636 -16.8236 -16.8011 -16.7048 -16.6866 -16.6675
   -16.6140 -16.6070  -3.4869   2.4349   4.8863   7.0038

          k = 0.2828-0.0000-0.2828 (  1079 PWs)   bands (ev):

   -16.9191 -16.9164 -16.8635 -16.8237 -16.8012 -16.7048 -16.6867 -16.6675
   -16.6140 -16.6071  -3.4870   2.4354   4.8863   7.0034

          k =-0.2828 0.2828-0.0000 (  1079 PWs)   bands (ev):

   -16.9193 -16.9170 -16.8619 -16.8236 -16.8022 -16.7058 -16.6868 -16.6658
   -16.6133 -16.6083  -3.4878   2.4407   4.8864   6.9975

          k = 0.2828 0.2828-0.0000 (  1079 PWs)   bands (ev):

   -16.9187 -16.9164 -16.8650 -16.8220 -16.8016 -16.7050 -16.6863 -16.6675
   -16.6152 -16.6061  -3.4861   2.4295   4.8867   7.0090

          k = 0.2828-0.0000 0.2828 (  1079 PWs)   bands (ev):

   -16.9190 -16.9165 -16.8636 -16.8236 -16.8012 -16.7048 -16.6866 -16.6675
   -16.6140 -16.6070  -3.4869   2.4348   4.8864   7.0039

          k = 0.0000-0.5657 0.0000 (  1082 PWs)   bands (ev):

   -16.9201 -16.9199 -16.8698 -16.8007 -16.7779 -16.7283 -16.7116 -16.6576
   -16.6056 -16.6054  -2.2231   0.6275   5.1310   5.1313

          k = 0.0000 0.0000-0.5657 (  1082 PWs)   bands (ev):

   -16.9212 -16.9178 -16.8700 -16.8008 -16.7789 -16.7282 -16.7125 -16.6573
   -16.6065 -16.6036  -2.2231   0.6276   5.1270   5.1345

          k = 0.0000 0.5657 0.5657 (  1103 PWs)   bands (ev):

   -16.9363 -16.9235 -16.8378 -16.7984 -16.7520 -16.7405 -16.7276 -16.6909
   -16.6006 -16.5888  -1.1808  -0.5280   3.9222   5.2443

          k = 0.5657 0.0000-0.5657 (  1103 PWs)   bands (ev):

   -16.9362 -16.9236 -16.8378 -16.7984 -16.7520 -16.7405 -16.7276 -16.6909
   -16.6007 -16.5887  -1.1812  -0.5276   3.9224   5.2440

          k =-0.5657 0.5657 0.0000 (  1103 PWs)   bands (ev):

   -16.9344 -16.9248 -16.8394 -16.7967 -16.7530 -16.7414 -16.7256 -16.6924
   -16.6016 -16.5871  -1.1859  -0.5220   3.9255   5.2399

          k = 0.5657 0.5657 0.0000 (  1103 PWs)   bands (ev):

   -16.9376 -16.9215 -16.8365 -16.8000 -16.7528 -16.7414 -16.7288 -16.6890
   -16.5988 -16.5901  -1.1759  -0.5336   3.9187   5.2476

          k = 0.5657 0.0000 0.5657 (  1103 PWs)   bands (ev):

   -16.9363 -16.9235 -16.8378 -16.7985 -16.7520 -16.7405 -16.7276 -16.6909
   -16.6006 -16.5888  -1.1807  -0.5282   3.9221   5.2443

          k = 0.1414-0.4243-0.7071 (  1091 PWs)   bands (ev):

   -16.9334 -16.9309 -16.8312 -16.7807 -16.7706 -16.7492 -16.7182 -16.6961
   -16.5967 -16.5900  -1.8664   0.2700   3.9762   4.9310

          k = 0.4243 0.1414-0.7071 (  1091 PWs)   bands (ev):

   -16.9359 -16.9279 -16.8321 -16.7802 -16.7702 -16.7490 -16.7191 -16.6958
   -16.5941 -16.5925  -1.8616   0.2606   3.9734   4.9389

          k =-0.7071 0.4243 0.1414 (  1091 PWs)   bands (ev):

   -16.9349 -16.9290 -16.8315 -16.7814 -16.7700 -16.7486 -16.7194 -16.6957
   -16.5958 -16.5906  -1.8639   0.2652   3.9746   4.9351

          k = 0.1414-0.7071 0.4243 (  1091 PWs)   bands (ev):

   -16.9347 -16.9297 -16.8311 -16.7814 -16.7698 -16.7483 -16.7196 -16.6952
   -16.5957 -16.5912  -1.8639   0.2650   3.9747   4.9353

          k =-0.4243 0.7071-0.1414 (  1091 PWs)   bands (ev):

   -16.9349 -16.9289 -16.8315 -16.7814 -16.7701 -16.7486 -16.7194 -16.6957
   -16.5958 -16.5906  -1.8638   0.2651   3.9746   4.9352

          k =-0.4243-0.7071 0.1414 (  1091 PWs)   bands (ev):

   -16.9348 -16.9290 -16.8315 -16.7814 -16.7701 -16.7486 -16.7194 -16.6957
   -16.5958 -16.5906  -1.8641   0.2656   3.9747   4.9348

          k = 0.7071-0.1414-0.4243 (  1091 PWs)   bands (ev):

   -16.9347 -16.9297 -16.8311 -16.7814 -16.7698 -16.7483 -16.7196 -16.6952
   -16.5957 -16.5912  -1.8639   0.2651   3.9747   4.9353

          k =-0.7071 0.1414-0.4243 (  1091 PWs)   bands (ev):

   -16.9346 -16.9297 -16.8311 -16.7815 -16.7698 -16.7483 -16.7196 -16.6952
   -16.5958 -16.5911  -1.8641   0.2654   3.9748   4.9351

          k = 0.4243-0.1414-0.7071 (  1091 PWs)   bands (ev):

   -16.9334 -16.9308 -16.8312 -16.7807 -16.7706 -16.7492 -16.7182 -16.6961
   -16.5967 -16.5900  -1.8664   0.2700   3.9762   4.9310

          k =-0.7071-0.4243 0.1414 (  1091 PWs)   bands (ev):

   -16.9348 -16.9290 -16.8315 -16.7814 -16.7701 -16.7486 -16.7194 -16.6957
   -16.5958 -16.5906  -1.8640   0.2655   3.9747   4.9349

          k =-0.1414-0.7071 0.4243 (  1091 PWs)   bands (ev):

   -16.9346 -16.9297 -16.8311 -16.7814 -16.7698 -16.7483 -16.7196 -16.6952
   -16.5958 -16.5911  -1.8641   0.2655   3.9748   4.9350

     highest occupied level (ev):     7.9916

!    total energy              =    -421.78362143 Ry
     estimated scf accuracy    <       0.00000002 Ry

     The total energy is the sum of the following terms:
     one-electron contribution =    -277.03520612 Ry
     hartree contribution      =     163.36585496 Ry
     xc contribution           =    -111.68397491 Ry
     ewald contribution        =    -196.43029536 Ry

     convergence has been achieved in  36 iterations

     Forces acting on atoms (cartesian axes, Ry/au):

     atom    1 type  1   force =    -0.00020773   -0.00051254   -0.00321906
     atom    2 type  1   force =     0.00020773    0.00051254    0.00321906
     The non-local contrib.  to forces
     atom    1 type  1   force =     0.00004590   -0.00000388    0.00662774
     atom    2 type  1   force =    -0.00004587    0.00000262   -0.00662930
     The ionic contribution  to forces
     atom    1 type  1   force =    -0.00003185   -0.00003185   -0.00003185
     atom    2 type  1   force =     0.00003185    0.00003185    0.00003185
     The local contribution  to forces
     atom    1 type  1   force =    -0.00001917    0.00015851   -0.00894270
     atom    2 type  1   force =     0.00001917   -0.00015682    0.00894574
     The core correction contribution to forces
     atom    1 type  1   force =    -0.00000094    0.00000273   -0.00018457
     atom    2 type  1   force =     0.00000091   -0.00000264    0.00018465
     The Hubbard contrib.    to forces
     atom    1 type  1   force =     0.00000000    0.00000000    0.00000000
     atom    2 type  1   force =     0.00000000    0.00000000    0.00000000
     The SCF correction term to forces
     atom    1 type  1   force =    -0.00020125   -0.00064005   -0.00069117
     atom    2 type  1   force =     0.00020211    0.00063552    0.00068266

     Total force =     0.004619     Total SCF correction =     0.001356
     SCF correction compared to forces is large: reduce conv_thr to get better values


     Computing stress (Cartesian axis) and pressure

          total   stress  (Ry/bohr**3)                   (kbar)     P=      -28.66
  -0.00019978  -0.00000371  -0.00000046          -29.39       -0.55       -0.07
  -0.00000371  -0.00019949  -0.00000012           -0.55      -29.35       -0.02
  -0.00000046  -0.00000012  -0.00018526           -0.07       -0.02      -27.25


     init_run     :      2.66s CPU      1.95s WALL (       1 calls)
     electrons    :    152.83s CPU    105.61s WALL (       1 calls)
     forces       :      0.48s CPU      0.29s WALL (       1 calls)
     stress       :      6.22s CPU      4.24s WALL (       1 calls)

     Called by init_run:
     wfcinit      :      2.22s CPU      1.51s WALL (       1 calls)
     potinit      :      0.01s CPU      0.01s WALL (       1 calls)
     hinit0       :      0.39s CPU      0.39s WALL (       1 calls)

     Called by electrons:
     c_bands      :    125.62s CPU     86.28s WALL (      37 calls)
     sum_band     :     24.88s CPU     17.36s WALL (      37 calls)
     v_of_rho     :      0.29s CPU      0.35s WALL (      37 calls)
     newd         :      1.61s CPU      1.09s WALL (      37 calls)
     mix_rho      :      0.23s CPU      0.25s WALL (      37 calls)

     Called by c_bands:
     init_us_2    :      6.83s CPU      4.69s WALL (    4851 calls)
     init_us_2:cp :      6.78s CPU      4.64s WALL (    4851 calls)
     cegterg      :    109.69s CPU     74.58s WALL (    2331 calls)

     Called by *egterg:
     cdiaghg      :      6.10s CPU      4.02s WALL (    6573 calls)
     h_psi        :     92.38s CPU     63.16s WALL (    6699 calls)
     s_psi        :      2.36s CPU      1.56s WALL (    6699 calls)
     g_psi        :      1.01s CPU      0.65s WALL (    4305 calls)

     Called by h_psi:
     h_psi:calbec :      2.57s CPU      1.85s WALL (    6699 calls)
     vloc_psi     :     86.72s CPU     59.09s WALL (    6699 calls)
     add_vuspsi   :      2.30s CPU      1.56s WALL (    6699 calls)

     General routines
     calbec       :      3.55s CPU      2.46s WALL (    9345 calls)
     fft          :      0.26s CPU      0.23s WALL (     157 calls)
     ffts         :      0.04s CPU      0.04s WALL (      37 calls)
     fftw         :     82.25s CPU     56.16s WALL (  182360 calls)

     Parallel routines

     PWSCF        :   2m42.39s CPU   1m52.33s WALL


   This run was terminated on:  10:37: 5  16Oct2023            

=------------------------------------------------------------------------------=
   JOB DONE.
=------------------------------------------------------------------------------=
