
     Program PWSCF v.7.2 starts on  2Nov2023 at 20: 9: 7 

     This program is part of the open-source Quantum ESPRESSO suite
     for quantum simulation of materials; please cite
         "P. Giannozzi et al., J. Phys.:Condens. Matter 21 395502 (2009);
         "P. Giannozzi et al., J. Phys.:Condens. Matter 29 465901 (2017);
         "P. Giannozzi et al., J. Chem. Phys. 152 154105 (2020);
          URL http://www.quantum-espresso.org", 
     in publications or presentations arising from this work. More details at
     http://www.quantum-espresso.org/quote

     Parallel version (MPI), running on     4 processors

     MPI processes distributed on     4 nodes
     187062 MiB available memory on the printing compute node when the environment starts

     Waiting for input...
     Reading input from standard input
Warning: card &CELL ignored
Warning: card / ignored

     Current dimensions of program PWSCF are:
     Max number of different atomic species (ntypx) = 10
     Max number of k-points (npk) =  40000
     Max angular momentum in pseudopotentials (lmaxx) =  4
     file O.pz-rrkjus.UPF: wavefunction(s)  2S renormalized
     Message from routine setup:
     using ibrav=0 with symmetry is DISCOURAGED, use correct ibrav instead

     R & G space division:  proc/nbgrp/npool/nimage =       4
     Subspace diagonalization in iterative solution of the eigenvalue problem:
     a serial algorithm will be used


     Parallelization info
     --------------------
     sticks:   dense  smooth     PW     G-vecs:    dense   smooth      PW
     Min         258     127     36                 6208     2183     354
     Max         259     128     38                 6210     2184     357
     Sum        1033     509    149                24837     8733    1419

     Using Slab Decomposition



     bravais-lattice index     =            0
     lattice parameter (alat)  =       7.3321  a.u.
     unit-cell volume          =     394.1775 (a.u.)^3
     number of atoms/cell      =            5
     number of atomic types    =            3
     number of electrons       =        44.00
     number of Kohn-Sham states=           22
     kinetic-energy cutoff     =      30.0000  Ry
     charge density cutoff     =     240.0000  Ry
     scf convergence threshold =      1.0E-07
     mixing beta               =       0.7000
     number of iterations used =            8  plain     mixing
     energy convergence thresh.=      1.0E-04
     force convergence thresh. =      1.0E-03
     Exchange-correlation= SLA  PZ   NOGX NOGC
                           (   1   1   0   0   0   0   0)
     nstep                     =           50


     celldm(1)=   7.332137  celldm(2)=   0.000000  celldm(3)=   0.000000
     celldm(4)=   0.000000  celldm(5)=   0.000000  celldm(6)=   0.000000

     crystal axes: (cart. coord. in units of alat)
               a(1) = (   1.000000   0.000000   0.000000 )  
               a(2) = (   0.000000   1.000000   0.000000 )  
               a(3) = (   0.000000   0.000000   1.000000 )  

     reciprocal axes: (cart. coord. in units 2 pi/alat)
               b(1) = (  1.000000  0.000000  0.000000 )  
               b(2) = (  0.000000  1.000000  0.000000 )  
               b(3) = (  0.000000  0.000000  1.000000 )  


     PseudoPot. # 1 for O  read from file:
     /home/gridsan/epan1/labutil/lab3_samples/pseudopotentials/O.pz-rrkjus.UPF
     MD5 check sum: 24fb942a68ef5d262e498166c462ef4a
     Pseudo is Ultrasoft, Zval =  6.0
     Generated by new atomic code, or converted to UPF format
     Using radial grid of 1269 points,  4 beta functions with: 
                l(1) =   0
                l(2) =   0
                l(3) =   1
                l(4) =   1
     Q(r) pseudized with 0 coefficients 


     PseudoPot. # 2 for Pb read from file:
     /home/gridsan/epan1/labutil/lab3_samples/pseudopotentials/Pb.pz-d-van.UPF
     MD5 check sum: 4e1e5920686a026ae26139ac417581ff
     Pseudo is Ultrasoft, Zval = 14.0
     Generated by new atomic code, or converted to UPF format
     Using radial grid of  899 points,  6 beta functions with: 
                l(1) =   0
                l(2) =   0
                l(3) =   1
                l(4) =   1
                l(5) =   2
                l(6) =   2
     Q(r) pseudized with  8 coefficients,  rinner =    1.000   1.000   1.000
                                                       1.000   1.000

     PseudoPot. # 3 for Ti read from file:
     /home/gridsan/epan1/labutil/lab3_samples/pseudopotentials/Ti.pz-sp-van_ak.UPF
     MD5 check sum: 545d0e6e05332b8871a8093f427cb0ca
     Pseudo is Ultrasoft, Zval = 12.0
     Generated by new atomic code, or converted to UPF format
     Using radial grid of  851 points,  6 beta functions with: 
                l(1) =   0
                l(2) =   0
                l(3) =   1
                l(4) =   1
                l(5) =   2
                l(6) =   2
     Q(r) pseudized with  8 coefficients,  rinner =    1.000   1.000   1.000
                                                       1.000   1.000

     atomic species   valence    mass     pseudopotential
        O              6.00    15.99900     O ( 1.00)
        Pb            14.00   207.20000     Pb( 1.00)
        Ti            12.00    47.86700     Ti( 1.00)

      8 Sym. Ops. (no inversion) found



   Cartesian axes

     site n.     atom                  positions (alat units)
         1           Pb  tau(   1) = (   0.0000000   0.0000000   0.0000000  )
         2           Ti  tau(   2) = (   0.5000000   0.5000000   0.5280000  )
         3           O   tau(   3) = (   0.0000000   0.5000000   0.5000000  )
         4           O   tau(   4) = (   0.5000000   0.0000000   0.5000000  )
         5           O   tau(   5) = (   0.5000000   0.5000000   0.0000000  )

     number of k points=     6
                       cart. coord. in units 2pi/alat
        k(    1) = (   0.1250000   0.1250000   0.1250000), wk =   0.2500000
        k(    2) = (   0.1250000   0.1250000   0.3750000), wk =   0.2500000
        k(    3) = (   0.1250000   0.3750000   0.3750000), wk =   0.5000000
        k(    4) = (   0.3750000   0.3750000   0.3750000), wk =   0.2500000
        k(    5) = (   0.3750000  -0.1250000   0.1250000), wk =   0.5000000
        k(    6) = (   0.3750000  -0.3750000   0.1250000), wk =   0.2500000

     Dense  grid:    24837 G-vectors     FFT dimensions: (  40,  40,  40)

     Smooth grid:     8733 G-vectors     FFT dimensions: (  25,  25,  25)

     Estimated max dynamical RAM per process >      27.70 MB

     Estimated total dynamical RAM >     110.80 MB

     Initial potential from superposition of free atoms

     starting charge      42.9982, renormalised to      44.0000
     Starting wfcs are   31 randomized atomic wfcs

     total cpu time spent up to now is        1.0 secs

     Self-consistent Calculation

     iteration #  1     ecut=    30.00 Ry     beta= 0.70
     Davidson diagonalization with overlap
     ethr =  1.00E-02,  avg # of iterations =  2.0

     total cpu time spent up to now is        1.1 secs

     total energy              =    -332.61961140 Ry
     estimated scf accuracy    <       1.09519177 Ry

     iteration #  2     ecut=    30.00 Ry     beta= 0.70
     Davidson diagonalization with overlap
     ethr =  2.49E-03,  avg # of iterations =  6.3

     total cpu time spent up to now is        1.4 secs

     total energy              =    -332.40562341 Ry
     estimated scf accuracy    <       4.01632821 Ry

     iteration #  3     ecut=    30.00 Ry     beta= 0.70
     Davidson diagonalization with overlap
     ethr =  2.49E-03,  avg # of iterations =  5.2

     total cpu time spent up to now is        1.6 secs

     total energy              =    -333.15752344 Ry
     estimated scf accuracy    <       0.21353756 Ry

     iteration #  4     ecut=    30.00 Ry     beta= 0.70
     Davidson diagonalization with overlap
     ethr =  4.85E-04,  avg # of iterations =  2.0

     total cpu time spent up to now is        1.7 secs

     total energy              =    -333.15510378 Ry
     estimated scf accuracy    <       0.05702457 Ry

     iteration #  5     ecut=    30.00 Ry     beta= 0.70
     Davidson diagonalization with overlap
     ethr =  1.30E-04,  avg # of iterations =  4.8

     total cpu time spent up to now is        1.9 secs

     total energy              =    -333.18181867 Ry
     estimated scf accuracy    <       0.02415093 Ry

     iteration #  6     ecut=    30.00 Ry     beta= 0.70
     Davidson diagonalization with overlap
     ethr =  5.49E-05,  avg # of iterations =  2.0

     total cpu time spent up to now is        2.1 secs

     total energy              =    -333.18004661 Ry
     estimated scf accuracy    <       0.00943650 Ry

     iteration #  7     ecut=    30.00 Ry     beta= 0.70
     Davidson diagonalization with overlap
     ethr =  2.14E-05,  avg # of iterations =  4.2

     total cpu time spent up to now is        2.3 secs

     total energy              =    -333.18269880 Ry
     estimated scf accuracy    <       0.00019506 Ry

     iteration #  8     ecut=    30.00 Ry     beta= 0.70
     Davidson diagonalization with overlap
     ethr =  4.43E-07,  avg # of iterations =  5.0

     total cpu time spent up to now is        2.5 secs

     total energy              =    -333.18271841 Ry
     estimated scf accuracy    <       0.00033186 Ry

     iteration #  9     ecut=    30.00 Ry     beta= 0.70
     Davidson diagonalization with overlap
     ethr =  4.43E-07,  avg # of iterations =  1.8

     total cpu time spent up to now is        2.6 secs

     total energy              =    -333.18267837 Ry
     estimated scf accuracy    <       0.00018314 Ry

     iteration # 10     ecut=    30.00 Ry     beta= 0.70
     Davidson diagonalization with overlap
     ethr =  4.16E-07,  avg # of iterations =  3.5

     total cpu time spent up to now is        2.8 secs

     total energy              =    -333.18269416 Ry
     estimated scf accuracy    <       0.00001938 Ry

     iteration # 11     ecut=    30.00 Ry     beta= 0.70
     Davidson diagonalization with overlap
     ethr =  4.40E-08,  avg # of iterations =  4.8

     total cpu time spent up to now is        3.0 secs

     total energy              =    -333.18270460 Ry
     estimated scf accuracy    <       0.00000536 Ry

     iteration # 12     ecut=    30.00 Ry     beta= 0.70
     Davidson diagonalization with overlap
     ethr =  1.22E-08,  avg # of iterations =  1.5

     total cpu time spent up to now is        3.1 secs

     total energy              =    -333.18270296 Ry
     estimated scf accuracy    <       0.00000371 Ry

     iteration # 13     ecut=    30.00 Ry     beta= 0.70
     Davidson diagonalization with overlap
     ethr =  8.43E-09,  avg # of iterations =  4.5

     total cpu time spent up to now is        3.3 secs

     total energy              =    -333.18270413 Ry
     estimated scf accuracy    <       0.00000061 Ry

     iteration # 14     ecut=    30.00 Ry     beta= 0.70
     Davidson diagonalization with overlap
     ethr =  1.38E-09,  avg # of iterations =  1.7

     total cpu time spent up to now is        3.5 secs

     total energy              =    -333.18270401 Ry
     estimated scf accuracy    <       0.00000034 Ry

     iteration # 15     ecut=    30.00 Ry     beta= 0.70
     Davidson diagonalization with overlap
     ethr =  7.71E-10,  avg # of iterations =  4.3

     total cpu time spent up to now is        3.6 secs

     End of self-consistent calculation

          k = 0.1250 0.1250 0.1250 (  1096 PWs)   bands (ev):

   -44.6703 -21.3204 -21.2729 -21.2721  -6.3688  -5.3228  -5.2723  -4.0385
    -4.0333  -4.0210  -3.8542  -3.8483   4.5911   7.2515   7.2771   8.0274
     9.0077   9.0715   9.7241   9.8123   9.9752  10.1095

          k = 0.1250 0.1250 0.3750 (  1095 PWs)   bands (ev):

   -44.6690 -21.3776 -21.2706 -21.2697  -5.9388  -5.1730  -5.1487  -4.0980
    -4.0337  -4.0165  -3.9462  -3.8253   3.8429   6.7817   7.2235   7.8097
     8.4324   8.6224   9.3636   9.8679  10.1088  10.8403

          k = 0.1250 0.3750 0.3750 (  1093 PWs)   bands (ev):

   -44.6678 -21.3742 -21.3257 -21.2682  -5.7265  -5.0798  -4.9844  -4.0717
    -4.0275  -3.9737  -3.8838  -3.7241   3.4935   6.6688   6.8910   7.1517
     7.4643   8.6556   9.3502   9.4613   9.9844  10.6441

          k = 0.3750 0.3750 0.3750 (  1082 PWs)   bands (ev):

   -44.6665 -21.3716 -21.3232 -21.3229  -5.3612  -5.1989  -5.1631  -3.9855
    -3.9790  -3.6953  -3.6312  -3.6147   4.1164   5.8840   5.9272   6.6560
     7.0367   7.0675   7.9314  10.5851  10.6306  10.7090

          k = 0.3750-0.1250 0.1250 (  1095 PWs)   bands (ev):

   -44.6690 -21.3291 -21.3179 -21.2702  -5.9737  -5.1912  -5.1112  -4.0953
    -4.0300  -4.0182  -3.9525  -3.8202   3.8637   6.8291   7.3170   7.8051
     8.3944   8.7348   9.2722   9.8750   9.9987  10.7883

          k = 0.3750-0.3750 0.1250 (  1093 PWs)   bands (ev):

   -44.6678 -21.3263 -21.3254 -21.3159  -5.7924  -5.0371  -4.9630  -4.0660
    -4.0257  -3.9675  -3.8813  -3.7471   3.5125   6.7857   6.8351   7.1272
     7.4300   8.6287   9.4269   9.4508   9.9670  10.7077

     highest occupied level (ev):    10.8403

!    total energy              =    -333.18270410 Ry
     estimated scf accuracy    <       0.00000002 Ry

     The total energy is the sum of the following terms:
     one-electron contribution =     -77.27718061 Ry
     hartree contribution      =      66.53242194 Ry
     xc contribution           =     -49.64597332 Ry
     ewald contribution        =    -272.79197211 Ry

     convergence has been achieved in  15 iterations

     Forces acting on atoms (cartesian axes, Ry/au):

     atom    1 type  2   force =     0.00000000    0.00000000    0.01212359
     atom    2 type  3   force =     0.00000000    0.00000000   -0.02244285
     atom    3 type  1   force =     0.00000000    0.00000000    0.00022287
     atom    4 type  1   force =     0.00000000    0.00000000    0.00022287
     atom    5 type  1   force =     0.00000000    0.00000000    0.00987352
     The non-local contrib.  to forces
     atom    1 type  2   force =     0.00000000    0.00000000   -0.00656191
     atom    2 type  3   force =     0.00000000    0.00000000    0.01257251
     atom    3 type  1   force =     0.00000000    0.00000000    0.05878689
     atom    4 type  1   force =     0.00000000    0.00000000    0.05878689
     atom    5 type  1   force =     0.00000000    0.00000000   -0.20659572
     The ionic contribution  to forces
     atom    1 type  2   force =     0.00000000    0.00000000    0.72962758
     atom    2 type  3   force =    -0.00000000   -0.00000000   -1.69875335
     atom    3 type  1   force =     0.00000000   -0.00000000   -0.80806689
     atom    4 type  1   force =    -0.00000000    0.00000000   -0.80806689
     atom    5 type  1   force =    -0.00000000   -0.00000000    2.58525955
     The local contribution  to forces
     atom    1 type  2   force =     0.00000000   -0.00000000   -0.71096365
     atom    2 type  3   force =    -0.00000000   -0.00000000    1.66372554
     atom    3 type  1   force =     0.00000000   -0.00000000    0.74952414
     atom    4 type  1   force =    -0.00000000   -0.00000000    0.74952414
     atom    5 type  1   force =    -0.00000000   -0.00000000   -2.36883153
     The core correction contribution to forces
     atom    1 type  2   force =     0.00000000    0.00000000    0.00000000
     atom    2 type  3   force =     0.00000000    0.00000000    0.00000000
     atom    3 type  1   force =     0.00000000    0.00000000    0.00000000
     atom    4 type  1   force =     0.00000000    0.00000000    0.00000000
     atom    5 type  1   force =     0.00000000    0.00000000    0.00000000
     The Hubbard contrib.    to forces
     atom    1 type  2   force =     0.00000000    0.00000000    0.00000000
     atom    2 type  3   force =     0.00000000    0.00000000    0.00000000
     atom    3 type  1   force =     0.00000000    0.00000000    0.00000000
     atom    4 type  1   force =     0.00000000    0.00000000    0.00000000
     atom    5 type  1   force =     0.00000000    0.00000000    0.00000000
     The SCF correction term to forces
     atom    1 type  2   force =     0.00000000    0.00000000    0.00002545
     atom    2 type  3   force =     0.00000000    0.00000000    0.00001632
     atom    3 type  1   force =    -0.00000000    0.00000000   -0.00001739
     atom    4 type  1   force =     0.00000000   -0.00000000   -0.00001739
     atom    5 type  1   force =    -0.00000000    0.00000000    0.00004510

     Total force =     0.027354     Total SCF correction =     0.000060


     Computing stress (Cartesian axis) and pressure

          total   stress  (Ry/bohr**3)                   (kbar)     P=      -14.77
  -0.00014096   0.00000000   0.00000000          -20.74        0.00        0.00
   0.00000000  -0.00014096   0.00000000            0.00      -20.74        0.00
   0.00000000   0.00000000  -0.00001935            0.00        0.00       -2.85


     BFGS Geometry Optimization
     Energy error            =      0.0E+00 Ry
     Gradient error          =      2.2E-02 Ry/Bohr

     number of scf cycles    =   1
     number of bfgs steps    =   0

     energy             new  =    -333.1827041007 Ry

     new trust radius        =       0.0224428526 bohr
     new conv_thr            =       0.0000001000 Ry


ATOMIC_POSITIONS (angstrom)
Pb            0.0000000000        0.0000000000        0.0064155289
Ti            1.9400000000        1.9400000000        2.0367637539
O             0.0000000000        1.9400000000        1.9401179373
O             1.9400000000        0.0000000000        1.9401179373
O             1.9400000000        1.9400000000        0.0052248425



     Writing config-only to output data dir /home/gridsan/epan1/labutil/lab3_samples/problem2/Lab3/PbTiO3_a_3.88_ecut_30_nk_4_displ_0.028/pwscf.save/
     NEW-OLD atomic charge density approx. for the potential

     total cpu time spent up to now is        4.3 secs

     Self-consistent Calculation

     iteration #  1     ecut=    30.00 Ry     beta= 0.70
     Davidson diagonalization with overlap
     ethr =  1.00E-06,  avg # of iterations =  7.5

     total cpu time spent up to now is        4.6 secs

     total energy              =    -333.18329835 Ry
     estimated scf accuracy    <       0.00015266 Ry

     iteration #  2     ecut=    30.00 Ry     beta= 0.70
     Davidson diagonalization with overlap
     ethr =  3.47E-07,  avg # of iterations =  4.5

     total cpu time spent up to now is        4.8 secs

     total energy              =    -333.18331312 Ry
     estimated scf accuracy    <       0.00011389 Ry

     iteration #  3     ecut=    30.00 Ry     beta= 0.70
     Davidson diagonalization with overlap
     ethr =  2.59E-07,  avg # of iterations =  4.3

     total cpu time spent up to now is        5.0 secs

     total energy              =    -333.18334077 Ry
     estimated scf accuracy    <       0.00003716 Ry

     iteration #  4     ecut=    30.00 Ry     beta= 0.70
     Davidson diagonalization with overlap
     ethr =  8.45E-08,  avg # of iterations =  4.0

     total cpu time spent up to now is        5.2 secs

     total energy              =    -333.18334634 Ry
     estimated scf accuracy    <       0.00000102 Ry

     iteration #  5     ecut=    30.00 Ry     beta= 0.70
     Davidson diagonalization with overlap
     ethr =  2.32E-09,  avg # of iterations =  6.3

     total cpu time spent up to now is        5.4 secs

     total energy              =    -333.18334748 Ry
     estimated scf accuracy    <       0.00000140 Ry

     iteration #  6     ecut=    30.00 Ry     beta= 0.70
     Davidson diagonalization with overlap
     ethr =  2.32E-09,  avg # of iterations =  2.7

     total cpu time spent up to now is        5.5 secs

     total energy              =    -333.18334739 Ry
     estimated scf accuracy    <       0.00000055 Ry

     iteration #  7     ecut=    30.00 Ry     beta= 0.70
     Davidson diagonalization with overlap
     ethr =  1.25E-09,  avg # of iterations =  4.5

     total cpu time spent up to now is        5.7 secs

     End of self-consistent calculation

          k = 0.1250 0.1250 0.1250 (  1096 PWs)   bands (ev):

   -44.6882 -21.3247 -21.2913 -21.2905  -6.3697  -5.3174  -5.2795  -4.0334
    -4.0298  -4.0173  -3.8502  -3.8459   4.5960   7.2545   7.2733   8.0268
     9.0329   9.0816   9.7619   9.8201   9.9631  10.1075

          k = 0.1250 0.1250 0.3750 (  1095 PWs)   bands (ev):

   -44.6869 -21.3817 -21.2890 -21.2880  -5.9455  -5.1622  -5.1569  -4.0934
    -4.0286  -4.0131  -3.9438  -3.8209   3.8528   6.7846   7.2416   7.8072
     8.4291   8.6448   9.3586   9.8758  10.0983  10.8336

          k = 0.1250 0.3750 0.3750 (  1093 PWs)   bands (ev):

   -44.6857 -21.3784 -21.3440 -21.2866  -5.7326  -5.0711  -4.9870  -4.0671
    -4.0230  -3.9695  -3.8800  -3.7229   3.4998   6.6853   6.8764   7.1519
     7.4618   8.6484   9.3689   9.4538   9.9868  10.6531

          k = 0.3750 0.3750 0.3750 (  1082 PWs)   bands (ev):

   -44.6844 -21.3757 -21.3415 -21.3412  -5.3579  -5.1952  -5.1676  -3.9805
    -3.9758  -3.6905  -3.6264  -3.6140   4.1216   5.8936   5.9255   6.6573
     7.0261   7.0493   7.9326  10.5988  10.6363  10.7066

          k = 0.3750-0.1250 0.1250 (  1095 PWs)   bands (ev):

   -44.6869 -21.3474 -21.3223 -21.2885  -5.9714  -5.1888  -5.1168  -4.0914
    -4.0260  -4.0142  -3.9486  -3.8171   3.8687   6.8210   7.3145   7.8056
     8.3964   8.7294   9.2907   9.8827  10.0148  10.7942

          k = 0.3750-0.3750 0.1250 (  1093 PWs)   bands (ev):

   -44.6857 -21.3446 -21.3437 -21.3203  -5.7820  -5.0417  -4.9690  -4.0629
    -4.0218  -3.9649  -3.8781  -3.7398   3.5138   6.7810   6.8271   7.1356
     7.4403   8.6281   9.4233   9.4468   9.9711  10.7012

     highest occupied level (ev):    10.8336

!    total energy              =    -333.18334752 Ry
     estimated scf accuracy    <       0.00000003 Ry

     The total energy is the sum of the following terms:
     one-electron contribution =     -77.14877637 Ry
     hartree contribution      =      66.46370787 Ry
     xc contribution           =     -49.64157640 Ry
     ewald contribution        =    -272.85670262 Ry

     convergence has been achieved in   7 iterations

     Forces acting on atoms (cartesian axes, Ry/au):

     atom    1 type  2   force =     0.00000000    0.00000000    0.01067749
     atom    2 type  3   force =     0.00000000    0.00000000   -0.01669249
     atom    3 type  1   force =     0.00000000    0.00000000    0.00068592
     atom    4 type  1   force =     0.00000000    0.00000000    0.00068592
     atom    5 type  1   force =     0.00000000    0.00000000    0.00464315
     The non-local contrib.  to forces
     atom    1 type  2   force =     0.00000000    0.00000000   -0.00082641
     atom    2 type  3   force =     0.00000000    0.00000000    0.00990959
     atom    3 type  1   force =     0.00000000    0.00000000    0.04974830
     atom    4 type  1   force =     0.00000000    0.00000000    0.04974830
     atom    5 type  1   force =     0.00000000    0.00000000   -0.17761079
     The ionic contribution  to forces
     atom    1 type  2   force =     0.00000000    0.00000000    0.52549326
     atom    2 type  3   force =     0.00000000    0.00000000   -1.34242593
     atom    3 type  1   force =     0.00000000   -0.00000000   -0.66168468
     atom    4 type  1   force =    -0.00000000    0.00000000   -0.66168468
     atom    5 type  1   force =    -0.00000000   -0.00000000    2.14030203
     The local contribution  to forces
     atom    1 type  2   force =     0.00000000    0.00000000   -0.51408758
     atom    2 type  3   force =    -0.00000000   -0.00000000    1.31605626
     atom    3 type  1   force =     0.00000000   -0.00000000    0.61266210
     atom    4 type  1   force =    -0.00000000    0.00000000    0.61266210
     atom    5 type  1   force =    -0.00000000   -0.00000000   -1.95806682
     The core correction contribution to forces
     atom    1 type  2   force =     0.00000000    0.00000000    0.00000000
     atom    2 type  3   force =     0.00000000    0.00000000    0.00000000
     atom    3 type  1   force =     0.00000000    0.00000000    0.00000000
     atom    4 type  1   force =     0.00000000    0.00000000    0.00000000
     atom    5 type  1   force =     0.00000000    0.00000000    0.00000000
     The Hubbard contrib.    to forces
     atom    1 type  2   force =     0.00000000    0.00000000    0.00000000
     atom    2 type  3   force =     0.00000000    0.00000000    0.00000000
     atom    3 type  1   force =     0.00000000    0.00000000    0.00000000
     atom    4 type  1   force =     0.00000000    0.00000000    0.00000000
     atom    5 type  1   force =     0.00000000    0.00000000    0.00000000
     The SCF correction term to forces
     atom    1 type  2   force =    -0.00000000    0.00000000    0.00010500
     atom    2 type  3   force =    -0.00000000   -0.00000000   -0.00022563
     atom    3 type  1   force =    -0.00000000    0.00000000   -0.00003302
     atom    4 type  1   force =    -0.00000000    0.00000000   -0.00003302
     atom    5 type  1   force =    -0.00000000    0.00000000    0.00002552

     Total force =     0.020375     Total SCF correction =     0.000254


     Computing stress (Cartesian axis) and pressure

          total   stress  (Ry/bohr**3)                   (kbar)     P=      -18.15
  -0.00015185   0.00000000   0.00000000          -22.34        0.00        0.00
   0.00000000  -0.00015185   0.00000000            0.00      -22.34        0.00
   0.00000000   0.00000000  -0.00006645            0.00        0.00       -9.78

     Energy error            =      6.4E-04 Ry
     Gradient error          =      1.7E-02 Ry/Bohr

     number of scf cycles    =   2
     number of bfgs steps    =   1

     energy             old  =    -333.1827041007 Ry
     energy             new  =    -333.1833475245 Ry

     CASE: energy            _new < energy            _old

     new trust radius        =       0.0246871378 bohr
     new conv_thr            =       0.0000000064 Ry


ATOMIC_POSITIONS (angstrom)
Pb            0.0000000000        0.0000000000        0.0146851898
Ti            1.9400000000        1.9400000000        2.0236998831
O             0.0000000000        1.9400000000        1.9406275743
O             1.9400000000        0.0000000000        1.9406275743
O             1.9400000000        1.9400000000        0.0089997785



     Writing config-only to output data dir /home/gridsan/epan1/labutil/lab3_samples/problem2/Lab3/PbTiO3_a_3.88_ecut_30_nk_4_displ_0.028/pwscf.save/
     NEW-OLD atomic charge density approx. for the potential

     total cpu time spent up to now is        6.4 secs

     Self-consistent Calculation

     iteration #  1     ecut=    30.00 Ry     beta= 0.70
     Davidson diagonalization with overlap
     ethr =  1.00E-06,  avg # of iterations =  8.0

     total cpu time spent up to now is        6.7 secs

     total energy              =    -333.18382961 Ry
     estimated scf accuracy    <       0.00013326 Ry

     iteration #  2     ecut=    30.00 Ry     beta= 0.70
     Davidson diagonalization with overlap
     ethr =  3.03E-07,  avg # of iterations =  4.5

     total cpu time spent up to now is        6.9 secs

     total energy              =    -333.18385143 Ry
     estimated scf accuracy    <       0.00004856 Ry

     iteration #  3     ecut=    30.00 Ry     beta= 0.70
     Davidson diagonalization with overlap
     ethr =  1.10E-07,  avg # of iterations =  4.7

     total cpu time spent up to now is        7.1 secs

     total energy              =    -333.18386266 Ry
     estimated scf accuracy    <       0.00002525 Ry

     iteration #  4     ecut=    30.00 Ry     beta= 0.70
     Davidson diagonalization with overlap
     ethr =  5.74E-08,  avg # of iterations =  4.2

     total cpu time spent up to now is        7.3 secs

     total energy              =    -333.18386752 Ry
     estimated scf accuracy    <       0.00000053 Ry

     iteration #  5     ecut=    30.00 Ry     beta= 0.70
     Davidson diagonalization with overlap
     ethr =  1.20E-09,  avg # of iterations =  6.2

     total cpu time spent up to now is        7.5 secs

     total energy              =    -333.18386788 Ry
     estimated scf accuracy    <       0.00000053 Ry

     iteration #  6     ecut=    30.00 Ry     beta= 0.70
     Davidson diagonalization with overlap
     ethr =  1.20E-09,  avg # of iterations =  3.3

     total cpu time spent up to now is        7.7 secs

     total energy              =    -333.18386792 Ry
     estimated scf accuracy    <       0.00000009 Ry

     iteration #  7     ecut=    30.00 Ry     beta= 0.70
     Davidson diagonalization with overlap
     ethr =  1.98E-10,  avg # of iterations =  4.8

     total cpu time spent up to now is        7.9 secs

     total energy              =    -333.18386796 Ry
     estimated scf accuracy    <       0.00000003 Ry

     iteration #  8     ecut=    30.00 Ry     beta= 0.70
     Davidson diagonalization with overlap
     ethr =  7.58E-11,  avg # of iterations =  1.5

     total cpu time spent up to now is        8.0 secs

     total energy              =    -333.18386796 Ry
     estimated scf accuracy    <       0.00000002 Ry

     iteration #  9     ecut=    30.00 Ry     beta= 0.70
     Davidson diagonalization with overlap
     ethr =  3.81E-11,  avg # of iterations =  4.2

     total cpu time spent up to now is        8.2 secs

     End of self-consistent calculation

          k = 0.1250 0.1250 0.1250 (  1096 PWs)   bands (ev):

   -44.7054 -21.3307 -21.3087 -21.3079  -6.3704  -5.3123  -5.2862  -4.0287
    -4.0265  -4.0136  -3.8465  -3.8434   4.6004   7.2569   7.2701   8.0269
     9.0548   9.0889   9.7986   9.8281   9.9516  10.1028

          k = 0.1250 0.1250 0.3750 (  1095 PWs)   bands (ev):

   -44.7041 -21.3876 -21.3064 -21.3055  -5.9515  -5.1646  -5.1523  -4.0891
    -4.0239  -4.0097  -3.9414  -3.8168   3.8616   6.7873   7.2578   7.8057
     8.4250   8.6638   9.3536   9.8834  10.0886  10.8272

          k = 0.1250 0.3750 0.3750 (  1093 PWs)   bands (ev):

   -44.7029 -21.3843 -21.3614 -21.3040  -5.7380  -5.0643  -4.9882  -4.0627
    -4.0189  -3.9654  -3.8763  -3.7215   3.5054   6.7007   6.8615   7.1516
     7.4597   8.6414   9.3843   9.4471   9.9881  10.6618

          k = 0.3750 0.3750 0.3750 (  1082 PWs)   bands (ev):

   -44.7016 -21.3816 -21.3589 -21.3586  -5.3554  -5.1910  -5.1717  -3.9759
    -3.9728  -3.6864  -3.6216  -3.6130   4.1259   5.9016   5.9236   6.6589
     7.0152   7.0318   7.9335  10.6109  10.6392  10.7065

          k = 0.3750-0.1250 0.1250 (  1095 PWs)   bands (ev):

   -44.7041 -21.3648 -21.3283 -21.3059  -5.9693  -5.1865  -5.1216  -4.0878
    -4.0222  -4.0104  -3.9447  -3.8141   3.8732   6.8132   7.3114   7.8060
     8.3980   8.7234   9.3067   9.8897  10.0293  10.7996

          k = 0.3750-0.3750 0.1250 (  1093 PWs)   bands (ev):

   -44.7029 -21.3619 -21.3610 -21.3263  -5.7723  -5.0458  -4.9744  -4.0600
    -4.0181  -3.9622  -3.8748  -3.7332   3.5149   6.7764   6.8187   7.1417
     7.4484   8.6275   9.4190   9.4436   9.9756  10.6954

     highest occupied level (ev):    10.8272

!    total energy              =    -333.18386796 Ry
     estimated scf accuracy    <          2.6E-10 Ry

     The total energy is the sum of the following terms:
     one-electron contribution =     -77.05505512 Ry
     hartree contribution      =      66.41404156 Ry
     xc contribution           =     -49.63829461 Ry
     ewald contribution        =    -272.90455979 Ry

     convergence has been achieved in   9 iterations

     Forces acting on atoms (cartesian axes, Ry/au):

     atom    1 type  2   force =     0.00000000    0.00000000    0.00879512
     atom    2 type  3   force =     0.00000000    0.00000000   -0.01154303
     atom    3 type  1   force =     0.00000000    0.00000000    0.00083394
     atom    4 type  1   force =     0.00000000    0.00000000    0.00083394
     atom    5 type  1   force =     0.00000000    0.00000000    0.00108003
     The non-local contrib.  to forces
     atom    1 type  2   force =     0.00000000    0.00000000    0.00602680
     atom    2 type  3   force =     0.00000000    0.00000000    0.00741747
     atom    3 type  1   force =     0.00000000    0.00000000    0.03808361
     atom    4 type  1   force =     0.00000000    0.00000000    0.03808361
     atom    5 type  1   force =     0.00000000    0.00000000   -0.14683495
     The ionic contribution  to forces
     atom    1 type  2   force =     0.00000000    0.00000000    0.29232520
     atom    2 type  3   force =    -0.00000000   -0.00000000   -0.99747286
     atom    3 type  1   force =     0.00000000    0.00000000   -0.49862843
     atom    4 type  1   force =     0.00000000    0.00000000   -0.49862843
     atom    5 type  1   force =    -0.00000000   -0.00000000    1.70240451
     The local contribution  to forces
     atom    1 type  2   force =    -0.00000000   -0.00000000   -0.28956736
     atom    2 type  3   force =    -0.00000000   -0.00000000    0.97850127
     atom    3 type  1   force =     0.00000000   -0.00000000    0.46137370
     atom    4 type  1   force =    -0.00000000    0.00000000    0.46137370
     atom    5 type  1   force =    -0.00000000   -0.00000000   -1.55449281
     The core correction contribution to forces
     atom    1 type  2   force =     0.00000000    0.00000000    0.00000000
     atom    2 type  3   force =     0.00000000    0.00000000    0.00000000
     atom    3 type  1   force =     0.00000000    0.00000000    0.00000000
     atom    4 type  1   force =     0.00000000    0.00000000    0.00000000
     atom    5 type  1   force =     0.00000000    0.00000000    0.00000000
     The Hubbard contrib.    to forces
     atom    1 type  2   force =     0.00000000    0.00000000    0.00000000
     atom    2 type  3   force =     0.00000000    0.00000000    0.00000000
     atom    3 type  1   force =     0.00000000    0.00000000    0.00000000
     atom    4 type  1   force =     0.00000000    0.00000000    0.00000000
     atom    5 type  1   force =     0.00000000    0.00000000    0.00000000
     The SCF correction term to forces
     atom    1 type  2   force =     0.00000000    0.00000000    0.00000657
     atom    2 type  3   force =    -0.00000000    0.00000000    0.00000720
     atom    3 type  1   force =     0.00000000   -0.00000000    0.00000114
     atom    4 type  1   force =    -0.00000000   -0.00000000    0.00000114
     atom    5 type  1   force =     0.00000000    0.00000000   -0.00000063

     Total force =     0.014600     Total SCF correction =     0.000010


     Computing stress (Cartesian axis) and pressure

          total   stress  (Ry/bohr**3)                   (kbar)     P=      -19.86
  -0.00015402   0.00000000   0.00000000          -22.66        0.00        0.00
   0.00000000  -0.00015402   0.00000000            0.00      -22.66        0.00
   0.00000000   0.00000000  -0.00009696            0.00        0.00      -14.26

     Energy error            =      5.2E-04 Ry
     Gradient error          =      1.2E-02 Ry/Bohr

     number of scf cycles    =   3
     number of bfgs steps    =   2

     energy             old  =    -333.1833475245 Ry
     energy             new  =    -333.1838679603 Ry

     CASE: energy            _new < energy            _old

     new trust radius        =       0.0370307067 bohr
     new conv_thr            =       0.0000000052 Ry


ATOMIC_POSITIONS (angstrom)
Pb            0.0000000000        0.0000000000        0.0285287246
Ti            1.9400000000        1.9400000000        2.0041040770
O             0.0000000000        1.9400000000        1.9417529994
O             1.9400000000        0.0000000000        1.9417529994
O             1.9400000000        1.9400000000        0.0125011996



     Writing config-only to output data dir /home/gridsan/epan1/labutil/lab3_samples/problem2/Lab3/PbTiO3_a_3.88_ecut_30_nk_4_displ_0.028/pwscf.save/
     NEW-OLD atomic charge density approx. for the potential

     total cpu time spent up to now is        8.8 secs

     Self-consistent Calculation

     iteration #  1     ecut=    30.00 Ry     beta= 0.70
     Davidson diagonalization with overlap
     ethr =  1.00E-06,  avg # of iterations =  9.5

     total cpu time spent up to now is        9.1 secs

     total energy              =    -333.18430553 Ry
     estimated scf accuracy    <       0.00024364 Ry

     iteration #  2     ecut=    30.00 Ry     beta= 0.70
     Davidson diagonalization with overlap
     ethr =  5.54E-07,  avg # of iterations =  4.0

     total cpu time spent up to now is        9.3 secs

     total energy              =    -333.18434515 Ry
     estimated scf accuracy    <       0.00007588 Ry

     iteration #  3     ecut=    30.00 Ry     beta= 0.70
     Davidson diagonalization with overlap
     ethr =  1.72E-07,  avg # of iterations =  4.7

     total cpu time spent up to now is        9.5 secs

     total energy              =    -333.18436060 Ry
     estimated scf accuracy    <       0.00004537 Ry

     iteration #  4     ecut=    30.00 Ry     beta= 0.70
     Davidson diagonalization with overlap
     ethr =  1.03E-07,  avg # of iterations =  4.0

     total cpu time spent up to now is        9.7 secs

     total energy              =    -333.18436997 Ry
     estimated scf accuracy    <       0.00000150 Ry

     iteration #  5     ecut=    30.00 Ry     beta= 0.70
     Davidson diagonalization with overlap
     ethr =  3.40E-09,  avg # of iterations =  4.8

     total cpu time spent up to now is        9.9 secs

     total energy              =    -333.18437048 Ry
     estimated scf accuracy    <       0.00000063 Ry

     iteration #  6     ecut=    30.00 Ry     beta= 0.70
     Davidson diagonalization with overlap
     ethr =  1.43E-09,  avg # of iterations =  4.5

     total cpu time spent up to now is       10.1 secs

     total energy              =    -333.18437062 Ry
     estimated scf accuracy    <       0.00000010 Ry

     iteration #  7     ecut=    30.00 Ry     beta= 0.70
     Davidson diagonalization with overlap
     ethr =  2.20E-10,  avg # of iterations =  3.8

     total cpu time spent up to now is       10.3 secs

     total energy              =    -333.18437064 Ry
     estimated scf accuracy    <       0.00000004 Ry

     iteration #  8     ecut=    30.00 Ry     beta= 0.70
     Davidson diagonalization with overlap
     ethr =  7.97E-11,  avg # of iterations =  2.5

     total cpu time spent up to now is       10.5 secs

     total energy              =    -333.18437064 Ry
     estimated scf accuracy    <       0.00000001 Ry

     iteration #  9     ecut=    30.00 Ry     beta= 0.70
     Davidson diagonalization with overlap
     ethr =  3.31E-11,  avg # of iterations =  4.8

     total cpu time spent up to now is       10.6 secs

     End of self-consistent calculation

          k = 0.1250 0.1250 0.1250 (  1096 PWs)   bands (ev):

   -44.7227 -21.3367 -21.3263 -21.3256  -6.3716  -5.3068  -5.2948  -4.0239
    -4.0230  -4.0097  -3.8426  -3.8403   4.6051   7.2593   7.2670   8.0276
     9.0787   9.0953   9.8382   9.8454   9.9374  10.0918

          k = 0.1250 0.1250 0.3750 (  1095 PWs)   bands (ev):

   -44.7214 -21.3933 -21.3241 -21.3232  -5.9590  -5.1745  -5.1409  -4.0844
    -4.0189  -4.0060  -3.9385  -3.8124   3.8714   6.7910   7.2767   7.8043
     8.4188   8.6844   9.3470   9.8925  10.0766  10.8193

          k = 0.1250 0.3750 0.3750 (  1093 PWs)   bands (ev):

   -44.7202 -21.3900 -21.3791 -21.3217  -5.7451  -5.0587  -4.9881  -4.0581
    -4.0146  -3.9609  -3.8722  -3.7198   3.5112   6.7208   6.8415   7.1502
     7.4576   8.6330   9.3992   9.4401   9.9889  10.6717

          k = 0.3750 0.3750 0.3750 (  1082 PWs)   bands (ev):

   -44.7189 -21.3874 -21.3766 -21.3763  -5.3537  -5.1858  -5.1770  -3.9709
    -3.9695  -3.6821  -3.6159  -3.6117   4.1295   5.9100   5.9204   6.6615
     7.0021   7.0109   7.9350  10.6241  10.6390  10.7086

          k = 0.3750-0.1250 0.1250 (  1095 PWs)   bands (ev):

   -44.7214 -21.3825 -21.3343 -21.3236  -5.9674  -5.1846  -5.1277  -4.0839
    -4.0183  -4.0062  -3.9400  -3.8107   3.8777   6.8038   7.3070   7.8063
     8.3999   8.7151   9.3243   9.8969  10.0458  10.8056

          k = 0.3750-0.3750 0.1250 (  1093 PWs)   bands (ev):

   -44.7202 -21.3796 -21.3787 -21.3323  -5.7613  -5.0513  -4.9816  -4.0569
    -4.0140  -3.9588  -3.8709  -3.7258   3.5150   6.7709   6.8082   7.1468
     7.4559   8.6269   9.4132   9.4406   9.9817  10.6880

     highest occupied level (ev):    10.8193

!    total energy              =    -333.18437064 Ry
     estimated scf accuracy    <          2.5E-09 Ry

     The total energy is the sum of the following terms:
     one-electron contribution =     -76.97758563 Ry
     hartree contribution      =      66.37181193 Ry
     xc contribution           =     -49.63516484 Ry
     ewald contribution        =    -272.94343211 Ry

     convergence has been achieved in   9 iterations

     Forces acting on atoms (cartesian axes, Ry/au):

     atom    1 type  2   force =     0.00000000    0.00000000    0.00589930
     atom    2 type  3   force =     0.00000000    0.00000000   -0.00544847
     atom    3 type  1   force =     0.00000000    0.00000000    0.00064509
     atom    4 type  1   force =     0.00000000    0.00000000    0.00064509
     atom    5 type  1   force =     0.00000000    0.00000000   -0.00174100
     The non-local contrib.  to forces
     atom    1 type  2   force =     0.00000000    0.00000000    0.01720850
     atom    2 type  3   force =     0.00000000    0.00000000    0.00413179
     atom    3 type  1   force =     0.00000000    0.00000000    0.01890619
     atom    4 type  1   force =     0.00000000    0.00000000    0.01890619
     atom    5 type  1   force =     0.00000000    0.00000000   -0.10190238
     The ionic contribution  to forces
     atom    1 type  2   force =     0.00000000    0.00000000   -0.06978122
     atom    2 type  3   force =     0.00000000    0.00000000   -0.53035153
     atom    3 type  1   force =     0.00000000   -0.00000000   -0.25064219
     atom    4 type  1   force =    -0.00000000    0.00000000   -0.25064219
     atom    5 type  1   force =     0.00000000    0.00000000    1.10141712
     The local contribution  to forces
     atom    1 type  2   force =     0.00000000   -0.00000000    0.05846124
     atom    2 type  3   force =    -0.00000000   -0.00000000    0.52074945
     atom    3 type  1   force =     0.00000000   -0.00000000    0.23237536
     atom    4 type  1   force =    -0.00000000    0.00000000    0.23237536
     atom    5 type  1   force =    -0.00000000   -0.00000000   -1.00126255
     The core correction contribution to forces
     atom    1 type  2   force =     0.00000000    0.00000000    0.00000000
     atom    2 type  3   force =     0.00000000    0.00000000    0.00000000
     atom    3 type  1   force =     0.00000000    0.00000000    0.00000000
     atom    4 type  1   force =     0.00000000    0.00000000    0.00000000
     atom    5 type  1   force =     0.00000000    0.00000000    0.00000000
     The Hubbard contrib.    to forces
     atom    1 type  2   force =     0.00000000    0.00000000    0.00000000
     atom    2 type  3   force =     0.00000000    0.00000000    0.00000000
     atom    3 type  1   force =     0.00000000    0.00000000    0.00000000
     atom    4 type  1   force =     0.00000000    0.00000000    0.00000000
     atom    5 type  1   force =     0.00000000    0.00000000    0.00000000
     The SCF correction term to forces
     atom    1 type  2   force =     0.00000000   -0.00000000    0.00000432
     atom    2 type  3   force =    -0.00000000   -0.00000000    0.00001535
     atom    3 type  1   force =     0.00000000   -0.00000000   -0.00000074
     atom    4 type  1   force =    -0.00000000    0.00000000   -0.00000074
     atom    5 type  1   force =     0.00000000   -0.00000000    0.00000034

     Total force =     0.008267     Total SCF correction =     0.000016


     Computing stress (Cartesian axis) and pressure

          total   stress  (Ry/bohr**3)                   (kbar)     P=      -21.79
  -0.00015755   0.00000000   0.00000000          -23.18        0.00        0.00
   0.00000000  -0.00015755   0.00000000            0.00      -23.18        0.00
   0.00000000   0.00000000  -0.00012921            0.00        0.00      -19.01

     Energy error            =      5.0E-04 Ry
     Gradient error          =      5.9E-03 Ry/Bohr

     number of scf cycles    =   4
     number of bfgs steps    =   3

     energy             old  =    -333.1838679603 Ry
     energy             new  =    -333.1843706422 Ry

     CASE: energy            _new < energy            _old

     new trust radius        =       0.0403036818 bohr
     new conv_thr            =       0.0000000050 Ry


ATOMIC_POSITIONS (angstrom)
Pb            0.0000000000        0.0000000000        0.0453279713
Ti            1.9400000000        1.9400000000        1.9827762871
O             0.0000000000        1.9400000000        1.9431996678
O             1.9400000000        0.0000000000        1.9431996678
O             1.9400000000        1.9400000000        0.0141364061



     Writing config-only to output data dir /home/gridsan/epan1/labutil/lab3_samples/problem2/Lab3/PbTiO3_a_3.88_ecut_30_nk_4_displ_0.028/pwscf.save/
     NEW-OLD atomic charge density approx. for the potential

     total cpu time spent up to now is       11.3 secs

     Self-consistent Calculation

     iteration #  1     ecut=    30.00 Ry     beta= 0.70
     Davidson diagonalization with overlap
     ethr =  1.00E-06,  avg # of iterations =  9.5

     total cpu time spent up to now is       11.6 secs

     total energy              =    -333.18455237 Ry
     estimated scf accuracy    <       0.00022697 Ry

     iteration #  2     ecut=    30.00 Ry     beta= 0.70
     Davidson diagonalization with overlap
     ethr =  5.16E-07,  avg # of iterations =  2.3

     total cpu time spent up to now is       11.8 secs

     total energy              =    -333.18460235 Ry
     estimated scf accuracy    <       0.00002648 Ry

     iteration #  3     ecut=    30.00 Ry     beta= 0.70
     Davidson diagonalization with overlap
     ethr =  6.02E-08,  avg # of iterations =  4.2

     total cpu time spent up to now is       12.0 secs

     total energy              =    -333.18460799 Ry
     estimated scf accuracy    <       0.00000374 Ry

     iteration #  4     ecut=    30.00 Ry     beta= 0.70
     Davidson diagonalization with overlap
     ethr =  8.51E-09,  avg # of iterations =  4.7

     total cpu time spent up to now is       12.2 secs

     total energy              =    -333.18460892 Ry
     estimated scf accuracy    <       0.00000214 Ry

     iteration #  5     ecut=    30.00 Ry     beta= 0.70
     Davidson diagonalization with overlap
     ethr =  4.85E-09,  avg # of iterations =  3.8

     total cpu time spent up to now is       12.3 secs

     total energy              =    -333.18460937 Ry
     estimated scf accuracy    <       0.00000013 Ry

     iteration #  6     ecut=    30.00 Ry     beta= 0.70
     Davidson diagonalization with overlap
     ethr =  3.04E-10,  avg # of iterations =  5.0

     total cpu time spent up to now is       12.5 secs

     total energy              =    -333.18460940 Ry
     estimated scf accuracy    <       0.00000013 Ry

     iteration #  7     ecut=    30.00 Ry     beta= 0.70
     Davidson diagonalization with overlap
     ethr =  3.01E-10,  avg # of iterations =  4.2

     total cpu time spent up to now is       12.7 secs

     End of self-consistent calculation

          k = 0.1250 0.1250 0.1250 (  1096 PWs)   bands (ev):

   -44.7343 -21.3411 -21.3382 -21.3376  -6.3736  -5.3033  -5.3031  -4.0204
    -4.0203  -4.0065  -3.8398  -3.8373   4.6081   7.2603   7.2648   8.0287
     9.0939   9.0979   9.8457   9.8846   9.9255  10.0762

          k = 0.1250 0.1250 0.3750 (  1095 PWs)   bands (ev):

   -44.7330 -21.3975 -21.3362 -21.3352  -5.9661  -5.1839  -5.1330  -4.0805
    -4.0153  -4.0031  -3.9354  -3.8091   3.8788   6.7938   7.2905   7.8024
     8.4115   8.6978   9.3407   9.8989  10.0662  10.8132

          k = 0.1250 0.3750 0.3750 (  1093 PWs)   bands (ev):

   -44.7318 -21.3943 -21.3911 -21.3337  -5.7517  -5.0575  -4.9875  -4.0545
    -4.0114  -3.9573  -3.8688  -3.7178   3.5152   6.7389   6.8220   7.1475
     7.4555   8.6258   9.4043   9.4374   9.9897  10.6782

          k = 0.3750 0.3750 0.3750 (  1082 PWs)   bands (ev):

   -44.7305 -21.3916 -21.3886 -21.3884  -5.3539  -5.1824  -5.1821  -3.9672
    -3.9669  -3.6791  -3.6116  -3.6101   4.1296   5.9153   5.9164   6.6633
     6.9918   6.9943   7.9385  10.6326  10.6354  10.7107

          k = 0.3750-0.1250 0.1250 (  1095 PWs)   bands (ev):

   -44.7330 -21.3945 -21.3387 -21.3356  -5.9670  -5.1850  -5.1334  -4.0811
    -4.0153  -4.0029  -3.9356  -3.8077   3.8800   6.7959   7.3027   7.8059
     8.4009   8.7075   9.3352   9.9005  10.0571  10.8095

          k = 0.3750-0.3750 0.1250 (  1093 PWs)   bands (ev):

   -44.7318 -21.3917 -21.3908 -21.3366  -5.7536  -5.0573  -4.9890  -4.0545
    -4.0104  -3.9551  -3.8671  -3.7206   3.5131   6.7659   6.7994   7.1485
     7.4588   8.6265   9.4081   9.4389   9.9872  10.6810

     highest occupied level (ev):    10.8132

!    total energy              =    -333.18460942 Ry
     estimated scf accuracy    <          2.5E-09 Ry

     The total energy is the sum of the following terms:
     one-electron contribution =     -76.96523728 Ry
     hartree contribution      =      66.36294843 Ry
     xc contribution           =     -49.63374722 Ry
     ewald contribution        =    -272.94857336 Ry

     convergence has been achieved in   7 iterations

     Forces acting on atoms (cartesian axes, Ry/au):

     atom    1 type  2   force =     0.00000000    0.00000000    0.00257476
     atom    2 type  3   force =     0.00000000    0.00000000   -0.00009048
     atom    3 type  1   force =     0.00000000    0.00000000    0.00003187
     atom    4 type  1   force =     0.00000000    0.00000000    0.00003187
     atom    5 type  1   force =     0.00000000    0.00000000   -0.00254803
     The non-local contrib.  to forces
     atom    1 type  2   force =     0.00000000    0.00000000    0.03054958
     atom    2 type  3   force =     0.00000000    0.00000000    0.00087943
     atom    3 type  1   force =     0.00000000    0.00000000   -0.00384698
     atom    4 type  1   force =     0.00000000    0.00000000   -0.00384698
     atom    5 type  1   force =     0.00000000    0.00000000   -0.05439491
     The ionic contribution  to forces
     atom    1 type  2   force =     0.00000000    0.00000000   -0.48280596
     atom    2 type  3   force =    -0.00000000   -0.00000000   -0.06820694
     atom    3 type  1   force =     0.00000000   -0.00000000    0.02498244
     atom    4 type  1   force =    -0.00000000    0.00000000    0.02498244
     atom    5 type  1   force =    -0.00000000   -0.00000000    0.50104803
     The local contribution  to forces
     atom    1 type  2   force =    -0.00000000   -0.00000000    0.45478282
     atom    2 type  3   force =    -0.00000000   -0.00000000    0.06733934
     atom    3 type  1   force =     0.00000000   -0.00000000   -0.02109229
     atom    4 type  1   force =    -0.00000000    0.00000000   -0.02109229
     atom    5 type  1   force =    -0.00000000   -0.00000000   -0.44922925
     The core correction contribution to forces
     atom    1 type  2   force =     0.00000000    0.00000000    0.00000000
     atom    2 type  3   force =     0.00000000    0.00000000    0.00000000
     atom    3 type  1   force =     0.00000000    0.00000000    0.00000000
     atom    4 type  1   force =     0.00000000    0.00000000    0.00000000
     atom    5 type  1   force =     0.00000000    0.00000000    0.00000000
     The Hubbard contrib.    to forces
     atom    1 type  2   force =     0.00000000    0.00000000    0.00000000
     atom    2 type  3   force =     0.00000000    0.00000000    0.00000000
     atom    3 type  1   force =     0.00000000    0.00000000    0.00000000
     atom    4 type  1   force =     0.00000000    0.00000000    0.00000000
     atom    5 type  1   force =     0.00000000    0.00000000    0.00000000
     The SCF correction term to forces
     atom    1 type  2   force =     0.00000000    0.00000000    0.00004104
     atom    2 type  3   force =    -0.00000000   -0.00000000   -0.00010960
     atom    3 type  1   force =    -0.00000000    0.00000000   -0.00001859
     atom    4 type  1   force =    -0.00000000   -0.00000000   -0.00001859
     atom    5 type  1   force =    -0.00000000    0.00000000    0.00002081

     Total force =     0.003624     Total SCF correction =     0.000122


     Computing stress (Cartesian axis) and pressure

          total   stress  (Ry/bohr**3)                   (kbar)     P=      -22.79
  -0.00015813   0.00000000   0.00000000          -23.26        0.00        0.00
   0.00000000  -0.00015813   0.00000000            0.00      -23.26        0.00
   0.00000000   0.00000000  -0.00014850            0.00        0.00      -21.85

     Energy error            =      2.4E-04 Ry
     Gradient error          =      2.6E-03 Ry/Bohr

     number of scf cycles    =   5
     number of bfgs steps    =   4

     energy             old  =    -333.1843706422 Ry
     energy             new  =    -333.1846094189 Ry

     CASE: energy            _new < energy            _old

     new trust radius        =       0.0094463815 bohr
     new conv_thr            =       0.0000000024 Ry


ATOMIC_POSITIONS (angstrom)
Pb            0.0000000000        0.0000000000        0.0503267811
Ti            1.9400000000        1.9400000000        1.9781323553
O             0.0000000000        1.9400000000        1.9434705256
O             1.9400000000        0.0000000000        1.9434705256
O             1.9400000000        1.9400000000        0.0132398125



     Writing config-only to output data dir /home/gridsan/epan1/labutil/lab3_samples/problem2/Lab3/PbTiO3_a_3.88_ecut_30_nk_4_displ_0.028/pwscf.save/
     NEW-OLD atomic charge density approx. for the potential

     total cpu time spent up to now is       13.3 secs

     Self-consistent Calculation

     iteration #  1     ecut=    30.00 Ry     beta= 0.70
     Davidson diagonalization with overlap
     ethr =  1.00E-06,  avg # of iterations =  6.2

     Threshold (ethr) on eigenvalues was too large:
     Diagonalizing with lowered threshold

     Davidson diagonalization with overlap
     ethr =  1.31E-08,  avg # of iterations =  5.8

     total cpu time spent up to now is       13.8 secs

     total energy              =    -333.18462959 Ry
     estimated scf accuracy    <       0.00000601 Ry

     iteration #  2     ecut=    30.00 Ry     beta= 0.70
     Davidson diagonalization with overlap
     ethr =  1.37E-08,  avg # of iterations =  2.0

     total cpu time spent up to now is       13.9 secs

     total energy              =    -333.18463077 Ry
     estimated scf accuracy    <       0.00000045 Ry

     iteration #  3     ecut=    30.00 Ry     beta= 0.70
     Davidson diagonalization with overlap
     ethr =  1.02E-09,  avg # of iterations =  2.8

     total cpu time spent up to now is       14.1 secs

     total energy              =    -333.18463086 Ry
     estimated scf accuracy    <       0.00000002 Ry

     iteration #  4     ecut=    30.00 Ry     beta= 0.70
     Davidson diagonalization with overlap
     ethr =  5.58E-11,  avg # of iterations =  5.0

     total cpu time spent up to now is       14.3 secs

     total energy              =    -333.18463087 Ry
     estimated scf accuracy    <          6.7E-09 Ry

     iteration #  5     ecut=    30.00 Ry     beta= 0.70
     Davidson diagonalization with overlap
     ethr =  1.53E-11,  avg # of iterations =  5.0

     total cpu time spent up to now is       14.5 secs

     total energy              =    -333.18463087 Ry
     estimated scf accuracy    <          4.6E-09 Ry

     iteration #  6     ecut=    30.00 Ry     beta= 0.70
     Davidson diagonalization with overlap
     ethr =  1.04E-11,  avg # of iterations =  3.5

     total cpu time spent up to now is       14.7 secs

     End of self-consistent calculation

          k = 0.1250 0.1250 0.1250 (  1096 PWs)   bands (ev):

   -44.7355 -21.3416 -21.3396 -21.3390  -6.3742  -5.3050  -5.3029  -4.0199
    -4.0198  -4.0060  -3.8393  -3.8365   4.6084   7.2603   7.2645   8.0292
     9.0956   9.0979   9.8466   9.8903   9.9232  10.0733

          k = 0.1250 0.1250 0.3750 (  1095 PWs)   bands (ev):

   -44.7343 -21.3979 -21.3376 -21.3366  -5.9677  -5.1861  -5.1317  -4.0798
    -4.0147  -4.0025  -3.9345  -3.8086   3.8799   6.7945   7.2926   7.8018
     8.4097   8.6994   9.3391   9.8997  10.0641  10.8123

          k = 0.1250 0.3750 0.3750 (  1093 PWs)   bands (ev):

   -44.7331 -21.3947 -21.3925 -21.3352  -5.7533  -5.0578  -4.9876  -4.0539
    -4.0108  -3.9566  -3.8681  -3.7172   3.5157   6.7415   6.8186   7.1467
     7.4550   8.6244   9.4036   9.4374   9.9901  10.6789

          k = 0.3750 0.3750 0.3750 (  1082 PWs)   bands (ev):

   -44.7318 -21.3920 -21.3900 -21.3898  -5.3543  -5.1838  -5.1816  -3.9666
    -3.9664  -3.6785  -3.6108  -3.6096   4.1288   5.9153   5.9160   6.6634
     6.9902   6.9915   7.9400  10.6336  10.6343  10.7108

          k = 0.3750-0.1250 0.1250 (  1095 PWs)   bands (ev):

   -44.7343 -21.3960 -21.3392 -21.3370  -5.9672  -5.1855  -5.1348  -4.0806
    -4.0147  -4.0023  -3.9345  -3.8071   3.8802   6.7944   7.3017   7.8058
     8.4009   8.7061   9.3362   9.9006  10.0584  10.8102

          k = 0.3750-0.3750 0.1250 (  1093 PWs)   bands (ev):

   -44.7331 -21.3931 -21.3922 -21.3371  -5.7523  -5.0589  -4.9909  -4.0540
    -4.0096  -3.9541  -3.8661  -3.7198   3.5122   6.7648   6.7979   7.1483
     7.4587   8.6266   9.4071   9.4387   9.9884  10.6793

     highest occupied level (ev):    10.8123

!    total energy              =    -333.18463087 Ry
     estimated scf accuracy    <          8.2E-11 Ry

     The total energy is the sum of the following terms:
     one-electron contribution =     -76.97546713 Ry
     hartree contribution      =      66.36760850 Ry
     xc contribution           =     -49.63372918 Ry
     ewald contribution        =    -272.94304307 Ry

     convergence has been achieved in   6 iterations

     Forces acting on atoms (cartesian axes, Ry/au):

     atom    1 type  2   force =     0.00000000    0.00000000    0.00172484
     atom    2 type  3   force =     0.00000000    0.00000000    0.00107775
     atom    3 type  1   force =     0.00000000    0.00000000   -0.00037632
     atom    4 type  1   force =     0.00000000    0.00000000   -0.00037632
     atom    5 type  1   force =     0.00000000    0.00000000   -0.00204997
     The non-local contrib.  to forces
     atom    1 type  2   force =     0.00000000    0.00000000    0.03450592
     atom    2 type  3   force =     0.00000000    0.00000000    0.00010212
     atom    3 type  1   force =     0.00000000    0.00000000   -0.01049489
     atom    4 type  1   force =     0.00000000    0.00000000   -0.01049489
     atom    5 type  1   force =     0.00000000    0.00000000   -0.04502709
     The ionic contribution  to forces
     atom    1 type  2   force =     0.00000000    0.00000000   -0.59142794
     atom    2 type  3   force =     0.00000000    0.00000000    0.01214749
     atom    3 type  1   force =     0.00000000   -0.00000000    0.09067340
     atom    4 type  1   force =    -0.00000000    0.00000000    0.09067340
     atom    5 type  1   force =    -0.00000000   -0.00000000    0.39793365
     The local contribution  to forces
     atom    1 type  2   force =    -0.00000000   -0.00000000    0.55863395
     atom    2 type  3   force =    -0.00000000   -0.00000000   -0.01114251
     atom    3 type  1   force =     0.00000000   -0.00000000   -0.08055786
     atom    4 type  1   force =    -0.00000000    0.00000000   -0.08055786
     atom    5 type  1   force =    -0.00000000   -0.00000000   -0.35498240
     The core correction contribution to forces
     atom    1 type  2   force =     0.00000000    0.00000000    0.00000000
     atom    2 type  3   force =     0.00000000    0.00000000    0.00000000
     atom    3 type  1   force =     0.00000000    0.00000000    0.00000000
     atom    4 type  1   force =     0.00000000    0.00000000    0.00000000
     atom    5 type  1   force =     0.00000000    0.00000000    0.00000000
     The Hubbard contrib.    to forces
     atom    1 type  2   force =     0.00000000    0.00000000    0.00000000
     atom    2 type  3   force =     0.00000000    0.00000000    0.00000000
     atom    3 type  1   force =     0.00000000    0.00000000    0.00000000
     atom    4 type  1   force =     0.00000000    0.00000000    0.00000000
     atom    5 type  1   force =     0.00000000    0.00000000    0.00000000
     The SCF correction term to forces
     atom    1 type  2   force =    -0.00000000    0.00000000    0.00000296
     atom    2 type  3   force =    -0.00000000   -0.00000000   -0.00003929
     atom    3 type  1   force =     0.00000000    0.00000000   -0.00000691
     atom    4 type  1   force =    -0.00000000    0.00000000   -0.00000691
     atom    5 type  1   force =    -0.00000000    0.00000000    0.00001593

     Total force =     0.002936     Total SCF correction =     0.000044


     Computing stress (Cartesian axis) and pressure

          total   stress  (Ry/bohr**3)                   (kbar)     P=      -22.77
  -0.00015727   0.00000000   0.00000000          -23.14        0.00        0.00
   0.00000000  -0.00015727   0.00000000            0.00      -23.14        0.00
   0.00000000   0.00000000  -0.00014990            0.00        0.00      -22.05

     Energy error            =      2.1E-05 Ry
     Gradient error          =      2.0E-03 Ry/Bohr

     number of scf cycles    =   6
     number of bfgs steps    =   5

     energy             old  =    -333.1846094189 Ry
     energy             new  =    -333.1846308690 Ry

     CASE: energy            _new < energy            _old

     new trust radius        =       0.0066007572 bohr
     new conv_thr            =       0.0000000010 Ry


ATOMIC_POSITIONS (angstrom)
Pb            0.0000000000        0.0000000000        0.0538197513
Ti            1.9400000000        1.9400000000        1.9767834941
O             0.0000000000        1.9400000000        1.9432712698
O             1.9400000000        0.0000000000        1.9432712698
O             1.9400000000        1.9400000000        0.0114942148



     Writing config-only to output data dir /home/gridsan/epan1/labutil/lab3_samples/problem2/Lab3/PbTiO3_a_3.88_ecut_30_nk_4_displ_0.028/pwscf.save/
     NEW-OLD atomic charge density approx. for the potential

     total cpu time spent up to now is       15.3 secs

     Self-consistent Calculation

     iteration #  1     ecut=    30.00 Ry     beta= 0.70
     Davidson diagonalization with overlap
     ethr =  1.00E-06,  avg # of iterations =  5.0

     Threshold (ethr) on eigenvalues was too large:
     Diagonalizing with lowered threshold

     Davidson diagonalization with overlap
     ethr =  1.52E-09,  avg # of iterations =  6.0

     total cpu time spent up to now is       15.7 secs

     total energy              =    -333.18464232 Ry
     estimated scf accuracy    <       0.00000068 Ry

     iteration #  2     ecut=    30.00 Ry     beta= 0.70
     Davidson diagonalization with overlap
     ethr =  1.54E-09,  avg # of iterations =  2.0

     total cpu time spent up to now is       15.8 secs

     total energy              =    -333.18464239 Ry
     estimated scf accuracy    <       0.00000005 Ry

     iteration #  3     ecut=    30.00 Ry     beta= 0.70
     Davidson diagonalization with overlap
     ethr =  1.18E-10,  avg # of iterations =  3.3

     total cpu time spent up to now is       16.0 secs

     total energy              =    -333.18464241 Ry
     estimated scf accuracy    <          5.5E-09 Ry

     iteration #  4     ecut=    30.00 Ry     beta= 0.70
     Davidson diagonalization with overlap
     ethr =  1.24E-11,  avg # of iterations =  4.8

     total cpu time spent up to now is       16.2 secs

     total energy              =    -333.18464241 Ry
     estimated scf accuracy    <          3.1E-09 Ry

     iteration #  5     ecut=    30.00 Ry     beta= 0.70
     Davidson diagonalization with overlap
     ethr =  6.98E-12,  avg # of iterations =  4.5

     total cpu time spent up to now is       16.4 secs

     End of self-consistent calculation

          k = 0.1250 0.1250 0.1250 (  1096 PWs)   bands (ev):

   -44.7358 -21.3418 -21.3398 -21.3393  -6.3747  -5.3060  -5.3028  -4.0196
    -4.0195  -4.0056  -3.8391  -3.8358   4.6084   7.2601   7.2645   8.0296
     9.0955   9.0975   9.8465   9.8898   9.9224  10.0736

          k = 0.1250 0.1250 0.3750 (  1095 PWs)   bands (ev):

   -44.7345 -21.3981 -21.3379 -21.3369  -5.9685  -5.1873  -5.1313  -4.0793
    -4.0143  -4.0022  -3.9339  -3.8083   3.8803   6.7948   7.2929   7.8014
     8.4090   8.6995   9.3383   9.8996  10.0631  10.8121

          k = 0.1250 0.3750 0.3750 (  1093 PWs)   bands (ev):

   -44.7333 -21.3950 -21.3928 -21.3355  -5.7541  -5.0583  -4.9878  -4.0535
    -4.0105  -3.9562  -3.8677  -3.7166   3.5160   6.7408   6.8185   7.1464
     7.4546   8.6238   9.4026   9.4374   9.9904  10.6788

          k = 0.3750 0.3750 0.3750 (  1082 PWs)   bands (ev):

   -44.7320 -21.3922 -21.3903 -21.3901  -5.3547  -5.1846  -5.1816  -3.9662
    -3.9661  -3.6783  -3.6104  -3.6091   4.1282   5.9146   5.9161   6.6633
     6.9897   6.9906   7.9412  10.6335  10.6335  10.7106

          k = 0.3750-0.1250 0.1250 (  1095 PWs)   bands (ev):

   -44.7345 -21.3963 -21.3394 -21.3373  -5.9675  -5.1861  -5.1357  -4.0802
    -4.0144  -4.0019  -3.9337  -3.8066   3.8802   6.7937   7.3011   7.8058
     8.4005   8.7055   9.3360   9.9003  10.0582  10.8105

          k = 0.3750-0.3750 0.1250 (  1093 PWs)   bands (ev):

   -44.7333 -21.3934 -21.3925 -21.3373  -5.7519  -5.0600  -4.9922  -4.0537
    -4.0091  -3.9534  -3.8653  -3.7195   3.5116   6.7642   6.7974   7.1480
     7.4586   8.6268   9.4067   9.4384   9.9890  10.6784

     highest occupied level (ev):    10.8121

!    total energy              =    -333.18464241 Ry
     estimated scf accuracy    <          4.5E-10 Ry

     The total energy is the sum of the following terms:
     one-electron contribution =     -76.98604928 Ry
     hartree contribution      =      66.37281265 Ry
     xc contribution           =     -49.63390921 Ry
     ewald contribution        =    -272.93749657 Ry

     convergence has been achieved in   5 iterations

     Forces acting on atoms (cartesian axes, Ry/au):

     atom    1 type  2   force =     0.00000000    0.00000000    0.00134501
     atom    2 type  3   force =     0.00000000    0.00000000    0.00161164
     atom    3 type  1   force =     0.00000000    0.00000000   -0.00082872
     atom    4 type  1   force =     0.00000000    0.00000000   -0.00082872
     atom    5 type  1   force =     0.00000000    0.00000000   -0.00129921
     The non-local contrib.  to forces
     atom    1 type  2   force =     0.00000000    0.00000000    0.03744271
     atom    2 type  3   force =     0.00000000    0.00000000   -0.00028419
     atom    3 type  1   force =     0.00000000    0.00000000   -0.01475927
     atom    4 type  1   force =     0.00000000    0.00000000   -0.01475927
     atom    5 type  1   force =     0.00000000    0.00000000   -0.04352903
     The ionic contribution  to forces
     atom    1 type  2   force =     0.00000000    0.00000000   -0.65581787
     atom    2 type  3   force =     0.00000000    0.00000000    0.01822512
     atom    3 type  1   force =     0.00000000   -0.00000000    0.12001049
     atom    4 type  1   force =    -0.00000000    0.00000000    0.12001049
     atom    5 type  1   force =    -0.00000000   -0.00000000    0.39757176
     The local contribution  to forces
     atom    1 type  2   force =    -0.00000000   -0.00000000    0.61971440
     atom    2 type  3   force =    -0.00000000   -0.00000000   -0.01633787
     atom    3 type  1   force =     0.00000000   -0.00000000   -0.10608285
     atom    4 type  1   force =    -0.00000000    0.00000000   -0.10608285
     atom    5 type  1   force =    -0.00000000   -0.00000000   -0.35534553
     The core correction contribution to forces
     atom    1 type  2   force =     0.00000000    0.00000000    0.00000000
     atom    2 type  3   force =     0.00000000    0.00000000    0.00000000
     atom    3 type  1   force =     0.00000000    0.00000000    0.00000000
     atom    4 type  1   force =     0.00000000    0.00000000    0.00000000
     atom    5 type  1   force =     0.00000000    0.00000000    0.00000000
     The Hubbard contrib.    to forces
     atom    1 type  2   force =     0.00000000    0.00000000    0.00000000
     atom    2 type  3   force =     0.00000000    0.00000000    0.00000000
     atom    3 type  1   force =     0.00000000    0.00000000    0.00000000
     atom    4 type  1   force =     0.00000000    0.00000000    0.00000000
     atom    5 type  1   force =     0.00000000    0.00000000    0.00000000
     The SCF correction term to forces
     atom    1 type  2   force =     0.00000000   -0.00000000   -0.00000184
     atom    2 type  3   force =     0.00000000    0.00000000    0.00000099
     atom    3 type  1   force =    -0.00000000    0.00000000   -0.00000469
     atom    4 type  1   force =     0.00000000   -0.00000000   -0.00000469
     atom    5 type  1   force =    -0.00000000   -0.00000000   -0.00000401

     Total force =     0.002733     Total SCF correction =     0.000008


     Computing stress (Cartesian axis) and pressure

          total   stress  (Ry/bohr**3)                   (kbar)     P=      -22.64
  -0.00015637   0.00000000   0.00000000          -23.00        0.00        0.00
   0.00000000  -0.00015637   0.00000000            0.00      -23.00        0.00
   0.00000000   0.00000000  -0.00014887            0.00        0.00      -21.90

     Energy error            =      1.2E-05 Ry
     Gradient error          =      1.6E-03 Ry/Bohr

     number of scf cycles    =   7
     number of bfgs steps    =   6

     energy             old  =    -333.1846308690 Ry
     energy             new  =    -333.1846424070 Ry

     CASE: energy            _new < energy            _old

     new trust radius        =       0.0072608329 bohr
     new conv_thr            =       0.0000000010 Ry


ATOMIC_POSITIONS (angstrom)
Pb            0.0000000000        0.0000000000        0.0576620186
Ti            1.9400000000        1.9400000000        1.9770029836
O             0.0000000000        1.9400000000        1.9425252724
O             1.9400000000        0.0000000000        1.9425252724
O             1.9400000000        1.9400000000        0.0089244530



     Writing config-only to output data dir /home/gridsan/epan1/labutil/lab3_samples/problem2/Lab3/PbTiO3_a_3.88_ecut_30_nk_4_displ_0.028/pwscf.save/
     NEW-OLD atomic charge density approx. for the potential

     total cpu time spent up to now is       17.0 secs

     Self-consistent Calculation

     iteration #  1     ecut=    30.00 Ry     beta= 0.70
     Davidson diagonalization with overlap
     ethr =  1.00E-06,  avg # of iterations =  4.0

     Threshold (ethr) on eigenvalues was too large:
     Diagonalizing with lowered threshold

     Davidson diagonalization with overlap
     ethr =  7.82E-09,  avg # of iterations =  6.7

     total cpu time spent up to now is       17.4 secs

     total energy              =    -333.18465869 Ry
     estimated scf accuracy    <       0.00000467 Ry

     iteration #  2     ecut=    30.00 Ry     beta= 0.70
     Davidson diagonalization with overlap
     ethr =  1.06E-08,  avg # of iterations =  2.0

     total cpu time spent up to now is       17.6 secs

     total energy              =    -333.18465958 Ry
     estimated scf accuracy    <       0.00000040 Ry

     iteration #  3     ecut=    30.00 Ry     beta= 0.70
     Davidson diagonalization with overlap
     ethr =  9.15E-10,  avg # of iterations =  2.0

     total cpu time spent up to now is       17.8 secs

     total energy              =    -333.18465966 Ry
     estimated scf accuracy    <       0.00000002 Ry

     iteration #  4     ecut=    30.00 Ry     beta= 0.70
     Davidson diagonalization with overlap
     ethr =  3.92E-11,  avg # of iterations =  5.5

     total cpu time spent up to now is       18.0 secs

     total energy              =    -333.18465967 Ry
     estimated scf accuracy    <          5.0E-09 Ry

     iteration #  5     ecut=    30.00 Ry     beta= 0.70
     Davidson diagonalization with overlap
     ethr =  1.13E-11,  avg # of iterations =  3.5

     total cpu time spent up to now is       18.1 secs

     End of self-consistent calculation

          k = 0.1250 0.1250 0.1250 (  1096 PWs)   bands (ev):

   -44.7352 -21.3417 -21.3394 -21.3388  -6.3752  -5.3070  -5.3030  -4.0192
    -4.0192  -4.0052  -3.8389  -3.8350   4.6084   7.2596   7.2644   8.0300
     9.0945   9.0967   9.8456   9.8855   9.9220  10.0760

          k = 0.1250 0.1250 0.3750 (  1095 PWs)   bands (ev):

   -44.7339 -21.3980 -21.3373 -21.3364  -5.9694  -5.1885  -5.1313  -4.0788
    -4.0140  -4.0018  -3.9330  -3.8081   3.8803   6.7950   7.2920   7.8007
     8.4088   8.6987   9.3374   9.8990  10.0623  10.8124

          k = 0.1250 0.3750 0.3750 (  1093 PWs)   bands (ev):

   -44.7327 -21.3948 -21.3923 -21.3349  -5.7549  -5.0591  -4.9883  -4.0531
    -4.0101  -3.9558  -3.8672  -3.7158   3.5162   6.7378   6.8203   7.1461
     7.4541   8.6233   9.4012   9.4372   9.9909  10.6782

          k = 0.3750 0.3750 0.3750 (  1082 PWs)   bands (ev):

   -44.7314 -21.3921 -21.3898 -21.3896  -5.3552  -5.1855  -5.1818  -3.9658
    -3.9656  -3.6781  -3.6100  -3.6084   4.1273   5.9139   5.9160   6.6628
     6.9898   6.9907   7.9427  10.6327  10.6328  10.7099

          k = 0.3750-0.1250 0.1250 (  1095 PWs)   bands (ev):

   -44.7339 -21.3957 -21.3392 -21.3367  -5.9680  -5.1869  -5.1366  -4.0799
    -4.0140  -4.0015  -3.9328  -3.8060   3.8802   6.7932   7.3006   7.8057
     8.3998   8.7054   9.3350   9.8995  10.0570  10.8107

          k = 0.3750-0.3750 0.1250 (  1093 PWs)   bands (ev):

   -44.7327 -21.3929 -21.3920 -21.3371  -5.7520  -5.0612  -4.9936  -4.0533
    -4.0085  -3.9524  -3.8644  -3.7193   3.5109   6.7637   6.7973   7.1476
     7.4584   8.6270   9.4064   9.4380   9.9894  10.6774

     highest occupied level (ev):    10.8124

!    total energy              =    -333.18465967 Ry
     estimated scf accuracy    <          8.5E-10 Ry

     The total energy is the sum of the following terms:
     one-electron contribution =     -77.00033685 Ry
     hartree contribution      =      66.38002374 Ry
     xc contribution           =     -49.63426899 Ry
     ewald contribution        =    -272.93007757 Ry

     convergence has been achieved in   5 iterations

     Forces acting on atoms (cartesian axes, Ry/au):

     atom    1 type  2   force =     0.00000000    0.00000000    0.00115836
     atom    2 type  3   force =     0.00000000    0.00000000    0.00195218
     atom    3 type  1   force =     0.00000000    0.00000000   -0.00138623
     atom    4 type  1   force =     0.00000000    0.00000000   -0.00138623
     atom    5 type  1   force =     0.00000000    0.00000000   -0.00033807
     The non-local contrib.  to forces
     atom    1 type  2   force =     0.00000000    0.00000000    0.04097022
     atom    2 type  3   force =     0.00000000    0.00000000   -0.00055342
     atom    3 type  1   force =     0.00000000    0.00000000   -0.01880116
     atom    4 type  1   force =     0.00000000    0.00000000   -0.01880116
     atom    5 type  1   force =     0.00000000    0.00000000   -0.04615589
     The ionic contribution  to forces
     atom    1 type  2   force =     0.00000000    0.00000000   -0.72002590
     atom    2 type  3   force =     0.00000000    0.00000000   -0.00896485
     atom    3 type  1   force =     0.00000000   -0.00000000    0.13884526
     atom    4 type  1   force =    -0.00000000    0.00000000    0.13884526
     atom    5 type  1   force =    -0.00000000   -0.00000000    0.45130023
     The local contribution  to forces
     atom    1 type  2   force =     0.00000000   -0.00000000    0.68019302
     atom    2 type  3   force =    -0.00000000   -0.00000000    0.01153566
     atom    3 type  1   force =     0.00000000   -0.00000000   -0.12141671
     atom    4 type  1   force =    -0.00000000    0.00000000   -0.12141671
     atom    5 type  1   force =    -0.00000000   -0.00000000   -0.40548449
     The core correction contribution to forces
     atom    1 type  2   force =     0.00000000    0.00000000    0.00000000
     atom    2 type  3   force =     0.00000000    0.00000000    0.00000000
     atom    3 type  1   force =     0.00000000    0.00000000    0.00000000
     atom    4 type  1   force =     0.00000000    0.00000000    0.00000000
     atom    5 type  1   force =     0.00000000    0.00000000    0.00000000
     The Hubbard contrib.    to forces
     atom    1 type  2   force =     0.00000000    0.00000000    0.00000000
     atom    2 type  3   force =     0.00000000    0.00000000    0.00000000
     atom    3 type  1   force =     0.00000000    0.00000000    0.00000000
     atom    4 type  1   force =     0.00000000    0.00000000    0.00000000
     atom    5 type  1   force =     0.00000000    0.00000000    0.00000000
     The SCF correction term to forces
     atom    1 type  2   force =     0.00000000    0.00000000    0.00002101
     atom    2 type  3   force =     0.00000000    0.00000000   -0.00006522
     atom    3 type  1   force =    -0.00000000    0.00000000   -0.00001363
     atom    4 type  1   force =     0.00000000   -0.00000000   -0.00001363
     atom    5 type  1   force =    -0.00000000   -0.00000000    0.00000207

     Total force =     0.003018     Total SCF correction =     0.000071


     Computing stress (Cartesian axis) and pressure

          total   stress  (Ry/bohr**3)                   (kbar)     P=      -22.44
  -0.00015556   0.00000000   0.00000000          -22.88        0.00        0.00
   0.00000000  -0.00015556   0.00000000            0.00      -22.88        0.00
   0.00000000   0.00000000  -0.00014645            0.00        0.00      -21.54

     Energy error            =      1.7E-05 Ry
     Gradient error          =      2.0E-03 Ry/Bohr

     number of scf cycles    =   8
     number of bfgs steps    =   7

     energy             old  =    -333.1846424070 Ry
     energy             new  =    -333.1846596674 Ry

     CASE: energy            _new < energy            _old

     new trust radius        =       0.0108912494 bohr
     new conv_thr            =       0.0000000010 Ry


ATOMIC_POSITIONS (angstrom)
Pb            0.0000000000        0.0000000000        0.0634254196
Ti            1.9400000000        1.9400000000        1.9786165587
O             0.0000000000        1.9400000000        1.9408211836
O             1.9400000000        0.0000000000        1.9408211836
O             1.9400000000        1.9400000000        0.0049556546



     Writing config-only to output data dir /home/gridsan/epan1/labutil/lab3_samples/problem2/Lab3/PbTiO3_a_3.88_ecut_30_nk_4_displ_0.028/pwscf.save/
     NEW-OLD atomic charge density approx. for the potential

     total cpu time spent up to now is       18.9 secs

     Self-consistent Calculation

     iteration #  1     ecut=    30.00 Ry     beta= 0.70
     Davidson diagonalization with overlap
     ethr =  1.00E-06,  avg # of iterations =  5.3

     Threshold (ethr) on eigenvalues was too large:
     Diagonalizing with lowered threshold

     Davidson diagonalization with overlap
[...]

     total energy              =    -333.18606789 Ry
     estimated scf accuracy    <       0.00000391 Ry

     iteration #  5     ecut=    30.00 Ry     beta= 0.70
     Davidson diagonalization with overlap
     ethr =  8.89E-09,  avg # of iterations =  5.0

     total cpu time spent up to now is       39.9 secs

     total energy              =    -333.18607024 Ry
     estimated scf accuracy    <       0.00000296 Ry

     iteration #  6     ecut=    30.00 Ry     beta= 0.70
     Davidson diagonalization with overlap
     ethr =  6.74E-09,  avg # of iterations =  1.7

     total cpu time spent up to now is       40.1 secs

     total energy              =    -333.18606989 Ry
     estimated scf accuracy    <       0.00000161 Ry

     iteration #  7     ecut=    30.00 Ry     beta= 0.70
     Davidson diagonalization with overlap
     ethr =  3.66E-09,  avg # of iterations =  3.5

     total cpu time spent up to now is       40.2 secs

     total energy              =    -333.18607011 Ry
     estimated scf accuracy    <       0.00000015 Ry

     iteration #  8     ecut=    30.00 Ry     beta= 0.70
     Davidson diagonalization with overlap
     ethr =  3.47E-10,  avg # of iterations =  5.2

     total cpu time spent up to now is       40.4 secs

     total energy              =    -333.18607019 Ry
     estimated scf accuracy    <       0.00000004 Ry

     iteration #  9     ecut=    30.00 Ry     beta= 0.70
     Davidson diagonalization with overlap
     ethr =  1.00E-10,  avg # of iterations =  2.0

     total cpu time spent up to now is       40.6 secs

     total energy              =    -333.18607019 Ry
     estimated scf accuracy    <       0.00000003 Ry

     iteration # 10     ecut=    30.00 Ry     beta= 0.70
     Davidson diagonalization with overlap
     ethr =  5.78E-11,  avg # of iterations =  2.8

     total cpu time spent up to now is       40.7 secs

     total energy              =    -333.18607019 Ry
     estimated scf accuracy    <          6.9E-09 Ry

     iteration # 11     ecut=    30.00 Ry     beta= 0.70
     Davidson diagonalization with overlap
     ethr =  1.56E-11,  avg # of iterations =  4.2

     total cpu time spent up to now is       40.9 secs

     End of self-consistent calculation

          k = 0.1250 0.1250 0.1250 (  1096 PWs)   bands (ev):

   -44.7100 -21.3592 -21.3166 -21.3159  -6.4813  -5.4451  -5.3090  -3.9454
    -3.9434  -3.9181  -3.7796  -3.6754   4.6244   7.1394   7.2458   8.0185
     8.9658   8.9990   9.5618   9.6999   9.8684  10.1817

          k = 0.1250 0.1250 0.3750 (  1095 PWs)   bands (ev):

   -44.7088 -21.4160 -21.3143 -21.3134  -6.1127  -5.3508  -5.1112  -3.9860
    -3.9290  -3.9165  -3.7661  -3.7440   3.9083   6.7899   7.0708   7.6508
     8.4754   8.5876   9.2634   9.7712   9.9439  10.8829

          k = 0.1250 0.3750 0.3750 (  1093 PWs)   bands (ev):

   -44.7076 -21.4126 -21.3691 -21.3120  -5.8805  -5.2243  -5.0181  -3.9690
    -3.9248  -3.8693  -3.7601  -3.5729   3.5657   6.5177   6.8794   7.0825
     7.3759   8.5640   9.2959   9.3589  10.0902  10.5917

          k = 0.3750 0.3750 0.3750 (  1082 PWs)   bands (ev):

   -44.7063 -21.4099 -21.3665 -21.3663  -5.4770  -5.3353  -5.1897  -3.8820
    -3.8778  -3.6268  -3.5155  -3.4844   4.0003   5.8407   5.9053   6.5573
     7.0552   7.0630   8.1945  10.4955  10.5342  10.6229

          k = 0.3750-0.1250 0.1250 (  1095 PWs)   bands (ev):

   -44.7088 -21.3726 -21.3566 -21.3139  -6.0645  -5.3176  -5.2447  -3.9983
    -3.9340  -3.9133  -3.7801  -3.6788   3.8816   6.7417   7.2424   7.7589
     8.2923   8.7205   9.2234   9.7733   9.8809  10.8552

          k = 0.3750-0.3750 0.1250 (  1093 PWs)   bands (ev):

   -44.7076 -21.3699 -21.3688 -21.3543  -5.7748  -5.2354  -5.2045  -3.9678
    -3.9033  -3.7964  -3.6915  -3.6479   3.4055   6.6820   6.7762   7.1332
     7.4971   8.6560   9.3971   9.4095  10.0657  10.5327

     highest occupied level (ev):    10.8829

!    total energy              =    -333.18607019 Ry
     estimated scf accuracy    <          2.3E-11 Ry

     The total energy is the sum of the following terms:
     one-electron contribution =     -78.79268265 Ry
     hartree contribution      =      67.28291363 Ry
     xc contribution           =     -49.67489081 Ry
     ewald contribution        =    -272.00141036 Ry

     convergence has been achieved in  11 iterations

     Forces acting on atoms (cartesian axes, Ry/au):

     atom    1 type  2   force =     0.00000000    0.00000000   -0.00242998
     atom    2 type  3   force =     0.00000000    0.00000000    0.00275204
     atom    3 type  1   force =     0.00000000    0.00000000   -0.00142696
     atom    4 type  1   force =     0.00000000    0.00000000   -0.00142696
     atom    5 type  1   force =     0.00000000    0.00000000    0.00253186
     The non-local contrib.  to forces
     atom    1 type  2   force =     0.00000000    0.00000000    0.21530280
     atom    2 type  3   force =     0.00000000    0.00000000    0.00644431
     atom    3 type  1   force =     0.00000000    0.00000000   -0.07871175
     atom    4 type  1   force =     0.00000000    0.00000000   -0.07871175
     atom    5 type  1   force =     0.00000000    0.00000000   -0.21160422
     The ionic contribution  to forces
     atom    1 type  2   force =     0.00000000    0.00000000   -3.89251717
     atom    2 type  3   force =    -0.00000000   -0.00000000    0.30211293
     atom    3 type  1   force =     0.00000000    0.00000000    0.84347661
     atom    4 type  1   force =    -0.00000000    0.00000000    0.84347661
     atom    5 type  1   force =     0.00000000    0.00000000    1.90345101
     The local contribution  to forces
     atom    1 type  2   force =    -0.00000000    0.00000000    3.67477037
     atom    2 type  3   force =    -0.00000000   -0.00000000   -0.30579570
     atom    3 type  1   force =     0.00000000   -0.00000000   -0.76619709
     atom    4 type  1   force =    -0.00000000    0.00000000   -0.76619709
     atom    5 type  1   force =    -0.00000000   -0.00000000   -1.68932942
     The core correction contribution to forces
     atom    1 type  2   force =     0.00000000    0.00000000    0.00000000
     atom    2 type  3   force =     0.00000000    0.00000000    0.00000000
     atom    3 type  1   force =     0.00000000    0.00000000    0.00000000
     atom    4 type  1   force =     0.00000000    0.00000000    0.00000000
     atom    5 type  1   force =     0.00000000    0.00000000    0.00000000
     The Hubbard contrib.    to forces
     atom    1 type  2   force =     0.00000000    0.00000000    0.00000000
     atom    2 type  3   force =     0.00000000    0.00000000    0.00000000
     atom    3 type  1   force =     0.00000000    0.00000000    0.00000000
     atom    4 type  1   force =     0.00000000    0.00000000    0.00000000
     atom    5 type  1   force =     0.00000000    0.00000000    0.00000000
     The SCF correction term to forces
     atom    1 type  2   force =    -0.00000000    0.00000000    0.00000598
     atom    2 type  3   force =     0.00000000   -0.00000000   -0.00001754
     atom    3 type  1   force =    -0.00000000    0.00000000   -0.00000277
     atom    4 type  1   force =     0.00000000    0.00000000   -0.00000277
     atom    5 type  1   force =    -0.00000000    0.00000000    0.00000645

     Total force =     0.004895     Total SCF correction =     0.000020


     Computing stress (Cartesian axis) and pressure

          total   stress  (Ry/bohr**3)                   (kbar)     P=       -1.10
  -0.00007423   0.00000000   0.00000000          -10.92        0.00        0.00
   0.00000000  -0.00007423   0.00000000            0.00      -10.92        0.00
   0.00000000   0.00000000   0.00012600            0.00        0.00       18.54

     Energy error            =      3.7E-04 Ry
     Gradient error          =      2.8E-03 Ry/Bohr

     number of scf cycles    =  17
     number of bfgs steps    =  16

     energy             old  =    -333.1857017147 Ry
     energy             new  =    -333.1860701878 Ry

     CASE: energy            _new < energy            _old

     new trust radius        =       0.0184077944 bohr
     new conv_thr            =       0.0000000028 Ry


ATOMIC_POSITIONS (angstrom)
Pb            0.0000000000        0.0000000000        0.2049540163
Ti            1.9400000000        1.9400000000        2.0375699878
O             0.0000000000        1.9400000000        1.8585534450
O             1.9400000000        0.0000000000        1.8585534450
O             1.9400000000        1.9400000000       -0.0309908942



     Writing config-only to output data dir /home/gridsan/epan1/labutil/lab3_samples/problem2/Lab3/PbTiO3_a_3.88_ecut_30_nk_4_displ_0.028/pwscf.save/
     NEW-OLD atomic charge density approx. for the potential

     total cpu time spent up to now is       41.5 secs

     Self-consistent Calculation

     iteration #  1     ecut=    30.00 Ry     beta= 0.70
     Davidson diagonalization with overlap
     ethr =  1.00E-06,  avg # of iterations =  7.0

     Threshold (ethr) on eigenvalues was too large:
     Diagonalizing with lowered threshold

     Davidson diagonalization with overlap
     ethr =  2.36E-08,  avg # of iterations =  4.3

     total cpu time spent up to now is       42.0 secs

     total energy              =    -333.18612608 Ry
     estimated scf accuracy    <       0.00000995 Ry

     iteration #  2     ecut=    30.00 Ry     beta= 0.70
     Davidson diagonalization with overlap
     ethr =  2.26E-08,  avg # of iterations =  3.3

     total cpu time spent up to now is       42.2 secs

     total energy              =    -333.18612770 Ry
     estimated scf accuracy    <       0.00000244 Ry

     iteration #  3     ecut=    30.00 Ry     beta= 0.70
     Davidson diagonalization with overlap
     ethr =  5.54E-09,  avg # of iterations =  4.7

     total cpu time spent up to now is       42.4 secs

     total energy              =    -333.18612808 Ry
     estimated scf accuracy    <       0.00000191 Ry

     iteration #  4     ecut=    30.00 Ry     beta= 0.70
     Davidson diagonalization with overlap
     ethr =  4.34E-09,  avg # of iterations =  4.0

     total cpu time spent up to now is       42.6 secs

     total energy              =    -333.18612851 Ry
     estimated scf accuracy    <       0.00000010 Ry

     iteration #  5     ecut=    30.00 Ry     beta= 0.70
     Davidson diagonalization with overlap
     ethr =  2.22E-10,  avg # of iterations =  4.3

     total cpu time spent up to now is       42.7 secs

     total energy              =    -333.18612853 Ry
     estimated scf accuracy    <       0.00000002 Ry

     iteration #  6     ecut=    30.00 Ry     beta= 0.70
     Davidson diagonalization with overlap
     ethr =  5.51E-11,  avg # of iterations =  3.8

     total cpu time spent up to now is       42.9 secs

     total energy              =    -333.18612853 Ry
     estimated scf accuracy    <          3.0E-09 Ry

     iteration #  7     ecut=    30.00 Ry     beta= 0.70
     Davidson diagonalization with overlap
     ethr =  6.83E-12,  avg # of iterations =  4.5

     total cpu time spent up to now is       43.1 secs

     End of self-consistent calculation

          k = 0.1250 0.1250 0.1250 (  1096 PWs)   bands (ev):

   -44.7056 -21.3572 -21.3106 -21.3099  -6.4746  -5.4279  -5.3092  -3.9476
    -3.9460  -3.9216  -3.7812  -3.6819   4.6247   7.1399   7.2498   8.0090
     8.9626   9.0032   9.5561   9.7000   9.8811  10.1831

          k = 0.1250 0.1250 0.3750 (  1095 PWs)   bands (ev):

   -44.7043 -21.4141 -21.3084 -21.3075  -6.0994  -5.3319  -5.1170  -3.9893
    -3.9319  -3.9200  -3.7737  -3.7459   3.9025   6.7849   7.0593   7.6542
     8.4916   8.5862   9.2765   9.7695   9.9588  10.8888

          k = 0.1250 0.3750 0.3750 (  1093 PWs)   bands (ev):

   -44.7031 -21.4107 -21.3629 -21.3060  -5.8668  -5.2106  -5.0228  -3.9720
    -3.9282  -3.8726  -3.7647  -3.5784   3.5633   6.5174   6.8938   7.0909
     7.3783   8.5747   9.3135   9.3584  10.0843  10.5916

          k = 0.3750 0.3750 0.3750 (  1082 PWs)   bands (ev):

   -44.7018 -21.4080 -21.3603 -21.3602  -5.4674  -5.3225  -5.1957  -3.8853
    -3.8811  -3.6290  -3.5192  -3.4893   4.0130   5.8496   5.9032   6.5575
     7.0680   7.0847   8.1804  10.5100  10.5324  10.6226

          k = 0.3750-0.1250 0.1250 (  1095 PWs)   bands (ev):

   -44.7043 -21.3665 -21.3545 -21.3080  -6.0595  -5.3036  -5.2394  -4.0014
    -3.9367  -3.9166  -3.7871  -3.6846   3.8828   6.7554   7.2512   7.7599
     8.2969   8.7333   9.2238   9.7754   9.8799  10.8504

          k = 0.3750-0.3750 0.1250 (  1093 PWs)   bands (ev):

   -44.7031 -21.3639 -21.3626 -21.3522  -5.7805  -5.2229  -5.1887  -3.9710
    -3.9072  -3.8024  -3.6991  -3.6514   3.4168   6.6919   6.7866   7.1379
     7.5033   8.6566   9.4030   9.4187  10.0575  10.5471

     highest occupied level (ev):    10.8888

!    total energy              =    -333.18612853 Ry
     estimated scf accuracy    <          5.7E-10 Ry

     The total energy is the sum of the following terms:
     one-electron contribution =     -78.62235167 Ry
     hartree contribution      =      67.20061023 Ry
     xc contribution           =     -49.67237520 Ry
     ewald contribution        =    -272.09201190 Ry

     convergence has been achieved in   7 iterations

     Forces acting on atoms (cartesian axes, Ry/au):

     atom    1 type  2   force =     0.00000000    0.00000000    0.00010073
     atom    2 type  3   force =     0.00000000    0.00000000   -0.00032996
     atom    3 type  1   force =     0.00000000    0.00000000    0.00002247
     atom    4 type  1   force =     0.00000000    0.00000000    0.00002247
     atom    5 type  1   force =     0.00000000    0.00000000    0.00018430
     The non-local contrib.  to forces
     atom    1 type  2   force =     0.00000000    0.00000000    0.20908263
     atom    2 type  3   force =     0.00000000    0.00000000    0.00818220
     atom    3 type  1   force =     0.00000000    0.00000000   -0.06352735
     atom    4 type  1   force =     0.00000000    0.00000000   -0.06352735
     atom    5 type  1   force =     0.00000000    0.00000000   -0.22228425
     The ionic contribution  to forces
     atom    1 type  2   force =     0.00000000    0.00000000   -3.72977287
     atom    2 type  3   force =     0.00000000    0.00000000    0.28517523
     atom    3 type  1   force =     0.00000000    0.00000000    0.75166423
     atom    4 type  1   force =    -0.00000000    0.00000000    0.75166423
     atom    5 type  1   force =    -0.00000000   -0.00000000    1.94126917
     The local contribution  to forces
     atom    1 type  2   force =    -0.00000000   -0.00000000    3.52077385
     atom    2 type  3   force =    -0.00000000   -0.00000000   -0.29367432
     atom    3 type  1   force =     0.00000000   -0.00000000   -0.68811309
     atom    4 type  1   force =    -0.00000000   -0.00000000   -0.68811309
     atom    5 type  1   force =    -0.00000000   -0.00000000   -1.71881226
     The core correction contribution to forces
     atom    1 type  2   force =     0.00000000    0.00000000    0.00000000
     atom    2 type  3   force =     0.00000000    0.00000000    0.00000000
     atom    3 type  1   force =     0.00000000    0.00000000    0.00000000
     atom    4 type  1   force =     0.00000000    0.00000000    0.00000000
     atom    5 type  1   force =     0.00000000    0.00000000    0.00000000
     The Hubbard contrib.    to forces
     atom    1 type  2   force =     0.00000000    0.00000000    0.00000000
     atom    2 type  3   force =     0.00000000    0.00000000    0.00000000
     atom    3 type  1   force =     0.00000000    0.00000000    0.00000000
     atom    4 type  1   force =     0.00000000    0.00000000    0.00000000
     atom    5 type  1   force =     0.00000000    0.00000000    0.00000000
     The SCF correction term to forces
     atom    1 type  2   force =    -0.00000000    0.00000000    0.00001317
     atom    2 type  3   force =    -0.00000000   -0.00000000   -0.00001704
     atom    3 type  1   force =     0.00000000    0.00000000   -0.00000528
     atom    4 type  1   force =    -0.00000000   -0.00000000   -0.00000528
     atom    5 type  1   force =     0.00000000    0.00000000    0.00000769

     Total force =     0.000392     Total SCF correction =     0.000024


     Computing stress (Cartesian axis) and pressure

          total   stress  (Ry/bohr**3)                   (kbar)     P=       -2.73
  -0.00008889   0.00000000   0.00000000          -13.08        0.00        0.00
   0.00000000  -0.00008889   0.00000000            0.00      -13.08        0.00
   0.00000000   0.00000000   0.00012206            0.00        0.00       17.96

     Energy error            =      5.8E-05 Ry
     Gradient error          =      3.3E-04 Ry/Bohr

     bfgs converged in  18 scf cycles and  17 bfgs steps
     (criteria: energy <  1.0E-04 Ry, force <  1.0E-03 Ry/Bohr)

     End of BFGS Geometry Optimization

     Final energy             =    -333.1861285347 Ry

     File /home/gridsan/epan1/labutil/lab3_samples/problem2/Lab3/PbTiO3_a_3.88_ecut_30_nk_4_displ_0.028/pwscf.bfgs deleted, as requested
Begin final coordinates

ATOMIC_POSITIONS (angstrom)
Pb            0.0000000000        0.0000000000        0.2049540163
Ti            1.9400000000        1.9400000000        2.0375699878
O             0.0000000000        1.9400000000        1.8585534450
O             1.9400000000        0.0000000000        1.8585534450
O             1.9400000000        1.9400000000       -0.0309908942
End final coordinates



     init_run     :      0.51s CPU      0.48s WALL (       1 calls)
     electrons    :     39.31s CPU     31.44s WALL (      18 calls)
     update_pot   :      0.69s CPU      0.56s WALL (      17 calls)
     forces       :      1.44s CPU      1.18s WALL (      18 calls)
     stress       :      9.70s CPU      8.24s WALL (      18 calls)

     Called by init_run:
     wfcinit      :      0.06s CPU      0.05s WALL (       1 calls)
     potinit      :      0.04s CPU      0.04s WALL (       1 calls)
     hinit0       :      0.33s CPU      0.33s WALL (       1 calls)

     Called by electrons:
     c_bands      :     25.24s CPU     20.33s WALL (     159 calls)
     sum_band     :      8.70s CPU      6.89s WALL (     159 calls)
     v_of_rho     :      0.30s CPU      0.29s WALL (     171 calls)
     newd         :      5.20s CPU      3.95s WALL (     171 calls)
     mix_rho      :      0.20s CPU      0.17s WALL (     159 calls)

     Called by c_bands:
     init_us_2    :      0.57s CPU      0.47s WALL (    2130 calls)
     init_us_2:cp :      0.57s CPU      0.46s WALL (    2130 calls)
     cegterg      :     23.47s CPU     18.64s WALL (     954 calls)

     Called by *egterg:
     cdiaghg      :      5.88s CPU      4.67s WALL (    5024 calls)
     h_psi        :     14.07s CPU     11.25s WALL (    5168 calls)
     s_psi        :      0.56s CPU      0.44s WALL (    5168 calls)
     g_psi        :      0.12s CPU      0.10s WALL (    4208 calls)

     Called by h_psi:
     h_psi:calbec :      1.06s CPU      0.86s WALL (    5168 calls)
     vloc_psi     :     12.32s CPU      9.84s WALL (    5168 calls)
     add_vuspsi   :      0.59s CPU      0.47s WALL (    5168 calls)

     General routines
     calbec       :      1.41s CPU      1.16s WALL (    6662 calls)
     fft          :      0.64s CPU      0.57s WALL (    1103 calls)
     ffts         :      0.07s CPU      0.07s WALL (     330 calls)
     fftw         :     11.82s CPU      9.48s WALL (  156794 calls)
     interpolate  :      0.13s CPU      0.12s WALL (     171 calls)

     Parallel routines

     PWSCF        :     52.89s CPU     43.76s WALL


   This run was terminated on:  20: 9:50   2Nov2023            

=------------------------------------------------------------------------------=
   JOB DONE.
=------------------------------------------------------------------------------=
