
     Program PWSCF v.7.2 starts on 14Oct2023 at 15:42:54 

     This program is part of the open-source Quantum ESPRESSO suite
     for quantum simulation of materials; please cite
         "P. Giannozzi et al., J. Phys.:Condens. Matter 21 395502 (2009);
         "P. Giannozzi et al., J. Phys.:Condens. Matter 29 465901 (2017);
         "P. Giannozzi et al., J. Chem. Phys. 152 154105 (2020);
          URL http://www.quantum-espresso.org", 
     in publications or presentations arising from this work. More details at
     http://www.quantum-espresso.org/quote

     Parallel version (MPI), running on     1 processors

     MPI processes distributed on     1 nodes
     38830 MiB available memory on the printing compute node when the environment starts

     Waiting for input...
     Reading input from standard input
Warning: card &CELL ignored
Warning: card / ignored

     Current dimensions of program PWSCF are:
     Max number of different atomic species (ntypx) = 10
     Max number of k-points (npk) =  40000
     Max angular momentum in pseudopotentials (lmaxx) =  4
     file Ge.pz-dn-rrkjus_psl.0.2.2.UPF: wavefunction(s)  3D renormalized
     Message from routine find_sym:
     Not a group! Trying with lower acceptance parameter...
     Message from routine find_sym:
     Still not a group! symmetry disabled

     Subspace diagonalization in iterative solution of the eigenvalue problem:
     a serial algorithm will be used


     G-vector sticks info
     --------------------
     sticks:   dense  smooth     PW     G-vecs:    dense   smooth      PW
     Sum         475     475    151                 6879     6879    1243

     Using Slab Decomposition



     bravais-lattice index     =            0
     lattice parameter (alat)  =       7.6368  a.u.
     unit-cell volume          =     314.9276 (a.u.)^3
     number of atoms/cell      =            2
     number of atomic types    =            1
     number of electrons       =        28.00
     number of Kohn-Sham states=           14
     kinetic-energy cutoff     =      30.0000  Ry
     charge density cutoff     =     120.0000  Ry
     scf convergence threshold =      1.0E-07
     mixing beta               =       0.5000
     number of iterations used =            8  plain     mixing
     Exchange-correlation= LDA
                           (   1   1   0   0   0   0   0)

     celldm(1)=   7.636750  celldm(2)=   0.000000  celldm(3)=   0.000000
     celldm(4)=   0.000000  celldm(5)=   0.000000  celldm(6)=   0.000000

     crystal axes: (cart. coord. in units of alat)
               a(1) = (   0.000000   0.707107   0.707107 )  
               a(2) = (   0.707107   0.000000   0.707107 )  
               a(3) = (   0.707107   0.707107   0.000000 )  

     reciprocal axes: (cart. coord. in units 2 pi/alat)
               b(1) = ( -0.707107  0.707107  0.707107 )  
               b(2) = (  0.707107 -0.707107  0.707107 )  
               b(3) = (  0.707107  0.707107 -0.707107 )  


     PseudoPot. # 1 for Ge read from file:
     ../Ge.pz-dn-rrkjus_psl.0.2.2.UPF
     MD5 check sum: 9948ad5293734715c8cf6021b6c26e6d
     Pseudo is Ultrasoft + core correction, Zval = 14.0
     Generated using "atomic" code by A. Dal Corso  v.5.0.2 svn rev. 9415
     Using radial grid of 1207 points,  6 beta functions with: 
                l(1) =   0
                l(2) =   0
                l(3) =   1
                l(4) =   1
                l(5) =   2
                l(6) =   2
     Q(r) pseudized with 0 coefficients 


     atomic species   valence    mass     pseudopotential
        Ge            14.00    72.63000     Ge( 1.00)

     No symmetry found



   Cartesian axes

     site n.     atom                  positions (alat units)
         1           Ge  tau(   1) = (   0.0000000   0.0000000   0.0000000  )
         2           Ge  tau(   2) = (   0.3535539   0.3535539   0.3535539  )

     number of k points=    36
                       cart. coord. in units 2pi/alat
        k(    1) = (   0.0000000   0.0000000   0.0000000), wk =   0.0312500
        k(    2) = (   0.1767767   0.1767767  -0.1767767), wk =   0.0625000
        k(    3) = (  -0.3535534  -0.3535534   0.3535534), wk =   0.0312500
        k(    4) = (   0.3535534   0.0000000   0.0000000), wk =   0.0625000
        k(    5) = (  -0.1767767  -0.5303301   0.5303301), wk =   0.0625000
        k(    6) = (   0.0000000  -0.3535534   0.3535534), wk =   0.0625000
        k(    7) = (  -0.7071068   0.0000000   0.0000000), wk =   0.0312500
        k(    8) = (  -0.7071068   0.3535534   0.0000000), wk =   0.0625000
        k(    9) = (  -0.1767767  -0.1767767  -0.1767767), wk =   0.0625000
        k(   10) = (  -0.1767767   0.1767767   0.1767767), wk =   0.0625000
        k(   11) = (   0.1767767  -0.1767767   0.1767767), wk =   0.0625000
        k(   12) = (   0.3535534   0.3535534   0.3535534), wk =   0.0312500
        k(   13) = (   0.3535534  -0.3535534  -0.3535534), wk =   0.0312500
        k(   14) = (  -0.3535534   0.3535534  -0.3535534), wk =   0.0312500
        k(   15) = (   0.0000000  -0.3535534   0.0000000), wk =   0.0625000
        k(   16) = (   0.0000000   0.0000000  -0.3535534), wk =   0.0625000
        k(   17) = (   0.1767767   0.5303301   0.5303301), wk =   0.0625000
        k(   18) = (   0.1767767  -0.5303301  -0.5303301), wk =   0.0625000
        k(   19) = (  -0.1767767   0.5303301  -0.5303301), wk =   0.0625000
        k(   20) = (   0.5303301   0.1767767  -0.5303301), wk =   0.0625000
        k(   21) = (  -0.5303301   0.5303301   0.1767767), wk =   0.0625000
        k(   22) = (  -0.5303301   0.5303301  -0.1767767), wk =   0.0625000
        k(   23) = (   0.5303301   0.5303301   0.1767767), wk =   0.0625000
        k(   24) = (  -0.5303301  -0.5303301   0.1767767), wk =   0.0625000
        k(   25) = (   0.5303301  -0.1767767  -0.5303301), wk =   0.0625000
        k(   26) = (   0.5303301   0.1767767   0.5303301), wk =   0.0625000
        k(   27) = (  -0.5303301   0.1767767  -0.5303301), wk =   0.0625000
        k(   28) = (   0.0000000   0.3535534   0.3535534), wk =   0.0625000
        k(   29) = (   0.3535534   0.0000000  -0.3535534), wk =   0.0625000
        k(   30) = (  -0.3535534   0.3535534   0.0000000), wk =   0.0625000
        k(   31) = (   0.3535534   0.3535534   0.0000000), wk =   0.0625000
        k(   32) = (   0.3535534   0.0000000   0.3535534), wk =   0.0625000
        k(   33) = (   0.0000000   0.7071068   0.0000000), wk =   0.0312500
        k(   34) = (   0.0000000   0.0000000   0.7071068), wk =   0.0312500
        k(   35) = (  -0.3535534   0.7071068   0.0000000), wk =   0.0625000
        k(   36) = (   0.7071068   0.0000000  -0.3535534), wk =   0.0625000

     Dense  grid:     6879 G-vectors     FFT dimensions: (  32,  32,  32)

     Estimated max dynamical RAM per process >      34.48 MB

     Check: negative core charge=   -0.000243

     Initial potential from superposition of free atoms

     starting charge      27.9988, renormalised to      28.0000
     Starting wfcs are   18 randomized atomic wfcs

     total cpu time spent up to now is        1.5 secs

     Self-consistent Calculation

     iteration #  1     ecut=    30.00 Ry     beta= 0.50
     Davidson diagonalization with overlap
     ethr =  1.00E-02,  avg # of iterations =  1.8

     Threshold (ethr) on eigenvalues was too large:
     Diagonalizing with lowered threshold

     Davidson diagonalization with overlap
     ethr =  1.22E-04,  avg # of iterations =  2.2

     total cpu time spent up to now is        4.6 secs

     total energy              =    -421.74088198 Ry
     estimated scf accuracy    <       0.03885665 Ry

     iteration #  2     ecut=    30.00 Ry     beta= 0.50
     Davidson diagonalization with overlap
     ethr =  1.39E-04,  avg # of iterations =  1.0

     total cpu time spent up to now is        6.1 secs

     total energy              =    -421.73978589 Ry
     estimated scf accuracy    <       0.00680010 Ry

     iteration #  3     ecut=    30.00 Ry     beta= 0.50
     Davidson diagonalization with overlap
     ethr =  2.43E-05,  avg # of iterations =  2.0

     total cpu time spent up to now is        7.7 secs

     total energy              =    -421.74034467 Ry
     estimated scf accuracy    <       0.00007854 Ry

     iteration #  4     ecut=    30.00 Ry     beta= 0.50
     Davidson diagonalization with overlap
     c_bands:  1 eigenvalues not converged
     ethr =  2.80E-07,  avg # of iterations =  3.9

     total cpu time spent up to now is        9.8 secs

     total energy              =    -421.74036871 Ry
     estimated scf accuracy    <       0.00001664 Ry

     iteration #  5     ecut=    30.00 Ry     beta= 0.50
     Davidson diagonalization with overlap
     c_bands:  2 eigenvalues not converged
     ethr =  5.94E-08,  avg # of iterations =  2.7

     total cpu time spent up to now is       11.6 secs

     total energy              =    -421.74037337 Ry
     estimated scf accuracy    <       0.00000466 Ry

     iteration #  6     ecut=    30.00 Ry     beta= 0.50
     Davidson diagonalization with overlap
     c_bands:  2 eigenvalues not converged
     ethr =  1.66E-08,  avg # of iterations =  2.5

     total cpu time spent up to now is       13.2 secs

     total energy              =    -421.74037396 Ry
     estimated scf accuracy    <       0.00000188 Ry

     iteration #  7     ecut=    30.00 Ry     beta= 0.50
     Davidson diagonalization with overlap
     c_bands:  2 eigenvalues not converged
     ethr =  6.72E-09,  avg # of iterations =  3.9

     total cpu time spent up to now is       15.1 secs

     total energy              =    -421.74037431 Ry
     estimated scf accuracy    <       0.00000120 Ry

     iteration #  8     ecut=    30.00 Ry     beta= 0.50
     Davidson diagonalization with overlap
     c_bands:  2 eigenvalues not converged
     ethr =  4.28E-09,  avg # of iterations =  2.5

     total cpu time spent up to now is       16.8 secs

     total energy              =    -421.74037464 Ry
     estimated scf accuracy    <       0.00000014 Ry

     iteration #  9     ecut=    30.00 Ry     beta= 0.50
     Davidson diagonalization with overlap
     c_bands:  2 eigenvalues not converged
     ethr =  5.06E-10,  avg # of iterations =  3.7

     total cpu time spent up to now is       18.7 secs

     total energy              =    -421.74037462 Ry
     estimated scf accuracy    <       0.00000056 Ry

     iteration # 10     ecut=    30.00 Ry     beta= 0.50
     Davidson diagonalization with overlap
     c_bands:  2 eigenvalues not converged
     ethr =  5.06E-10,  avg # of iterations =  3.8

     total cpu time spent up to now is       20.9 secs

     total energy              =    -421.74037502 Ry
     estimated scf accuracy    <       0.00000030 Ry

     iteration # 11     ecut=    30.00 Ry     beta= 0.50
     Davidson diagonalization with overlap
     c_bands:  2 eigenvalues not converged
     ethr =  5.06E-10,  avg # of iterations =  3.6

     total cpu time spent up to now is       22.8 secs

     total energy              =    -421.74038130 Ry
     estimated scf accuracy    <       0.00005454 Ry

     iteration # 12     ecut=    30.00 Ry     beta= 0.50
     Davidson diagonalization with overlap
     c_bands:  2 eigenvalues not converged
     ethr =  5.06E-10,  avg # of iterations =  2.5

     total cpu time spent up to now is       24.5 secs

     total energy              =    -421.74037817 Ry
     estimated scf accuracy    <       0.00004916 Ry

     iteration # 13     ecut=    30.00 Ry     beta= 0.50
     Davidson diagonalization with overlap
     c_bands:  2 eigenvalues not converged
     ethr =  5.06E-10,  avg # of iterations =  3.8

     total cpu time spent up to now is       26.5 secs

     total energy              =    -421.74037869 Ry
     estimated scf accuracy    <       0.00004119 Ry

     iteration # 14     ecut=    30.00 Ry     beta= 0.50
     Davidson diagonalization with overlap
     ethr =  5.06E-10,  avg # of iterations =  1.4

     total cpu time spent up to now is       27.9 secs

     total energy              =    -421.74037868 Ry
     estimated scf accuracy    <       0.00003290 Ry

     iteration # 15     ecut=    30.00 Ry     beta= 0.50
     Davidson diagonalization with overlap
     ethr =  5.06E-10,  avg # of iterations =  1.4

     total cpu time spent up to now is       29.4 secs

     total energy              =    -421.74037889 Ry
     estimated scf accuracy    <       0.00002290 Ry

     iteration # 16     ecut=    30.00 Ry     beta= 0.50
     Davidson diagonalization with overlap
     ethr =  5.06E-10,  avg # of iterations =  1.0

     total cpu time spent up to now is       30.8 secs

     total energy              =    -421.74037890 Ry
     estimated scf accuracy    <       0.00002286 Ry

     iteration # 17     ecut=    30.00 Ry     beta= 0.50
     Davidson diagonalization with overlap
     c_bands:  2 eigenvalues not converged
     ethr =  5.06E-10,  avg # of iterations =  3.1

     total cpu time spent up to now is       32.5 secs

     total energy              =    -421.74037854 Ry
     estimated scf accuracy    <       0.00002673 Ry

     iteration # 18     ecut=    30.00 Ry     beta= 0.50
     Davidson diagonalization with overlap
     c_bands:  2 eigenvalues not converged
     ethr =  5.06E-10,  avg # of iterations =  4.2

     total cpu time spent up to now is       34.8 secs

     total energy              =    -421.74037938 Ry
     estimated scf accuracy    <       0.00003354 Ry

     iteration # 19     ecut=    30.00 Ry     beta= 0.50
     Davidson diagonalization with overlap
     c_bands:  1 eigenvalues not converged
     ethr =  5.06E-10,  avg # of iterations =  3.0

     total cpu time spent up to now is       36.5 secs

     total energy              =    -421.74037001 Ry
     estimated scf accuracy    <       0.00003645 Ry

     iteration # 20     ecut=    30.00 Ry     beta= 0.50
     Davidson diagonalization with overlap
     c_bands:  2 eigenvalues not converged
     ethr =  5.06E-10,  avg # of iterations =  7.6

     total cpu time spent up to now is       39.9 secs

     total energy              =    -421.74041571 Ry
     estimated scf accuracy    <       0.00015917 Ry

     iteration # 21     ecut=    30.00 Ry     beta= 0.50
     Davidson diagonalization with overlap
     c_bands:  2 eigenvalues not converged
     ethr =  5.06E-10,  avg # of iterations =  6.5

     total cpu time spent up to now is       42.8 secs

     total energy              =    -421.74041563 Ry
     estimated scf accuracy    <       0.00013313 Ry

     iteration # 22     ecut=    30.00 Ry     beta= 0.50
     Davidson diagonalization with overlap
     c_bands:  2 eigenvalues not converged
     ethr =  5.06E-10,  avg # of iterations =  4.0

     total cpu time spent up to now is       45.0 secs

     total energy              =    -421.74039360 Ry
     estimated scf accuracy    <       0.00012822 Ry

     iteration # 23     ecut=    30.00 Ry     beta= 0.50
     Davidson diagonalization with overlap
     c_bands:  2 eigenvalues not converged
     ethr =  5.06E-10,  avg # of iterations =  5.9

     total cpu time spent up to now is       47.7 secs

     total energy              =    -421.74039609 Ry
     estimated scf accuracy    <       0.00008179 Ry

     iteration # 24     ecut=    30.00 Ry     beta= 0.50
     Davidson diagonalization with overlap
     c_bands:  1 eigenvalues not converged
     ethr =  5.06E-10,  avg # of iterations =  1.5

     total cpu time spent up to now is       49.1 secs

     total energy              =    -421.74039948 Ry
     estimated scf accuracy    <       0.00009227 Ry

     iteration # 25     ecut=    30.00 Ry     beta= 0.50
     Davidson diagonalization with overlap
     c_bands:  2 eigenvalues not converged
     ethr =  5.06E-10,  avg # of iterations =  5.7

     total cpu time spent up to now is       51.8 secs

     total energy              =    -421.74040194 Ry
     estimated scf accuracy    <       0.00010041 Ry

     iteration # 26     ecut=    30.00 Ry     beta= 0.50
     Davidson diagonalization with overlap
     c_bands:  2 eigenvalues not converged
     ethr =  5.06E-10,  avg # of iterations =  2.5

     total cpu time spent up to now is       53.4 secs

     total energy              =    -421.74039749 Ry
     estimated scf accuracy    <       0.00009876 Ry

     iteration # 27     ecut=    30.00 Ry     beta= 0.50
     Davidson diagonalization with overlap
     c_bands:  2 eigenvalues not converged
     ethr =  5.06E-10,  avg # of iterations =  6.9

     total cpu time spent up to now is       56.5 secs

     total energy              =    -421.74042278 Ry
     estimated scf accuracy    <       0.00011251 Ry

     iteration # 28     ecut=    30.00 Ry     beta= 0.50
     Davidson diagonalization with overlap
     c_bands:  2 eigenvalues not converged
     ethr =  5.06E-10,  avg # of iterations =  5.8

     total cpu time spent up to now is       59.1 secs

     total energy              =    -421.74034685 Ry
     estimated scf accuracy    <       0.00015624 Ry

     iteration # 29     ecut=    30.00 Ry     beta= 0.50
     Davidson diagonalization with overlap
     c_bands:  2 eigenvalues not converged
     ethr =  5.06E-10,  avg # of iterations =  8.1

     total cpu time spent up to now is       62.7 secs

     total energy              =    -421.74036712 Ry
     estimated scf accuracy    <       0.00001835 Ry

     iteration # 30     ecut=    30.00 Ry     beta= 0.50
     Davidson diagonalization with overlap
     c_bands:  2 eigenvalues not converged
     ethr =  5.06E-10,  avg # of iterations =  6.8

     total cpu time spent up to now is       65.8 secs

     total energy              =    -421.74035971 Ry
     estimated scf accuracy    <       0.00012502 Ry

     iteration # 31     ecut=    30.00 Ry     beta= 0.50
     Davidson diagonalization with overlap
     c_bands:  1 eigenvalues not converged
     ethr =  5.06E-10,  avg # of iterations =  7.6

     total cpu time spent up to now is       69.0 secs

     total energy              =    -421.74035961 Ry
     estimated scf accuracy    <       0.00001770 Ry

     iteration # 32     ecut=    30.00 Ry     beta= 0.50
     Davidson diagonalization with overlap
     c_bands:  2 eigenvalues not converged
     ethr =  5.06E-10,  avg # of iterations =  5.9

     total cpu time spent up to now is       71.7 secs

     total energy              =    -421.74036257 Ry
     estimated scf accuracy    <       0.00000314 Ry

     iteration # 33     ecut=    30.00 Ry     beta= 0.50
     Davidson diagonalization with overlap
     c_bands:  2 eigenvalues not converged
     ethr =  5.06E-10,  avg # of iterations =  7.1

     total cpu time spent up to now is       74.9 secs

     total energy              =    -421.74036452 Ry
     estimated scf accuracy    <       0.00005455 Ry

     iteration # 34     ecut=    30.00 Ry     beta= 0.50
     Davidson diagonalization with overlap
     c_bands:  2 eigenvalues not converged
     ethr =  5.06E-10,  avg # of iterations =  8.4

     total cpu time spent up to now is       78.6 secs

     total energy              =    -421.74035972 Ry
     estimated scf accuracy    <       0.00005160 Ry

     iteration # 35     ecut=    30.00 Ry     beta= 0.50
     Davidson diagonalization with overlap
     c_bands:  2 eigenvalues not converged
     ethr =  5.06E-10,  avg # of iterations =  7.6

     total cpu time spent up to now is       81.8 secs

     total energy              =    -421.74041668 Ry
     estimated scf accuracy    <       0.00012030 Ry

     iteration # 36     ecut=    30.00 Ry     beta= 0.50
     Davidson diagonalization with overlap
     c_bands:  2 eigenvalues not converged
     ethr =  5.06E-10,  avg # of iterations =  2.8

     total cpu time spent up to now is       83.6 secs

     total energy              =    -421.74038885 Ry
     estimated scf accuracy    <       0.00013004 Ry

     iteration # 37     ecut=    30.00 Ry     beta= 0.50
     Davidson diagonalization with overlap
     c_bands:  1 eigenvalues not converged
     ethr =  5.06E-10,  avg # of iterations =  6.4

     total cpu time spent up to now is       86.4 secs

     total energy              =    -421.74042724 Ry
     estimated scf accuracy    <       0.00007932 Ry

     iteration # 38     ecut=    30.00 Ry     beta= 0.50
     Davidson diagonalization with overlap
     c_bands:  2 eigenvalues not converged
     ethr =  5.06E-10,  avg # of iterations =  7.1

     total cpu time spent up to now is       89.5 secs

     total energy              =    -421.74041903 Ry
     estimated scf accuracy    <       0.00016769 Ry

     iteration # 39     ecut=    30.00 Ry     beta= 0.50
     Davidson diagonalization with overlap
     c_bands:  2 eigenvalues not converged
     ethr =  5.06E-10,  avg # of iterations =  5.4

     total cpu time spent up to now is       92.0 secs

     total energy              =    -421.74041611 Ry
     estimated scf accuracy    <       0.00013779 Ry

     iteration # 40     ecut=    30.00 Ry     beta= 0.50
     Davidson diagonalization with overlap
     c_bands:  1 eigenvalues not converged
     ethr =  5.06E-10,  avg # of iterations =  3.3

     total cpu time spent up to now is       93.7 secs

     total energy              =    -421.74038716 Ry
     estimated scf accuracy    <       0.00013331 Ry

     iteration # 41     ecut=    30.00 Ry     beta= 0.50
     Davidson diagonalization with overlap
     c_bands:  1 eigenvalues not converged
     ethr =  5.06E-10,  avg # of iterations =  6.2

     total cpu time spent up to now is       96.5 secs

     total energy              =    -421.74037791 Ry
     estimated scf accuracy    <       0.00007354 Ry

     iteration # 42     ecut=    30.00 Ry     beta= 0.50
     Davidson diagonalization with overlap
     c_bands:  2 eigenvalues not converged
     ethr =  5.06E-10,  avg # of iterations =  5.8

     total cpu time spent up to now is       99.1 secs

     total energy              =    -421.74037421 Ry
     estimated scf accuracy    <       0.00005428 Ry

     iteration # 43     ecut=    30.00 Ry     beta= 0.50
     Davidson diagonalization with overlap
     c_bands:  2 eigenvalues not converged
     ethr =  5.06E-10,  avg # of iterations =  4.3

     total cpu time spent up to now is      101.3 secs

     total energy              =    -421.74036300 Ry
     estimated scf accuracy    <       0.00004410 Ry

     iteration # 44     ecut=    30.00 Ry     beta= 0.50
     Davidson diagonalization with overlap
     c_bands:  2 eigenvalues not converged
     ethr =  5.06E-10,  avg # of iterations =  6.6

     total cpu time spent up to now is      104.3 secs

     total energy              =    -421.74036755 Ry
     estimated scf accuracy    <       0.00002442 Ry

     iteration # 45     ecut=    30.00 Ry     beta= 0.50
     Davidson diagonalization with overlap
     c_bands:  2 eigenvalues not converged
     ethr =  5.06E-10,  avg # of iterations =  2.4

     total cpu time spent up to now is      105.9 secs

     total energy              =    -421.74036980 Ry
     estimated scf accuracy    <       0.00005601 Ry

     iteration # 46     ecut=    30.00 Ry     beta= 0.50
     Davidson diagonalization with overlap
     c_bands:  2 eigenvalues not converged
     ethr =  5.06E-10,  avg # of iterations =  5.4

     total cpu time spent up to now is      108.4 secs

     total energy              =    -421.74038627 Ry
     estimated scf accuracy    <       0.00005762 Ry

     iteration # 47     ecut=    30.00 Ry     beta= 0.50
     Davidson diagonalization with overlap
     c_bands:  2 eigenvalues not converged
     ethr =  5.06E-10,  avg # of iterations =  3.4

     total cpu time spent up to now is      110.1 secs

     total energy              =    -421.74039765 Ry
     estimated scf accuracy    <       0.00008299 Ry

     iteration # 48     ecut=    30.00 Ry     beta= 0.50
     Davidson diagonalization with overlap
     c_bands:  2 eigenvalues not converged
     ethr =  5.06E-10,  avg # of iterations =  3.7

     total cpu time spent up to now is      112.0 secs

     total energy              =    -421.74038423 Ry
     estimated scf accuracy    <       0.00010767 Ry

     iteration # 49     ecut=    30.00 Ry     beta= 0.50
     Davidson diagonalization with overlap
     c_bands:  2 eigenvalues not converged
     ethr =  5.06E-10,  avg # of iterations =  6.8

     total cpu time spent up to now is      115.1 secs

     total energy              =    -421.74038455 Ry
     estimated scf accuracy    <       0.00012968 Ry

     iteration # 50     ecut=    30.00 Ry     beta= 0.50
     Davidson diagonalization with overlap
     c_bands:  2 eigenvalues not converged
     ethr =  5.06E-10,  avg # of iterations =  6.2

     total cpu time spent up to now is      117.9 secs

     total energy              =    -421.74036317 Ry
     estimated scf accuracy    <       0.00006997 Ry

     iteration # 51     ecut=    30.00 Ry     beta= 0.50
     Davidson diagonalization with overlap
     c_bands:  2 eigenvalues not converged
     ethr =  5.06E-10,  avg # of iterations =  7.2

     total cpu time spent up to now is      121.1 secs

     total energy              =    -421.74037270 Ry
     estimated scf accuracy    <       0.00002383 Ry

     iteration # 52     ecut=    30.00 Ry     beta= 0.50
     Davidson diagonalization with overlap
     c_bands:  2 eigenvalues not converged
     ethr =  5.06E-10,  avg # of iterations =  5.6

     total cpu time spent up to now is      123.6 secs

     total energy              =    -421.74037599 Ry
     estimated scf accuracy    <       0.00003677 Ry

     iteration # 53     ecut=    30.00 Ry     beta= 0.50
     Davidson diagonalization with overlap
     ethr =  5.06E-10,  avg # of iterations =  3.2

     total cpu time spent up to now is      125.4 secs

     total energy              =    -421.74048769 Ry
     estimated scf accuracy    <       0.00004215 Ry

     iteration # 54     ecut=    30.00 Ry     beta= 0.50
     Davidson diagonalization with overlap
     c_bands:  2 eigenvalues not converged
     ethr =  5.06E-10,  avg # of iterations =  8.5

     total cpu time spent up to now is      129.2 secs

     total energy              =    -421.74032779 Ry
     estimated scf accuracy    <       0.00034709 Ry

     iteration # 55     ecut=    30.00 Ry     beta= 0.50
     Davidson diagonalization with overlap
     c_bands:  2 eigenvalues not converged
     ethr =  5.06E-10,  avg # of iterations =  8.7

     total cpu time spent up to now is      133.0 secs

     total energy              =    -421.74040124 Ry
     estimated scf accuracy    <       0.00008042 Ry

     iteration # 56     ecut=    30.00 Ry     beta= 0.50
     Davidson diagonalization with overlap
     c_bands:  2 eigenvalues not converged
     ethr =  5.06E-10,  avg # of iterations =  6.1

     total cpu time spent up to now is      135.8 secs

     total energy              =    -421.74039991 Ry
     estimated scf accuracy    <       0.00013691 Ry

     iteration # 57     ecut=    30.00 Ry     beta= 0.50
     Davidson diagonalization with overlap
     c_bands:  2 eigenvalues not converged
     ethr =  5.06E-10,  avg # of iterations =  6.6

     total cpu time spent up to now is      138.5 secs

     total energy              =    -421.74034965 Ry
     estimated scf accuracy    <       0.00013653 Ry

     iteration # 58     ecut=    30.00 Ry     beta= 0.50
     Davidson diagonalization with overlap
     c_bands:  2 eigenvalues not converged
     ethr =  5.06E-10,  avg # of iterations =  8.0

     total cpu time spent up to now is      141.8 secs

     total energy              =    -421.74035937 Ry
     estimated scf accuracy    <       0.00001016 Ry

     iteration # 59     ecut=    30.00 Ry     beta= 0.50
     Davidson diagonalization with overlap
     c_bands:  2 eigenvalues not converged
     ethr =  5.06E-10,  avg # of iterations =  5.1

     total cpu time spent up to now is      144.2 secs

     total energy              =    -421.74035977 Ry
     estimated scf accuracy    <       0.00000691 Ry

     iteration # 60     ecut=    30.00 Ry     beta= 0.50
     Davidson diagonalization with overlap
     c_bands:  2 eigenvalues not converged
     ethr =  5.06E-10,  avg # of iterations =  2.5

     total cpu time spent up to now is      145.8 secs

     total energy              =    -421.74036147 Ry
     estimated scf accuracy    <       0.00001140 Ry

     iteration # 61     ecut=    30.00 Ry     beta= 0.50
     Davidson diagonalization with overlap
     c_bands:  2 eigenvalues not converged
     ethr =  5.06E-10,  avg # of iterations =  4.4

     total cpu time spent up to now is      148.1 secs

     total energy              =    -421.74036429 Ry
     estimated scf accuracy    <       0.00001776 Ry

     iteration # 62     ecut=    30.00 Ry     beta= 0.50
     Davidson diagonalization with overlap
     c_bands:  2 eigenvalues not converged
     ethr =  5.06E-10,  avg # of iterations =  2.5

     total cpu time spent up to now is      149.8 secs

     total energy              =    -421.74038183 Ry
     estimated scf accuracy    <       0.00004030 Ry

     iteration # 63     ecut=    30.00 Ry     beta= 0.50
     Davidson diagonalization with overlap
     c_bands:  2 eigenvalues not converged
     ethr =  5.06E-10,  avg # of iterations =  5.4

     total cpu time spent up to now is      152.2 secs

     total energy              =    -421.74037946 Ry
     estimated scf accuracy    <       0.00015149 Ry

     iteration # 64     ecut=    30.00 Ry     beta= 0.50
     Davidson diagonalization with overlap
     c_bands:  2 eigenvalues not converged
     ethr =  5.06E-10,  avg # of iterations =  6.9

     total cpu time spent up to now is      155.2 secs

     total energy              =    -421.74042837 Ry
     estimated scf accuracy    <       0.00006851 Ry

     iteration # 65     ecut=    30.00 Ry     beta= 0.50
     Davidson diagonalization with overlap
     c_bands:  2 eigenvalues not converged
     ethr =  5.06E-10,  avg # of iterations =  6.9

     total cpu time spent up to now is      158.2 secs

     total energy              =    -421.74036095 Ry
     estimated scf accuracy    <       0.00017572 Ry

     iteration # 66     ecut=    30.00 Ry     beta= 0.50
     Davidson diagonalization with overlap
     c_bands:  2 eigenvalues not converged
     ethr =  5.06E-10,  avg # of iterations =  7.7

     total cpu time spent up to now is      161.5 secs

     total energy              =    -421.74036014 Ry
     estimated scf accuracy    <       0.00002726 Ry

     iteration # 67     ecut=    30.00 Ry     beta= 0.50
     Davidson diagonalization with overlap
     ethr =  5.06E-10,  avg # of iterations =  5.5

     total cpu time spent up to now is      164.1 secs

     total energy              =    -421.74035816 Ry
     estimated scf accuracy    <       0.00000614 Ry

     iteration # 68     ecut=    30.00 Ry     beta= 0.50
     Davidson diagonalization with overlap
     ethr =  5.06E-10,  avg # of iterations =  5.4

     total cpu time spent up to now is      166.6 secs

     total energy              =    -421.74035908 Ry
     estimated scf accuracy    <       0.00000103 Ry

     iteration # 69     ecut=    30.00 Ry     beta= 0.50
     Davidson diagonalization with overlap
     ethr =  5.06E-10,  avg # of iterations =  1.2

     total cpu time spent up to now is      167.9 secs

     total energy              =    -421.74035910 Ry
     estimated scf accuracy    <       0.00000105 Ry

     iteration # 70     ecut=    30.00 Ry     beta= 0.50
     Davidson diagonalization with overlap
     ethr =  5.06E-10,  avg # of iterations =  1.0

     total cpu time spent up to now is      169.3 secs

     total energy              =    -421.74036028 Ry
     estimated scf accuracy    <       0.00000109 Ry

     iteration # 71     ecut=    30.00 Ry     beta= 0.50
     Davidson diagonalization with overlap
     ethr =  5.06E-10,  avg # of iterations =  4.5

     total cpu time spent up to now is      171.6 secs

     total energy              =    -421.74039182 Ry
     estimated scf accuracy    <       0.00017380 Ry

     iteration # 72     ecut=    30.00 Ry     beta= 0.50
     Davidson diagonalization with overlap
     c_bands:  2 eigenvalues not converged
     ethr =  5.06E-10,  avg # of iterations =  6.8

     total cpu time spent up to now is      174.3 secs

     total energy              =    -421.74036757 Ry
     estimated scf accuracy    <       0.00007931 Ry

     iteration # 73     ecut=    30.00 Ry     beta= 0.50
     Davidson diagonalization with overlap
     c_bands:  2 eigenvalues not converged
     ethr =  5.06E-10,  avg # of iterations =  6.8

     total cpu time spent up to now is      177.0 secs

     total energy              =    -421.74036345 Ry
     estimated scf accuracy    <       0.00002398 Ry

     iteration # 74     ecut=    30.00 Ry     beta= 0.50
     Davidson diagonalization with overlap
     c_bands:  2 eigenvalues not converged
     ethr =  5.06E-10,  avg # of iterations =  5.4

     total cpu time spent up to now is      179.2 secs

     total energy              =    -421.74037950 Ry
     estimated scf accuracy    <       0.00001161 Ry

     iteration # 75     ecut=    30.00 Ry     beta= 0.50
     Davidson diagonalization with overlap
     c_bands:  2 eigenvalues not converged
     ethr =  5.06E-10,  avg # of iterations =  6.5

     total cpu time spent up to now is      182.1 secs

     total energy              =    -421.74038434 Ry
     estimated scf accuracy    <       0.00005896 Ry

     iteration # 76     ecut=    30.00 Ry     beta= 0.50
     Davidson diagonalization with overlap
     c_bands:  2 eigenvalues not converged
     ethr =  5.06E-10,  avg # of iterations =  2.5

     total cpu time spent up to now is      183.7 secs

     total energy              =    -421.74036713 Ry
     estimated scf accuracy    <       0.00006282 Ry

     iteration # 77     ecut=    30.00 Ry     beta= 0.50
     Davidson diagonalization with overlap
     c_bands:  2 eigenvalues not converged
     ethr =  5.06E-10,  avg # of iterations =  6.7

     total cpu time spent up to now is      186.6 secs

     total energy              =    -421.74037670 Ry
     estimated scf accuracy    <       0.00004826 Ry

     iteration # 78     ecut=    30.00 Ry     beta= 0.50
     Davidson diagonalization with overlap
     c_bands:  2 eigenvalues not converged
     ethr =  5.06E-10,  avg # of iterations =  5.9

     total cpu time spent up to now is      189.2 secs

     total energy              =    -421.74038322 Ry
     estimated scf accuracy    <       0.00006840 Ry

     iteration # 79     ecut=    30.00 Ry     beta= 0.50
     Davidson diagonalization with overlap
     c_bands:  2 eigenvalues not converged
     ethr =  5.06E-10,  avg # of iterations =  4.6

     total cpu time spent up to now is      191.5 secs

     total energy              =    -421.74039328 Ry
     estimated scf accuracy    <       0.00006466 Ry

     iteration # 80     ecut=    30.00 Ry     beta= 0.50
     Davidson diagonalization with overlap
     c_bands:  2 eigenvalues not converged
     ethr =  5.06E-10,  avg # of iterations =  4.9

     total cpu time spent up to now is      193.8 secs

     total energy              =    -421.74040639 Ry
     estimated scf accuracy    <       0.00011695 Ry

     iteration # 81     ecut=    30.00 Ry     beta= 0.50
     Davidson diagonalization with overlap
     c_bands:  2 eigenvalues not converged
     ethr =  5.06E-10,  avg # of iterations =  1.6

     total cpu time spent up to now is      195.3 secs

     total energy              =    -421.74039605 Ry
     estimated scf accuracy    <       0.00012741 Ry

     iteration # 82     ecut=    30.00 Ry     beta= 0.50
     Davidson diagonalization with overlap
     c_bands:  2 eigenvalues not converged
     ethr =  5.06E-10,  avg # of iterations =  5.4

     total cpu time spent up to now is      197.7 secs

     total energy              =    -421.74042168 Ry
     estimated scf accuracy    <       0.00008359 Ry

     iteration # 83     ecut=    30.00 Ry     beta= 0.50
     Davidson diagonalization with overlap
     c_bands:  2 eigenvalues not converged
     ethr =  5.06E-10,  avg # of iterations =  5.7

     total cpu time spent up to now is      200.3 secs

     total energy              =    -421.74034871 Ry
     estimated scf accuracy    <       0.00014122 Ry

     iteration # 84     ecut=    30.00 Ry     beta= 0.50
     Davidson diagonalization with overlap
     c_bands:  1 eigenvalues not converged
     ethr =  5.06E-10,  avg # of iterations =  8.1

     total cpu time spent up to now is      203.6 secs

     total energy              =    -421.74036427 Ry
     estimated scf accuracy    <       0.00008668 Ry

     iteration # 85     ecut=    30.00 Ry     beta= 0.50
     Davidson diagonalization with overlap
     c_bands:  2 eigenvalues not converged
     ethr =  5.06E-10,  avg # of iterations =  7.0

     total cpu time spent up to now is      206.6 secs

     total energy              =    -421.74036698 Ry
     estimated scf accuracy    <       0.00001905 Ry

     iteration # 86     ecut=    30.00 Ry     beta= 0.50
     Davidson diagonalization with overlap
     c_bands:  2 eigenvalues not converged
     ethr =  5.06E-10,  avg # of iterations =  2.5

     total cpu time spent up to now is      208.3 secs

     total energy              =    -421.74036093 Ry
     estimated scf accuracy    <       0.00001711 Ry

     iteration # 87     ecut=    30.00 Ry     beta= 0.50
     Davidson diagonalization with overlap
     c_bands:  2 eigenvalues not converged
     ethr =  5.06E-10,  avg # of iterations =  5.4

     total cpu time spent up to now is      210.7 secs

     total energy              =    -421.74036630 Ry
     estimated scf accuracy    <       0.00000496 Ry

     iteration # 88     ecut=    30.00 Ry     beta= 0.50
     Davidson diagonalization with overlap
     c_bands:  2 eigenvalues not converged
     ethr =  5.06E-10,  avg # of iterations =  5.2

     total cpu time spent up to now is      213.1 secs

     total energy              =    -421.74036019 Ry
     estimated scf accuracy    <       0.00001687 Ry

     iteration # 89     ecut=    30.00 Ry     beta= 0.50
     Davidson diagonalization with overlap
     c_bands:  2 eigenvalues not converged
     ethr =  5.06E-10,  avg # of iterations =  5.5

     total cpu time spent up to now is      215.6 secs

     total energy              =    -421.74038595 Ry
     estimated scf accuracy    <       0.00010003 Ry

     iteration # 90     ecut=    30.00 Ry     beta= 0.50
     Davidson diagonalization with overlap
     c_bands:  2 eigenvalues not converged
     ethr =  5.06E-10,  avg # of iterations =  5.5

     total cpu time spent up to now is      218.0 secs

     total energy              =    -421.74040300 Ry
     estimated scf accuracy    <       0.00006117 Ry

     iteration # 91     ecut=    30.00 Ry     beta= 0.50
     Davidson diagonalization with overlap
     c_bands:  2 eigenvalues not converged
     ethr =  5.06E-10,  avg # of iterations =  5.4

     total cpu time spent up to now is      220.4 secs

     total energy              =    -421.74040058 Ry
     estimated scf accuracy    <       0.00009857 Ry

     iteration # 92     ecut=    30.00 Ry     beta= 0.50
     Davidson diagonalization with overlap
     ethr =  5.06E-10,  avg # of iterations =  3.2

     total cpu time spent up to now is      222.1 secs

     total energy              =    -421.74038536 Ry
     estimated scf accuracy    <       0.00009190 Ry

     iteration # 93     ecut=    30.00 Ry     beta= 0.50
     Davidson diagonalization with overlap
     ethr =  5.06E-10,  avg # of iterations =  5.3

     total cpu time spent up to now is      224.5 secs

     total energy              =    -421.74039285 Ry
     estimated scf accuracy    <       0.00005959 Ry

     iteration # 94     ecut=    30.00 Ry     beta= 0.50
     Davidson diagonalization with overlap
     c_bands:  1 eigenvalues not converged
     ethr =  5.06E-10,  avg # of iterations =  4.2

     total cpu time spent up to now is      226.7 secs

     total energy              =    -421.74038157 Ry
     estimated scf accuracy    <       0.00007599 Ry

     iteration # 95     ecut=    30.00 Ry     beta= 0.50
     Davidson diagonalization with overlap
     c_bands:  1 eigenvalues not converged
     ethr =  5.06E-10,  avg # of iterations =  4.9

     total cpu time spent up to now is      229.0 secs

     total energy              =    -421.74038352 Ry
     estimated scf accuracy    <       0.00005161 Ry

     iteration # 96     ecut=    30.00 Ry     beta= 0.50
     Davidson diagonalization with overlap
     ethr =  5.06E-10,  avg # of iterations =  2.4

     total cpu time spent up to now is      230.7 secs

     total energy              =    -421.74037277 Ry
     estimated scf accuracy    <       0.00006004 Ry

     iteration # 97     ecut=    30.00 Ry     beta= 0.50
     Davidson diagonalization with overlap
     c_bands:  2 eigenvalues not converged
     ethr =  5.06E-10,  avg # of iterations =  5.4

     total cpu time spent up to now is      233.1 secs

     total energy              =    -421.74036173 Ry
     estimated scf accuracy    <       0.00004264 Ry

     iteration # 98     ecut=    30.00 Ry     beta= 0.50
     Davidson diagonalization with overlap
     c_bands:  2 eigenvalues not converged
     ethr =  5.06E-10,  avg # of iterations =  7.2

     total cpu time spent up to now is      236.2 secs

     total energy              =    -421.74036604 Ry
     estimated scf accuracy    <       0.00003869 Ry

     iteration # 99     ecut=    30.00 Ry     beta= 0.50
     Davidson diagonalization with overlap
     c_bands:  2 eigenvalues not converged
     ethr =  5.06E-10,  avg # of iterations =  4.8

     total cpu time spent up to now is      238.5 secs

     total energy              =    -421.74041495 Ry
     estimated scf accuracy    <       0.00010055 Ry

     iteration #100     ecut=    30.00 Ry     beta= 0.50
     Davidson diagonalization with overlap
     c_bands:  2 eigenvalues not converged
     ethr =  5.06E-10,  avg # of iterations =  5.7

     total cpu time spent up to now is      241.1 secs

     total energy              =    -421.74043387 Ry
     estimated scf accuracy    <       0.00017517 Ry

     End of self-consistent calculation

     convergence NOT achieved after 100 iterations: stopping

     Writing config to output data dir /home/gridsan/epan1/labutil/lab2_samples/problem7/Lab2/Problem1/5.715111599999998/pwscf.save/

     init_run     :      1.75s CPU      1.33s WALL (       1 calls)
     electrons    :    352.18s CPU    239.74s WALL (       1 calls)

     Called by init_run:
     wfcinit      :      1.34s CPU      0.88s WALL (       1 calls)
     potinit      :      0.01s CPU      0.01s WALL (       1 calls)
     hinit0       :      0.39s CPU      0.41s WALL (       1 calls)

     Called by electrons:
     c_bands      :    308.14s CPU    209.56s WALL (     101 calls)
     sum_band     :     39.14s CPU     26.80s WALL (     101 calls)
     v_of_rho     :      0.65s CPU      0.48s WALL (     101 calls)
     newd         :      3.59s CPU      2.30s WALL (     101 calls)
     mix_rho      :      0.47s CPU      0.36s WALL (     101 calls)

     Called by c_bands:
     init_us_2    :      8.57s CPU      5.86s WALL (    7308 calls)
     init_us_2:cp :      8.50s CPU      5.82s WALL (    7308 calls)
     cegterg      :    288.24s CPU    195.09s WALL (    3636 calls)

     Called by *egterg:
     cdiaghg      :     21.36s CPU     14.34s WALL (   21267 calls)
     h_psi        :    234.42s CPU    159.61s WALL (   21339 calls)
     s_psi        :      5.22s CPU      3.51s WALL (   21339 calls)
     g_psi        :      2.56s CPU      1.65s WALL (   17667 calls)

     Called by h_psi:
     h_psi:calbec :      5.75s CPU      3.97s WALL (   21339 calls)
     vloc_psi     :    221.50s CPU    150.82s WALL (   21339 calls)
     add_vuspsi   :      5.64s CPU      3.84s WALL (   21339 calls)

     General routines
     calbec       :      6.83s CPU      4.71s WALL (   24975 calls)
     fft          :      0.45s CPU      0.36s WALL (     406 calls)
     ffts         :      0.10s CPU      0.07s WALL (     101 calls)
     fftw         :    198.49s CPU    135.53s WALL (  418884 calls)
     davcio       :      0.06s CPU      0.43s WALL (      54 calls)

     Parallel routines

     PWSCF        :   5m54.11s CPU   4m 1.62s WALL


   This run was terminated on:  15:46:55  14Oct2023            

=------------------------------------------------------------------------------=
   JOB DONE.
=------------------------------------------------------------------------------=
