
     Program PWSCF v.7.2 starts on  1Nov2023 at 16:49:46 

     This program is part of the open-source Quantum ESPRESSO suite
     for quantum simulation of materials; please cite
         "P. Giannozzi et al., J. Phys.:Condens. Matter 21 395502 (2009);
         "P. Giannozzi et al., J. Phys.:Condens. Matter 29 465901 (2017);
         "P. Giannozzi et al., J. Chem. Phys. 152 154105 (2020);
          URL http://www.quantum-espresso.org", 
     in publications or presentations arising from this work. More details at
     http://www.quantum-espresso.org/quote

     Parallel version (MPI), running on     4 processors

     MPI processes distributed on     4 nodes
     185699 MiB available memory on the printing compute node when the environment starts

     Waiting for input...
     Reading input from standard input
Warning: card &CELL ignored
Warning: card / ignored

     Current dimensions of program PWSCF are:
     Max number of different atomic species (ntypx) = 10
     Max number of k-points (npk) =  40000
     Max angular momentum in pseudopotentials (lmaxx) =  4
     file Fe.pbe-nd-rrkjus.UPF: wavefunction(s)  4S renormalized
     Message from routine setup:
     using ibrav=0 with symmetry is DISCOURAGED, use correct ibrav instead

     R & G space division:  proc/nbgrp/npool/nimage =       4
     Subspace diagonalization in iterative solution of the eigenvalue problem:
     a serial algorithm will be used


     Parallelization info
     --------------------
     sticks:   dense  smooth     PW     G-vecs:    dense   smooth      PW
     Min          52      27      9                 1008      361      77
     Max          53      28     10                 1013      366      82
     Sum         211     109     37                 4043     1449     313

     Using Slab Decomposition



     bravais-lattice index     =            0
     lattice parameter (alat)  =       3.5905  a.u.
     unit-cell volume          =      65.4595 (a.u.)^3
     number of atoms/cell      =            2
     number of atomic types    =            1
     number of electrons       =        16.00
     number of Kohn-Sham states=           12
     kinetic-energy cutoff     =      30.0000  Ry
     charge density cutoff     =     240.0000  Ry
     scf convergence threshold =      1.0E-07
     mixing beta               =       0.5000
     number of iterations used =            8  plain     mixing
     Exchange-correlation=  SLA  PW   PBE  PBE
                           (   1   4   3   4   0   0   0)

     celldm(1)=   3.590480  celldm(2)=   0.000000  celldm(3)=   0.000000
     celldm(4)=   0.000000  celldm(5)=   0.000000  celldm(6)=   0.000000

     crystal axes: (cart. coord. in units of alat)
               a(1) = (   1.000000   0.000000   0.000000 )  
               a(2) = (  -0.500000   0.866025   0.000000 )  
               a(3) = (   0.000000   0.000000   1.632993 )  

     reciprocal axes: (cart. coord. in units 2 pi/alat)
               b(1) = (  1.000000  0.577350 -0.000000 )  
               b(2) = (  0.000000  1.154701  0.000000 )  
               b(3) = (  0.000000 -0.000000  0.612372 )  


     PseudoPot. # 1 for Fe read from file:
     /home/gridsan/epan1/labutil/lab3_samples/pseudopotentials/Fe.pbe-nd-rrkjus.UPF
     MD5 check sum: 398036227a04b607635f6f5e8dfd8242
     Pseudo is Ultrasoft + core correction, Zval =  8.0
     Generated by new atomic code, or converted to UPF format
     Using radial grid of  957 points,  6 beta functions with: 
                l(1) =   0
                l(2) =   0
                l(3) =   1
                l(4) =   1
                l(5) =   2
                l(6) =   2
     Q(r) pseudized with 0 coefficients 


     atomic species   valence    mass     pseudopotential
        Fe             8.00    55.84500     Fe( 1.00)

     Starting magnetic structure 
     atomic species   magnetization
        Fe           0.700

     12 Sym. Ops. (no inversion) found



   Cartesian axes

     site n.     atom                  positions (alat units)
         1           Fe  tau(   1) = (   0.0000000   0.0000000   0.0000000  )
         2           Fe  tau(   2) = (   0.0000000   0.5773526   0.8164947  )

     number of k points=    32  Methfessel-Paxton smearing, width (Ry)=  0.0200
                       cart. coord. in units 2pi/alat
        k(    1) = (   0.0000000   0.0000000   0.0000000), wk =   0.0029155
        k(    2) = (   0.0000000   0.0000000   0.0874818), wk =   0.0058309
        k(    3) = (   0.0000000   0.0000000   0.1749636), wk =   0.0058309
        k(    4) = (   0.0000000   0.0000000   0.2624453), wk =   0.0058309
        k(    5) = (   0.0000000   0.1649572   0.0000000), wk =   0.0174927
        k(    6) = (   0.0000000   0.1649572   0.0874818), wk =   0.0349854
        k(    7) = (   0.0000000   0.1649572   0.1749636), wk =   0.0349854
        k(    8) = (   0.0000000   0.1649572   0.2624453), wk =   0.0349854
        k(    9) = (   0.0000000   0.3299144   0.0000000), wk =   0.0174927
        k(   10) = (   0.0000000   0.3299144   0.0874818), wk =   0.0349854
        k(   11) = (   0.0000000   0.3299144   0.1749636), wk =   0.0349854
        k(   12) = (   0.0000000   0.3299144   0.2624453), wk =   0.0349854
        k(   13) = (   0.0000000   0.4948717   0.0000000), wk =   0.0174927
        k(   14) = (   0.0000000   0.4948717   0.0874818), wk =   0.0349854
        k(   15) = (   0.0000000   0.4948717   0.1749636), wk =   0.0349854
        k(   16) = (   0.0000000   0.4948717   0.2624453), wk =   0.0349854
        k(   17) = (   0.1428571   0.2474358   0.0000000), wk =   0.0174927
        k(   18) = (   0.1428571   0.2474358   0.0874818), wk =   0.0349854
        k(   19) = (   0.1428571   0.2474358   0.1749636), wk =   0.0349854
        k(   20) = (   0.1428571   0.2474358   0.2624453), wk =   0.0349854
        k(   21) = (   0.1428571   0.4123930   0.0000000), wk =   0.0349854
        k(   22) = (   0.1428571   0.4123930   0.0874818), wk =   0.0699708
        k(   23) = (   0.1428571   0.4123930   0.1749636), wk =   0.0699708
        k(   24) = (   0.1428571   0.4123930   0.2624453), wk =   0.0699708
        k(   25) = (   0.1428571   0.5773503   0.0000000), wk =   0.0174927
        k(   26) = (   0.1428571   0.5773503   0.0874818), wk =   0.0349854
        k(   27) = (   0.1428571   0.5773503   0.1749636), wk =   0.0349854
        k(   28) = (   0.1428571   0.5773503   0.2624453), wk =   0.0349854
        k(   29) = (   0.2857143   0.4948717   0.0000000), wk =   0.0174927
        k(   30) = (   0.2857143   0.4948717   0.0874818), wk =   0.0349854
        k(   31) = (   0.2857143   0.4948717   0.1749636), wk =   0.0349854
        k(   32) = (   0.2857143   0.4948717   0.2624453), wk =   0.0349854

     Dense  grid:     4043 G-vectors     FFT dimensions: (  18,  18,  30)

     Smooth grid:     1449 G-vectors     FFT dimensions: (  15,  15,  24)

     Estimated max dynamical RAM per process >       5.94 MB

     Estimated total dynamical RAM >      23.75 MB
     Generating pointlists ...
     new r_m :   0.4125 (alat units)  1.4811 (a.u.) for type    1

     Initial potential from superposition of free atoms

     starting charge      15.9987, renormalised to      16.0000
     Starting wfcs are   12 randomized atomic wfcs

     total cpu time spent up to now is        0.4 secs

     Self-consistent Calculation

     iteration #  1     ecut=    30.00 Ry     beta= 0.50
     Davidson diagonalization with overlap
     ethr =  1.00E-02,  avg # of iterations =  3.9

     total cpu time spent up to now is        0.8 secs

     total energy              =    -109.89008738 Ry
     estimated scf accuracy    <       0.48390478 Ry

     total magnetization       =     3.42 Bohr mag/cell
     absolute magnetization    =     3.42 Bohr mag/cell

     iteration #  2     ecut=    30.00 Ry     beta= 0.50
     Davidson diagonalization with overlap
     ethr =  3.02E-03,  avg # of iterations =  1.0

     total cpu time spent up to now is        1.0 secs

     total energy              =    -110.01359259 Ry
     estimated scf accuracy    <       0.27701080 Ry

     total magnetization       =     1.80 Bohr mag/cell
     absolute magnetization    =     1.80 Bohr mag/cell

     iteration #  3     ecut=    30.00 Ry     beta= 0.50
     Davidson diagonalization with overlap
     ethr =  1.73E-03,  avg # of iterations =  2.0

     total cpu time spent up to now is        1.2 secs

     total energy              =    -110.26066323 Ry
     estimated scf accuracy    <       0.13403024 Ry

     total magnetization       =    -0.89 Bohr mag/cell
     absolute magnetization    =     0.89 Bohr mag/cell

     iteration #  4     ecut=    30.00 Ry     beta= 0.50
     Davidson diagonalization with overlap
     ethr =  8.38E-04,  avg # of iterations =  1.0

     total cpu time spent up to now is        1.4 secs

     total energy              =    -110.25727959 Ry
     estimated scf accuracy    <       0.03934635 Ry

     total magnetization       =    -0.52 Bohr mag/cell
     absolute magnetization    =     0.52 Bohr mag/cell

     iteration #  5     ecut=    30.00 Ry     beta= 0.50
     Davidson diagonalization with overlap
     ethr =  2.46E-04,  avg # of iterations =  2.0

     total cpu time spent up to now is        1.6 secs

     total energy              =    -110.27845650 Ry
     estimated scf accuracy    <       0.02054636 Ry

     total magnetization       =     0.10 Bohr mag/cell
     absolute magnetization    =     0.11 Bohr mag/cell

     iteration #  6     ecut=    30.00 Ry     beta= 0.50
     Davidson diagonalization with overlap
     ethr =  1.28E-04,  avg # of iterations =  1.0

     total cpu time spent up to now is        1.8 secs

     total energy              =    -110.27960485 Ry
     estimated scf accuracy    <       0.00489620 Ry

     total magnetization       =     0.11 Bohr mag/cell
     absolute magnetization    =     0.12 Bohr mag/cell

     iteration #  7     ecut=    30.00 Ry     beta= 0.50
     Davidson diagonalization with overlap
     ethr =  3.06E-05,  avg # of iterations =  1.1

     total cpu time spent up to now is        2.0 secs

     total energy              =    -110.27871551 Ry
     estimated scf accuracy    <       0.00346686 Ry

     total magnetization       =     0.10 Bohr mag/cell
     absolute magnetization    =     0.11 Bohr mag/cell

     iteration #  8     ecut=    30.00 Ry     beta= 0.50
     Davidson diagonalization with overlap
     ethr =  2.17E-05,  avg # of iterations =  1.3

     total cpu time spent up to now is        2.2 secs

     total energy              =    -110.27912701 Ry
     estimated scf accuracy    <       0.00023171 Ry

     total magnetization       =     0.03 Bohr mag/cell
     absolute magnetization    =     0.03 Bohr mag/cell

     iteration #  9     ecut=    30.00 Ry     beta= 0.50
     Davidson diagonalization with overlap
     ethr =  1.45E-06,  avg # of iterations =  4.3

     total cpu time spent up to now is        2.6 secs

     total energy              =    -110.27921587 Ry
     estimated scf accuracy    <       0.00003718 Ry

     total magnetization       =     0.02 Bohr mag/cell
     absolute magnetization    =     0.02 Bohr mag/cell

     iteration # 10     ecut=    30.00 Ry     beta= 0.50
     Davidson diagonalization with overlap
     ethr =  2.32E-07,  avg # of iterations =  4.5

     total cpu time spent up to now is        2.9 secs

     total energy              =    -110.27923066 Ry
     estimated scf accuracy    <       0.00001348 Ry

     total magnetization       =     0.01 Bohr mag/cell
     absolute magnetization    =     0.01 Bohr mag/cell

     iteration # 11     ecut=    30.00 Ry     beta= 0.50
     Davidson diagonalization with overlap
     ethr =  8.43E-08,  avg # of iterations =  2.7

     total cpu time spent up to now is        3.2 secs

     total energy              =    -110.27923556 Ry
     estimated scf accuracy    <       0.00000098 Ry

     total magnetization       =     0.00 Bohr mag/cell
     absolute magnetization    =     0.01 Bohr mag/cell

     iteration # 12     ecut=    30.00 Ry     beta= 0.50
     Davidson diagonalization with overlap
     ethr =  6.12E-09,  avg # of iterations =  4.8

     total cpu time spent up to now is        3.5 secs

     total energy              =    -110.27923643 Ry
     estimated scf accuracy    <       0.00000023 Ry

     total magnetization       =     0.00 Bohr mag/cell
     absolute magnetization    =     0.00 Bohr mag/cell

     iteration # 13     ecut=    30.00 Ry     beta= 0.50
     Davidson diagonalization with overlap
     ethr =  1.43E-09,  avg # of iterations =  2.8

     Magnetic moment per site  (integrated on atomic sphere of radius R)
     atom   1 (R=0.412)  charge=  6.1801  magn= -0.0002
     atom   2 (R=0.412)  charge=  6.1800  magn= -0.0001

     total cpu time spent up to now is        3.8 secs

     End of self-consistent calculation

 ------ SPIN UP ------------


          k = 0.0000 0.0000 0.0000 (   185 PWs)   bands (ev):

    24.8600  25.2200  31.2106  31.3877  31.3877  32.6587  32.6587  34.1395
    34.1396  38.0729  38.0730  39.1831

          k = 0.0000 0.0000 0.0875 (   178 PWs)   bands (ev):

    25.2736  25.4165  31.0277  31.2357  31.2357  32.4458  32.4458  34.5765
    34.5766  38.0768  38.0769  38.1718

          k = 0.0000 0.0000 0.1750 (   184 PWs)   bands (ev):

    25.9555  26.3009  30.6979  31.0507  31.0507  31.9463  31.9463  35.5536
    35.5537  35.8117  37.9485  37.9485

          k = 0.0000 0.0000 0.2624 (   184 PWs)   bands (ev):

    26.6604  27.0220  31.1018  31.1018  31.1582  31.4310  31.4310  33.1593
    36.6208  36.6209  37.4749  37.4749

          k = 0.0000 0.1650 0.0000 (   173 PWs)   bands (ev):

    26.0272  26.3397  29.7841  31.9543  32.0334  32.5781  32.8391  33.3318
    33.7399  34.5527  38.4580  44.7490

          k = 0.0000 0.1650 0.0875 (   173 PWs)   bands (ev):

    26.2477  26.6156  29.8879  31.4025  31.5004  32.2193  33.3208  33.4262
    34.1068  34.8625  38.3858  43.6914

          k = 0.0000 0.1650 0.1750 (   183 PWs)   bands (ev):

    26.8494  27.3425  30.1337  30.4602  30.6726  31.9605  32.9492  33.4052
    35.2170  35.8329  38.0760  41.5127

          k = 0.0000 0.1650 0.2624 (   184 PWs)   bands (ev):

    27.7115  28.1168  29.3133  29.5524  31.3908  32.0392  32.4120  32.5824
    36.3965  37.3923  37.4046  39.3076

          k = 0.0000 0.3299 0.0000 (   177 PWs)   bands (ev):

    25.6153  27.7967  27.8176  30.6328  31.9426  32.0211  33.1379  35.5693
    36.2789  36.4155  38.9195  50.8978

          k = 0.0000 0.3299 0.0875 (   178 PWs)   bands (ev):

    25.6755  26.9585  29.0635  29.8716  31.6231  32.1385  34.3158  35.6821
    36.1417  36.2006  38.7498  48.7799

          k = 0.0000 0.3299 0.1750 (   177 PWs)   bands (ev):

    25.7090  26.9558  28.5333  29.7037  31.9710  32.6954  35.1157  35.3857
    36.2478  36.7715  38.2744  45.4017

          k = 0.0000 0.3299 0.2624 (   179 PWs)   bands (ev):

    25.9914  26.6886  28.3234  29.1380  33.1659  33.5244  34.3274  34.4869
    36.8631  37.5952  39.1326  42.0889

          k = 0.0000 0.4949 0.0000 (   178 PWs)   bands (ev):

    24.2017  25.3054  27.0269  31.0397  32.3175  33.2416  33.4601  38.4120
    38.9874  39.1012  42.1018  51.1868

          k = 0.0000 0.4949 0.0875 (   182 PWs)   bands (ev):

    24.3542  24.8067  27.7787  30.2183  31.3510  33.3074  35.7106  38.2966
    38.5248  39.1759  41.6593  49.8650

          k = 0.0000 0.4949 0.1750 (   184 PWs)   bands (ev):

    24.2339  24.9984  28.0699  28.3664  32.2497  34.0236  37.0027  38.2933
    38.5931  39.0946  40.5561  47.2534

          k = 0.0000 0.4949 0.2624 (   184 PWs)   bands (ev):

    24.4618  25.0981  27.2143  27.8401  33.6313  35.3095  35.8398  37.9840
    38.7559  38.9374  41.6959  44.4272

          k = 0.1429 0.2474 0.0000 (   177 PWs)   bands (ev):

    27.2533  28.1928  28.2777  29.1009  31.4970  31.7965  33.6108  34.1034
    35.0832  36.6260  38.5846  49.3821

          k = 0.1429 0.2474 0.0875 (   176 PWs)   bands (ev):

    27.3124  27.9036  28.5103  29.1422  31.6080  31.8364  33.5384  33.9839
    35.6613  36.3418  38.5939  47.6949

          k = 0.1429 0.2474 0.1750 (   179 PWs)   bands (ev):

    27.4140  27.4870  29.1781  29.2613  31.2097  31.9038  32.9021  34.8689
    36.2169  36.4711  38.5131  44.6371

          k = 0.1429 0.2474 0.2624 (   179 PWs)   bands (ev):

    27.3309  27.3914  29.6434  30.0880  30.4684  31.2312  33.2901  34.2079
    37.1777  37.4962  38.9531  41.5323

          k = 0.1429 0.4124 0.0000 (   184 PWs)   bands (ev):

    26.0376  26.1236  28.1205  30.6226  30.8704  32.7611  32.8560  35.9989
    38.0980  38.6295  41.4128  54.8751

          k = 0.1429 0.4124 0.0875 (   181 PWs)   bands (ev):

    25.7205  26.3894  28.6737  29.2701  31.3657  32.8160  33.5310  35.9443
    37.9933  38.3677  41.5861  51.4551

          k = 0.1429 0.4124 0.1750 (   180 PWs)   bands (ev):

    25.4660  26.8471  27.9209  29.8050  30.9533  33.0043  34.3782  35.8863
    37.1521  38.9214  41.9157  48.0163

          k = 0.1429 0.4124 0.2624 (   181 PWs)   bands (ev):

    25.6485  26.3149  28.2544  29.3228  31.9636  33.1339  34.1418  34.6134
    38.3591  39.1288  42.7872  44.9406

          k = 0.1429 0.5774 0.0000 (   183 PWs)   bands (ev):

    24.9669  25.2708  27.8434  30.6340  31.9728  32.4173  33.5291  38.3545
    38.6329  38.7306  45.5511  50.4446

          k = 0.1429 0.5774 0.0875 (   187 PWs)   bands (ev):

    24.7906  25.4770  28.3599  30.0371  30.5095  33.8136  34.0937  37.9488
    38.3217  38.9037  45.4984  50.0434

          k = 0.1429 0.5774 0.1750 (   184 PWs)   bands (ev):

    24.6785  26.0007  28.1225  29.1954  30.3428  34.7471  35.0566  36.5775
    38.2641  39.1332  45.4951  48.9376

          k = 0.1429 0.5774 0.2624 (   182 PWs)   bands (ev):

    25.0490  25.9015  27.5703  28.5083  31.7604  33.7330  35.8861  36.3358
    38.3648  38.8671  46.1173  47.4537

          k = 0.2857 0.4949 0.0000 (   189 PWs)   bands (ev):

    24.9886  27.9368  28.4704  30.2970  30.4218  31.6744  33.7866  36.7536
    38.1490  38.5977  46.8239  54.0770

          k = 0.2857 0.4949 0.0875 (   187 PWs)   bands (ev):

    25.2355  28.0213  28.5267  29.0240  31.4426  31.6176  33.7462  36.8446
    37.4521  38.7609  47.2239  53.6328

          k = 0.2857 0.4949 0.1750 (   185 PWs)   bands (ev):

    25.8354  27.7692  28.4364  28.7107  31.0484  32.2485  33.6889  35.7464
    37.4593  38.9917  48.0669  52.0813

          k = 0.2857 0.4949 0.2624 (   181 PWs)   bands (ev):

    26.4581  27.0287  28.7440  28.9059  31.1168  31.8881  33.8109  34.3944
    38.2526  38.8670  49.0916  50.4229

 ------ SPIN DOWN ----------


          k = 0.0000 0.0000 0.0000 (   185 PWs)   bands (ev):

    24.8602  25.2198  31.2103  31.3872  31.3872  32.6582  32.6582  34.1393
    34.1394  38.0726  38.0727  39.1834

          k = 0.0000 0.0000 0.0875 (   178 PWs)   bands (ev):

    25.2739  25.4163  31.0274  31.2352  31.2352  32.4453  32.4453  34.5762
    34.5763  38.0765  38.0766  38.1721

          k = 0.0000 0.0000 0.1750 (   184 PWs)   bands (ev):

    25.9553  26.3010  30.6976  31.0502  31.0502  31.9458  31.9458  35.5533
    35.5533  35.8120  37.9481  37.9482

          k = 0.0000 0.0000 0.2624 (   184 PWs)   bands (ev):

    26.6602  27.0220  31.1014  31.1014  31.1582  31.4305  31.4306  33.1594
    36.6205  36.6205  37.4745  37.4745

          k = 0.0000 0.1650 0.0000 (   173 PWs)   bands (ev):

    26.0272  26.3397  29.7837  31.9538  32.0332  32.5776  32.8386  33.3316
    33.7393  34.5526  38.4577  44.7490

          k = 0.0000 0.1650 0.0875 (   173 PWs)   bands (ev):

    26.2477  26.6157  29.8875  31.4022  31.5001  32.2188  33.3205  33.4257
    34.1065  34.8623  38.3855  43.6914

          k = 0.0000 0.1650 0.1750 (   183 PWs)   bands (ev):

    26.8493  27.3426  30.1334  30.4599  30.6724  31.9601  32.9487  33.4050
    35.2166  35.8326  38.0756  41.5127

          k = 0.0000 0.1650 0.2624 (   184 PWs)   bands (ev):

    27.7114  28.1167  29.3130  29.5522  31.3905  32.0388  32.4115  32.5821
    36.3962  37.3920  37.4043  39.3074

          k = 0.0000 0.3299 0.0000 (   177 PWs)   bands (ev):

    25.6150  27.7965  27.8176  30.6327  31.9424  32.0208  33.1377  35.5687
    36.2785  36.4149  38.9191  50.8978

          k = 0.0000 0.3299 0.0875 (   178 PWs)   bands (ev):

    25.6752  26.9584  29.0634  29.8715  31.6229  32.1383  34.3157  35.6815
    36.1413  36.2000  38.7494  48.7800

          k = 0.0000 0.3299 0.1750 (   177 PWs)   bands (ev):

    25.7089  26.9556  28.5332  29.7034  31.9708  32.6952  35.1155  35.3852
    36.2473  36.7712  38.2740  45.4017

          k = 0.0000 0.3299 0.2624 (   179 PWs)   bands (ev):

    25.9913  26.6885  28.3232  29.1377  33.1657  33.5241  34.3272  34.4865
    36.8626  37.5947  39.1325  42.0888

          k = 0.0000 0.4949 0.0000 (   178 PWs)   bands (ev):

    24.2014  25.3054  27.0267  31.0395  32.3174  33.2413  33.4600  38.4114
    38.9868  39.1009  42.1015  51.1867

          k = 0.0000 0.4949 0.0875 (   182 PWs)   bands (ev):

    24.3540  24.8067  27.7785  30.2183  31.3508  33.3072  35.7105  38.2961
    38.5242  39.1753  41.6590  49.8649

          k = 0.0000 0.4949 0.1750 (   184 PWs)   bands (ev):

    24.2339  24.9982  28.0698  28.3662  32.2494  34.0234  37.0024  38.2930
    38.5925  39.0940  40.5561  47.2534

          k = 0.0000 0.4949 0.2624 (   184 PWs)   bands (ev):

    24.4618  25.0979  27.2141  27.8398  33.6310  35.3092  35.8396  37.9837
    38.7553  38.9367  41.6960  44.4272

          k = 0.1429 0.2474 0.0000 (   177 PWs)   bands (ev):

    27.2531  28.1930  28.2774  29.1009  31.4968  31.7961  33.6104  34.1032
    35.0827  36.6255  38.5843  49.3821

          k = 0.1429 0.2474 0.0875 (   176 PWs)   bands (ev):

    27.3122  27.9037  28.5100  29.1421  31.6078  31.8360  33.5381  33.9836
    35.6609  36.3413  38.5935  47.6949

          k = 0.1429 0.2474 0.1750 (   179 PWs)   bands (ev):

    27.4139  27.4871  29.1778  29.2612  31.2094  31.9034  32.9018  34.8687
    36.2165  36.4707  38.5127  44.6371

          k = 0.1429 0.2474 0.2624 (   179 PWs)   bands (ev):

    27.3309  27.3913  29.6432  30.0876  30.4682  31.2309  33.2898  34.2075
    37.1772  37.4958  38.9529  41.5322

          k = 0.1429 0.4124 0.0000 (   184 PWs)   bands (ev):

    26.0374  26.1236  28.1203  30.6224  30.8704  32.7608  32.8558  35.9984
    38.0975  38.6292  41.4124  54.8758

          k = 0.1429 0.4124 0.0875 (   181 PWs)   bands (ev):

    25.7204  26.3892  28.6735  29.2700  31.3654  32.8158  33.5308  35.9438
    37.9930  38.3672  41.5857  51.4551

          k = 0.1429 0.4124 0.1750 (   180 PWs)   bands (ev):

    25.4659  26.8469  27.9208  29.8047  30.9531  33.0040  34.3778  35.8860
    37.1518  38.9209  41.9154  48.0163

          k = 0.1429 0.4124 0.2624 (   181 PWs)   bands (ev):

    25.6484  26.3148  28.2541  29.3225  31.9634  33.1336  34.1415  34.6131
    38.3587  39.1283  42.7871  44.9406

          k = 0.1429 0.5774 0.0000 (   183 PWs)   bands (ev):

    24.9669  25.2706  27.8432  30.6338  31.9726  32.4172  33.5287  38.3539
    38.6326  38.7300  45.5509  50.4444

          k = 0.1429 0.5774 0.0875 (   187 PWs)   bands (ev):

    24.7905  25.4767  28.3597  30.0370  30.5093  33.8133  34.0935  37.9485
    38.3211  38.9031  45.4982  50.0432

          k = 0.1429 0.5774 0.1750 (   184 PWs)   bands (ev):

    24.6785  26.0005  28.1224  29.1950  30.3426  34.7468  35.0564  36.5771
    38.2636  39.1327  45.4950  48.9374

          k = 0.1429 0.5774 0.2624 (   182 PWs)   bands (ev):

    25.0490  25.9014  27.5700  28.5080  31.7602  33.7329  35.8857  36.3354
    38.3643  38.8667  46.1173  47.4536

          k = 0.2857 0.4949 0.0000 (   189 PWs)   bands (ev):

    24.9886  27.9366  28.4702  30.2969  30.4217  31.6743  33.7861  36.7531
    38.1487  38.5972  46.8237  54.0749

          k = 0.2857 0.4949 0.0875 (   187 PWs)   bands (ev):

    25.2355  28.0210  28.5264  29.0239  31.4424  31.6174  33.7457  36.8442
    37.4517  38.7604  47.2237  53.6326

          k = 0.2857 0.4949 0.1750 (   185 PWs)   bands (ev):

    25.8353  27.7691  28.4362  28.7105  31.0481  32.2483  33.6885  35.7460
    37.4589  38.9912  48.0667  52.0812

          k = 0.2857 0.4949 0.2624 (   181 PWs)   bands (ev):

    26.4580  27.0287  28.7438  28.9058  31.1165  31.8878  33.8105  34.3940
    38.2522  38.8665  49.0914  50.4228

     the Fermi energy is    36.1935 ev

!    total energy              =    -110.27923674 Ry
     estimated scf accuracy    <       0.00000004 Ry
     smearing contrib. (-TS)   =       0.00007424 Ry
     internal energy E=F+TS    =    -110.27931098 Ry

     The total energy is F=E-TS. E is the sum of the following terms:
     one-electron contribution =      54.56081995 Ry
     hartree contribution      =       5.95165826 Ry
     xc contribution           =     -55.22007043 Ry
     ewald contribution        =    -115.57171876 Ry

     total magnetization       =    -0.00 Bohr mag/cell
     absolute magnetization    =     0.00 Bohr mag/cell

     convergence has been achieved in  13 iterations

     Forces acting on atoms (cartesian axes, Ry/au):

     atom    1 type  1   force =     0.00000000    0.00000000    0.00000000
     atom    2 type  1   force =     0.00000000   -0.00000000    0.00000000
     The non-local contrib.  to forces
     atom    1 type  1   force =     0.00000000    0.00000000    0.00000000
     atom    2 type  1   force =     0.00000000    0.00000000    0.00000000
     The ionic contribution  to forces
     atom    1 type  1   force =    -0.00000000    0.00000951   -0.00014784
     atom    2 type  1   force =    -0.00000000   -0.00000951    0.00014784
     The local contribution  to forces
     atom    1 type  1   force =    -0.00000000   -0.00000000    0.00000000
     atom    2 type  1   force =     0.00000000   -0.00018082    0.00014108
     The core correction contribution to forces
     atom    1 type  1   force =     0.00000000   -0.00000005    0.00000022
     atom    2 type  1   force =     0.00000000   -0.00003772    0.00002931
     The Hubbard contrib.    to forces
     atom    1 type  1   force =     0.00000000    0.00000000    0.00000000
     atom    2 type  1   force =     0.00000000    0.00000000    0.00000000
     The SCF correction term to forces
     atom    1 type  1   force =     0.00000000    0.00000000   -0.00000001
     atom    2 type  1   force =     0.00000000   -0.00000001    0.00000002

     Total force =     0.000000     Total SCF correction =     0.000000


     Computing stress (Cartesian axis) and pressure

          total   stress  (Ry/bohr**3)                   (kbar)     P=     9604.77
   0.06697019   0.00000000   0.00000000         9851.66        0.00        0.00
   0.00000000   0.06697019   0.00000000            0.00     9851.66        0.00
   0.00000000   0.00000000   0.06193538            0.00        0.00     9111.01


     init_run     :      0.25s CPU      0.26s WALL (       1 calls)
     electrons    :      3.55s CPU      3.38s WALL (       1 calls)
     forces       :      0.05s CPU      0.04s WALL (       1 calls)
     stress       :      0.14s CPU      0.14s WALL (       1 calls)

     Called by init_run:
     wfcinit      :      0.05s CPU      0.05s WALL (       1 calls)
     potinit      :      0.04s CPU      0.04s WALL (       1 calls)
     hinit0       :      0.16s CPU      0.16s WALL (       1 calls)

     Called by electrons:
     c_bands      :      3.05s CPU      2.89s WALL (      13 calls)
     sum_band     :      0.39s CPU      0.38s WALL (      13 calls)
     v_of_rho     :      0.06s CPU      0.06s WALL (      14 calls)
     newd         :      0.05s CPU      0.04s WALL (      14 calls)
     mix_rho      :      0.01s CPU      0.01s WALL (      13 calls)

     Called by c_bands:
     init_us_2    :      0.06s CPU      0.05s WALL (    1856 calls)
     init_us_2:cp :      0.05s CPU      0.05s WALL (    1856 calls)
     cegterg      :      2.68s CPU      2.45s WALL (     832 calls)

     Called by *egterg:
     cdiaghg      :      0.83s CPU      0.76s WALL (    2910 calls)
     h_psi        :      1.48s CPU      1.35s WALL (    2974 calls)
     s_psi        :      0.06s CPU      0.05s WALL (    2974 calls)
     g_psi        :      0.01s CPU      0.01s WALL (    2078 calls)

     Called by h_psi:
     h_psi:calbec :      0.14s CPU      0.13s WALL (    2974 calls)
     vloc_psi     :      1.27s CPU      1.16s WALL (    2974 calls)
     add_vuspsi   :      0.05s CPU      0.05s WALL (    2974 calls)

     General routines
     calbec       :      0.20s CPU      0.19s WALL (    4126 calls)
     fft          :      0.13s CPU      0.12s WALL (     388 calls)
     ffts         :      0.03s CPU      0.03s WALL (      54 calls)
     fftw         :      1.25s CPU      1.14s WALL (   62112 calls)
     interpolate  :      0.04s CPU      0.04s WALL (      28 calls)

     Parallel routines

     PWSCF        :      4.17s CPU      4.01s WALL


   This run was terminated on:  16:49:50   1Nov2023            

=------------------------------------------------------------------------------=
   JOB DONE.
=------------------------------------------------------------------------------=
