
     Program PWSCF v.7.2 starts on  3Nov2023 at 16:53:15 

     This program is part of the open-source Quantum ESPRESSO suite
     for quantum simulation of materials; please cite
         "P. Giannozzi et al., J. Phys.:Condens. Matter 21 395502 (2009);
         "P. Giannozzi et al., J. Phys.:Condens. Matter 29 465901 (2017);
         "P. Giannozzi et al., J. Chem. Phys. 152 154105 (2020);
          URL http://www.quantum-espresso.org", 
     in publications or presentations arising from this work. More details at
     http://www.quantum-espresso.org/quote

     Parallel version (MPI), running on     8 processors

     MPI processes distributed on     8 nodes
     187044 MiB available memory on the printing compute node when the environment starts

     Waiting for input...
     Reading input from standard input

     Current dimensions of program PWSCF are:
     Max number of different atomic species (ntypx) = 10
     Max number of k-points (npk) =  40000
     Max angular momentum in pseudopotentials (lmaxx) =  4
     file Cu.pz-d-rrkjus.UPF: wavefunction(s)  3D renormalized
     Message from routine setup:
     using ibrav=0 with symmetry is DISCOURAGED, use correct ibrav instead

     R & G space division:  proc/nbgrp/npool/nimage =       8
     Subspace diagonalization in iterative solution of the eigenvalue problem:
     a serial algorithm will be used


     Parallelization info
     --------------------
     sticks:   dense  smooth     PW     G-vecs:    dense   smooth      PW
     Min          86      43     14                 2263      801     150
     Max          89      44     15                 2264      804     153
     Sum         697     349    113                18111     6423    1207

     Using Slab Decomposition



     bravais-lattice index     =            0
     lattice parameter (alat)  =       5.2270  a.u.
     unit-cell volume          =     187.0550 (a.u.)^3
     number of atoms/cell      =            2
     number of atomic types    =            2
     number of electrons       =        22.00
     number of Kohn-Sham states=           15
     kinetic-energy cutoff     =      40.0000  Ry
     charge density cutoff     =     320.0000  Ry
     scf convergence threshold =      1.0E-07
     mixing beta               =       0.5000
     number of iterations used =            8  plain     mixing
     energy convergence thresh.=      1.0E-04
     force convergence thresh. =      1.0E-03
     press convergence thresh. =      5.0E-01
     Exchange-correlation=  SLA  PZ   NOGX NOGC
                           (   1   1   0   0   0   0   0)
     nstep                     =           50


     celldm(1)=   5.226982  celldm(2)=   0.000000  celldm(3)=   0.000000
     celldm(4)=   0.000000  celldm(5)=   0.000000  celldm(6)=   0.000000

     crystal axes: (cart. coord. in units of alat)
               a(1) = (   1.000000   0.000000   0.000000 )  
               a(2) = (   0.000000   1.000000   0.000000 )  
               a(3) = (   0.000000   0.000000   1.309834 )  

     reciprocal axes: (cart. coord. in units 2 pi/alat)
               b(1) = (  1.000000  0.000000  0.000000 )  
               b(2) = (  0.000000  1.000000  0.000000 )  
               b(3) = (  0.000000  0.000000  0.763456 )  


     PseudoPot. # 1 for Au read from file:
     /home/gridsan/epan1/labutil/lab3_samples/pseudopotentials/Au.pz-d-rrkjus.UPF
     MD5 check sum: 424ffd4ac9c90487cbadcd287136c95b
     Pseudo is Ultrasoft, Zval = 11.0
     Generated by new atomic code, or converted to UPF format
     Using radial grid of 1279 points,  3 beta functions with: 
                l(1) =   2
                l(2) =   2
                l(3) =   1
     Q(r) pseudized with 0 coefficients 


     PseudoPot. # 2 for Cu read from file:
     /home/gridsan/epan1/labutil/lab3_samples/pseudopotentials/Cu.pz-d-rrkjus.UPF
     MD5 check sum: fd38ae683e239c95a66f426e1f8e5fc7
     Pseudo is Ultrasoft, Zval = 11.0
     Generated by new atomic code, or converted to UPF format
     Using radial grid of  899 points,  3 beta functions with: 
                l(1) =   2
                l(2) =   2
                l(3) =   1
     Q(r) pseudized with 0 coefficients 


     atomic species   valence    mass     pseudopotential
        Au            11.00   196.96657     Au( 1.00)
        Cu            11.00    63.54600     Cu( 1.00)

     Starting magnetic structure 
     atomic species   magnetization
        Au           0.700
        Cu           0.000

     16 Sym. Ops., with inversion, found



   Cartesian axes

     site n.     atom                  positions (alat units)
         1           Cu  tau(   1) = (   0.0000000   0.0000000   0.0000000  )
         2           Au  tau(   2) = (   0.5000000   0.5000000   0.6549168  )

     number of k points=   126  Methfessel-Paxton smearing, width (Ry)=  0.0200

     Number of k-points >= 100: set verbosity='high' to print them.

     Dense  grid:    18111 G-vectors     FFT dimensions: (  30,  30,  40)

     Smooth grid:     6423 G-vectors     FFT dimensions: (  24,  24,  27)

     Estimated max dynamical RAM per process >      13.82 MB

     Estimated total dynamical RAM >     110.53 MB
     Generating pointlists ...
     new r_m :   0.3976 (alat units)  2.0781 (a.u.) for type    1
     new r_m :   0.3976 (alat units)  2.0781 (a.u.) for type    2

     Initial potential from superposition of free atoms

     starting charge      21.9996, renormalised to      22.0000
     Starting wfcs are   15 randomized atomic wfcs

     total cpu time spent up to now is        1.4 secs

     Self-consistent Calculation

     iteration #  1     ecut=    40.00 Ry     beta= 0.50
     Davidson diagonalization with overlap
     ethr =  1.00E-02,  avg # of iterations =  3.9

     total cpu time spent up to now is        4.2 secs

     total energy              =    -154.23513639 Ry
     estimated scf accuracy    <       0.72361981 Ry

     total magnetization       =     1.26 Bohr mag/cell
     absolute magnetization    =     1.49 Bohr mag/cell

     iteration #  2     ecut=    40.00 Ry     beta= 0.50
     Davidson diagonalization with overlap
     ethr =  3.29E-03,  avg # of iterations =  2.0

     total cpu time spent up to now is        6.3 secs

     total energy              =    -154.55469973 Ry
     estimated scf accuracy    <       0.36228948 Ry

     total magnetization       =     0.33 Bohr mag/cell
     absolute magnetization    =     0.55 Bohr mag/cell

     iteration #  3     ecut=    40.00 Ry     beta= 0.50
     Davidson diagonalization with overlap
     ethr =  1.65E-03,  avg # of iterations =  1.3

     total cpu time spent up to now is        8.2 secs

     total energy              =    -154.66963499 Ry
     estimated scf accuracy    <       0.08563797 Ry

     total magnetization       =     0.27 Bohr mag/cell
     absolute magnetization    =     0.50 Bohr mag/cell

     iteration #  4     ecut=    40.00 Ry     beta= 0.50
     Davidson diagonalization with overlap
     ethr =  3.89E-04,  avg # of iterations =  1.9

     total cpu time spent up to now is       10.2 secs

     total energy              =    -154.71813489 Ry
     estimated scf accuracy    <       0.03284611 Ry

     total magnetization       =     0.20 Bohr mag/cell
     absolute magnetization    =     0.33 Bohr mag/cell

     iteration #  5     ecut=    40.00 Ry     beta= 0.50
     Davidson diagonalization with overlap
     ethr =  1.49E-04,  avg # of iterations =  1.9

     total cpu time spent up to now is       12.4 secs

     total energy              =    -154.72775525 Ry
     estimated scf accuracy    <       0.00622714 Ry

     total magnetization       =    -0.01 Bohr mag/cell
     absolute magnetization    =     0.05 Bohr mag/cell

     iteration #  6     ecut=    40.00 Ry     beta= 0.50
     Davidson diagonalization with overlap
     ethr =  2.83E-05,  avg # of iterations =  2.8

     total cpu time spent up to now is       15.0 secs

     total energy              =    -154.72955973 Ry
     estimated scf accuracy    <       0.00054906 Ry

     total magnetization       =    -0.02 Bohr mag/cell
     absolute magnetization    =     0.02 Bohr mag/cell

     iteration #  7     ecut=    40.00 Ry     beta= 0.50
     Davidson diagonalization with overlap
     ethr =  2.50E-06,  avg # of iterations =  3.4

     total cpu time spent up to now is       17.2 secs

     total energy              =    -154.72955537 Ry
     estimated scf accuracy    <       0.00015403 Ry

     total magnetization       =    -0.00 Bohr mag/cell
     absolute magnetization    =     0.01 Bohr mag/cell

     iteration #  8     ecut=    40.00 Ry     beta= 0.50
     Davidson diagonalization with overlap
     ethr =  7.00E-07,  avg # of iterations =  1.7

     total cpu time spent up to now is       19.2 secs

     total energy              =    -154.72958396 Ry
     estimated scf accuracy    <       0.00000046 Ry

     total magnetization       =     0.00 Bohr mag/cell
     absolute magnetization    =     0.00 Bohr mag/cell

     iteration #  9     ecut=    40.00 Ry     beta= 0.50
     Davidson diagonalization with overlap
     ethr =  2.08E-09,  avg # of iterations =  2.5

     Magnetic moment per site  (integrated on atomic sphere of radius R)
     atom   1 (R=0.398)  charge= 10.0435  magn= -0.0000
     atom   2 (R=0.398)  charge=  8.8254  magn= -0.0000

     total cpu time spent up to now is       21.7 secs

     End of self-consistent calculation

     Number of k-points >= 100: set verbosity='high' to print the bands.

     the Fermi energy is    15.8020 ev

!    total energy              =    -154.72958422 Ry
     estimated scf accuracy    <       0.00000010 Ry
     smearing contrib. (-TS)   =      -0.00039695 Ry
     internal energy E=F+TS    =    -154.72918727 Ry

     The total energy is F=E-TS. E is the sum of the following terms:
     one-electron contribution =      -3.76763445 Ry
     hartree contribution      =      27.57107880 Ry
     xc contribution           =     -24.55690774 Ry
     ewald contribution        =    -153.97572388 Ry

     total magnetization       =    -0.00 Bohr mag/cell
     absolute magnetization    =     0.00 Bohr mag/cell

     convergence has been achieved in   9 iterations

     Forces acting on atoms (cartesian axes, Ry/au):

     atom    1 type  2   force =     0.00000000    0.00000000    0.00000000
     atom    2 type  1   force =     0.00000000    0.00000000    0.00000000
     The non-local contrib.  to forces
     atom    1 type  2   force =     0.00000000    0.00000000    0.00000000
     atom    2 type  1   force =     0.00000000    0.00000000    0.00000000
     The ionic contribution  to forces
     atom    1 type  2   force =    -0.00000000   -0.00000000   -0.00000000
     atom    2 type  1   force =     0.00000000    0.00000000    0.00000000
     The local contribution  to forces
     atom    1 type  2   force =     0.00000000    0.00000000    0.00000000
     atom    2 type  1   force =    -0.00000000   -0.00000000   -0.00000000
     The core correction contribution to forces
     atom    1 type  2   force =     0.00000000    0.00000000    0.00000000
     atom    2 type  1   force =     0.00000000    0.00000000    0.00000000
     The Hubbard contrib.    to forces
     atom    1 type  2   force =     0.00000000    0.00000000    0.00000000
     atom    2 type  1   force =     0.00000000    0.00000000    0.00000000
     The SCF correction term to forces
     atom    1 type  2   force =     0.00000000   -0.00000000    0.00000000
     atom    2 type  1   force =     0.00000000    0.00000000   -0.00000000

     Total force =     0.000000     Total SCF correction =     0.000000


     Computing stress (Cartesian axis) and pressure

          total   stress  (Ry/bohr**3)                   (kbar)     P=        7.29
   0.00007903   0.00000000   0.00000000           11.63        0.00        0.00
   0.00000000   0.00007903   0.00000000            0.00       11.63        0.00
   0.00000000   0.00000000  -0.00000946            0.00        0.00       -1.39


     BFGS Geometry Optimization
     Energy error            =      0.0E+00 Ry
     Gradient error          =      0.0E+00 Ry/Bohr
     Cell gradient error     =      1.2E+01 kbar

     number of scf cycles    =   1
     number of bfgs steps    =   0

     enthalpy           new  =    -154.7295842185 Ry

     new trust radius        =       0.0054041958 bohr
     new conv_thr            =       0.0000001000 Ry

     new unit-cell volume =    187.75044 a.u.^3 (    27.82174 Ang^3 )
     density =     15.54868 g/cm^3

CELL_PARAMETERS (angstrom)
   2.771464729   0.000000000   0.000000000
   0.000000000   2.771464729   0.000000000
   0.000000000   0.000000000   3.622143399

ATOMIC_POSITIONS (angstrom)
Cu            0.0000000000        0.0000000000        0.0000000000
Au            1.3857323644        1.3857323644        1.8110716993



     Writing config-only to output data dir /home/gridsan/epan1/labutil/lab3_samples/problem3/Lab3/CuAu_a_2.766_c_3.623_ecut_40_nk_10/pwscf.save/
     NEW-OLD atomic charge density approx. for the potential
     extrapolated charge   22.08149, renormalised to   22.00000
     Generating pointlists ...

     total cpu time spent up to now is       23.0 secs

     Self-consistent Calculation

     iteration #  1     ecut=    40.00 Ry     beta= 0.50
     Davidson diagonalization with overlap
     ethr =  1.00E-06,  avg # of iterations =  3.0

     total cpu time spent up to now is       26.0 secs

     total energy              =    -154.72722736 Ry
     estimated scf accuracy    <       0.00244739 Ry

     total magnetization       =    -0.00 Bohr mag/cell
     absolute magnetization    =     0.00 Bohr mag/cell

     iteration #  2     ecut=    40.00 Ry     beta= 0.50
     Davidson diagonalization with overlap
     ethr =  1.11E-05,  avg # of iterations =  2.1

     total cpu time spent up to now is       28.5 secs

     total energy              =    -154.72915740 Ry
     estimated scf accuracy    <       0.00865358 Ry

     total magnetization       =    -0.00 Bohr mag/cell
     absolute magnetization    =     0.00 Bohr mag/cell

     iteration #  3     ecut=    40.00 Ry     beta= 0.50
     Davidson diagonalization with overlap
     ethr =  1.11E-05,  avg # of iterations =  2.0

     total cpu time spent up to now is       30.6 secs

     total energy              =    -154.72973204 Ry
     estimated scf accuracy    <       0.00090039 Ry

     total magnetization       =    -0.00 Bohr mag/cell
     absolute magnetization    =     0.00 Bohr mag/cell

     iteration #  4     ecut=    40.00 Ry     beta= 0.50
     Davidson diagonalization with overlap
     ethr =  4.09E-06,  avg # of iterations =  1.0

     total cpu time spent up to now is       32.4 secs

     total energy              =    -154.72961138 Ry
     estimated scf accuracy    <       0.00045925 Ry

     total magnetization       =    -0.00 Bohr mag/cell
     absolute magnetization    =     0.00 Bohr mag/cell

     iteration #  5     ecut=    40.00 Ry     beta= 0.50
     Davidson diagonalization with overlap
     ethr =  2.09E-06,  avg # of iterations =  1.1

     total cpu time spent up to now is       34.7 secs

     total energy              =    -154.72962544 Ry
     estimated scf accuracy    <       0.00004528 Ry

     total magnetization       =    -0.00 Bohr mag/cell
     absolute magnetization    =     0.00 Bohr mag/cell

     iteration #  6     ecut=    40.00 Ry     beta= 0.50
     Davidson diagonalization with overlap
     ethr =  2.06E-07,  avg # of iterations =  2.0

     total cpu time spent up to now is       37.0 secs

     total energy              =    -154.72963950 Ry
     estimated scf accuracy    <       0.00000529 Ry

     total magnetization       =    -0.00 Bohr mag/cell
     absolute magnetization    =     0.00 Bohr mag/cell

     iteration #  7     ecut=    40.00 Ry     beta= 0.50
     Davidson diagonalization with overlap
     ethr =  2.40E-08,  avg # of iterations =  1.0

     total cpu time spent up to now is       38.8 secs

     total energy              =    -154.72963753 Ry
     estimated scf accuracy    <       0.00000372 Ry

     total magnetization       =    -0.00 Bohr mag/cell
     absolute magnetization    =     0.00 Bohr mag/cell

     iteration #  8     ecut=    40.00 Ry     beta= 0.50
     Davidson diagonalization with overlap
     ethr =  1.69E-08,  avg # of iterations =  2.0

     total cpu time spent up to now is       40.9 secs

     total energy              =    -154.72963851 Ry
     estimated scf accuracy    <       0.00000068 Ry

     total magnetization       =    -0.00 Bohr mag/cell
     absolute magnetization    =     0.00 Bohr mag/cell

     iteration #  9     ecut=    40.00 Ry     beta= 0.50
     Davidson diagonalization with overlap
     ethr =  3.08E-09,  avg # of iterations =  1.9

     Magnetic moment per site  (integrated on atomic sphere of radius R)
     atom   1 (R=0.398)  charge= 10.0385  magn= -0.0000
     atom   2 (R=0.398)  charge=  8.8223  magn=  0.0000

     total cpu time spent up to now is       42.9 secs

     End of self-consistent calculation

     Number of k-points >= 100: set verbosity='high' to print the bands.

     the Fermi energy is    15.7161 ev

!    total energy              =    -154.72963865 Ry
     estimated scf accuracy    <          8.0E-09 Ry
     smearing contrib. (-TS)   =      -0.00039606 Ry
     internal energy E=F+TS    =    -154.72924259 Ry

     The total energy is F=E-TS. E is the sum of the following terms:
     one-electron contribution =      -4.04571462 Ry
     hartree contribution      =      27.65323634 Ry
     xc contribution           =     -24.55171191 Ry
     ewald contribution        =    -153.78505240 Ry

     total magnetization       =     0.00 Bohr mag/cell
     absolute magnetization    =     0.00 Bohr mag/cell

     convergence has been achieved in   9 iterations

     Forces acting on atoms (cartesian axes, Ry/au):

     atom    1 type  2   force =     0.00000000    0.00000000    0.00000000
     atom    2 type  1   force =     0.00000000    0.00000000    0.00000000
     The non-local contrib.  to forces
     atom    1 type  2   force =     0.00000000    0.00000000    0.00000000
     atom    2 type  1   force =     0.00000000    0.00000000    0.00000000
     The ionic contribution  to forces
     atom    1 type  2   force =    -0.00000000   -0.00000000   -0.00000000
     atom    2 type  1   force =    -0.00000000   -0.00000000   -0.00000000
     The local contribution  to forces
     atom    1 type  2   force =     0.00000000    0.00000000    0.00000000
     atom    2 type  1   force =     0.00000000    0.00000000    0.00000000
     The core correction contribution to forces
     atom    1 type  2   force =     0.00000000    0.00000000    0.00000000
     atom    2 type  1   force =     0.00000000    0.00000000    0.00000000
     The Hubbard contrib.    to forces
     atom    1 type  2   force =     0.00000000    0.00000000    0.00000000
     atom    2 type  1   force =     0.00000000    0.00000000    0.00000000
     The SCF correction term to forces
     atom    1 type  2   force =     0.00000000   -0.00000000   -0.00000000
     atom    2 type  1   force =     0.00000000   -0.00000000    0.00000000

     Total force =     0.000000     Total SCF correction =     0.000000


     Computing stress (Cartesian axis) and pressure

          total   stress  (Ry/bohr**3)                   (kbar)     P=        1.78
   0.00004037   0.00000000   0.00000000            5.94        0.00        0.00
   0.00000000   0.00004037   0.00000000            0.00        5.94        0.00
   0.00000000   0.00000000  -0.00004441            0.00        0.00       -6.53

     Energy error            =      5.4E-05 Ry
     Gradient error          =      0.0E+00 Ry/Bohr
     Cell gradient error     =      6.5E+00 kbar

     number of scf cycles    =   2
     number of bfgs steps    =   1

     enthalpy           old  =    -154.7295842185 Ry
     enthalpy           new  =    -154.7296386471 Ry

     CASE: enthalpy          _new < enthalpy          _old

     new trust radius        =       0.0081053353 bohr
     new conv_thr            =       0.0000000010 Ry

     new unit-cell volume =    188.43642 a.u.^3 (    27.92340 Ang^3 )
     density =     15.49207 g/cm^3

CELL_PARAMETERS (angstrom)
   2.779661822   0.000000000   0.000000000
   0.000000000   2.779661822   0.000000000
   0.000000000   0.000000000   3.613968071

ATOMIC_POSITIONS (angstrom)
Cu            0.0000000000        0.0000000000        0.0000000000
Au            1.3898309109        1.3898309109        1.8069840355



     Writing config-only to output data dir /home/gridsan/epan1/labutil/lab3_samples/problem3/Lab3/CuAu_a_2.766_c_3.623_ecut_40_nk_10/pwscf.save/
     NEW-OLD atomic charge density approx. for the potential
     extrapolated charge   22.08009, renormalised to   22.00000
     Generating pointlists ...

     total cpu time spent up to now is       44.2 secs

     Self-consistent Calculation

     iteration #  1     ecut=    40.00 Ry     beta= 0.50
     Davidson diagonalization with overlap
     ethr =  1.00E-06,  avg # of iterations =  3.3

     total cpu time spent up to now is       47.4 secs

     total energy              =    -154.72731954 Ry
     estimated scf accuracy    <       0.00242280 Ry

     total magnetization       =     0.00 Bohr mag/cell
     absolute magnetization    =     0.00 Bohr mag/cell

     iteration #  2     ecut=    40.00 Ry     beta= 0.50
     Davidson diagonalization with overlap
     ethr =  1.10E-05,  avg # of iterations =  2.2

     total cpu time spent up to now is       49.9 secs

     total energy              =    -154.72920895 Ry
     estimated scf accuracy    <       0.00852295 Ry

     total magnetization       =    -0.00 Bohr mag/cell
     absolute magnetization    =     0.00 Bohr mag/cell

     iteration #  3     ecut=    40.00 Ry     beta= 0.50
     Davidson diagonalization with overlap
     ethr =  1.10E-05,  avg # of iterations =  2.0

     total cpu time spent up to now is       52.0 secs

     total energy              =    -154.72978140 Ry
     estimated scf accuracy    <       0.00087649 Ry

     total magnetization       =    -0.00 Bohr mag/cell
     absolute magnetization    =     0.00 Bohr mag/cell

     iteration #  4     ecut=    40.00 Ry     beta= 0.50
     Davidson diagonalization with overlap
     ethr =  3.98E-06,  avg # of iterations =  1.0

     total cpu time spent up to now is       53.9 secs

     total energy              =    -154.72962133 Ry
     estimated scf accuracy    <       0.00044760 Ry

     total magnetization       =     0.00 Bohr mag/cell
     absolute magnetization    =     0.00 Bohr mag/cell

     iteration #  5     ecut=    40.00 Ry     beta= 0.50
     Davidson diagonalization with overlap
     ethr =  2.03E-06,  avg # of iterations =  2.0

     total cpu time spent up to now is       56.1 secs

     total energy              =    -154.72969011 Ry
     estimated scf accuracy    <       0.00000124 Ry

     total magnetization       =     0.00 Bohr mag/cell
     absolute magnetization    =     0.00 Bohr mag/cell

     iteration #  6     ecut=    40.00 Ry     beta= 0.50
     Davidson diagonalization with overlap
     ethr =  5.62E-09,  avg # of iterations =  3.2

     total cpu time spent up to now is       58.9 secs

     total energy              =    -154.72969249 Ry
     estimated scf accuracy    <       0.00000672 Ry

     total magnetization       =     0.00 Bohr mag/cell
     absolute magnetization    =     0.00 Bohr mag/cell

     iteration #  7     ecut=    40.00 Ry     beta= 0.50
     Davidson diagonalization with overlap
     ethr =  5.62E-09,  avg # of iterations =  1.0

     total cpu time spent up to now is       60.7 secs

     total energy              =    -154.72969109 Ry
     estimated scf accuracy    <       0.00000403 Ry

     total magnetization       =     0.00 Bohr mag/cell
     absolute magnetization    =     0.00 Bohr mag/cell

     iteration #  8     ecut=    40.00 Ry     beta= 0.50
     Davidson diagonalization with overlap
     ethr =  5.62E-09,  avg # of iterations =  2.0

     total cpu time spent up to now is       63.0 secs

     total energy              =    -154.72969155 Ry
     estimated scf accuracy    <       0.00000009 Ry

     total magnetization       =     0.00 Bohr mag/cell
     absolute magnetization    =     0.00 Bohr mag/cell

     iteration #  9     ecut=    40.00 Ry     beta= 0.50
     Davidson diagonalization with overlap
     ethr =  4.04E-10,  avg # of iterations =  2.0

     total cpu time spent up to now is       65.3 secs

     total energy              =    -154.72969158 Ry
     estimated scf accuracy    <          8.0E-09 Ry

     total magnetization       =     0.00 Bohr mag/cell
     absolute magnetization    =     0.00 Bohr mag/cell

     iteration # 10     ecut=    40.00 Ry     beta= 0.50
     Davidson diagonalization with overlap
     ethr =  3.63E-11,  avg # of iterations =  1.0

     Magnetic moment per site  (integrated on atomic sphere of radius R)
     atom   1 (R=0.398)  charge= 10.0343  magn=  0.0000
     atom   2 (R=0.398)  charge=  8.8192  magn=  0.0000

     total cpu time spent up to now is       67.2 secs

     End of self-consistent calculation

     Number of k-points >= 100: set verbosity='high' to print the bands.

     the Fermi energy is    15.6298 ev

!    total energy              =    -154.72969158 Ry
     estimated scf accuracy    <          9.5E-10 Ry
     smearing contrib. (-TS)   =      -0.00038076 Ry
     internal energy E=F+TS    =    -154.72931082 Ry

     The total energy is F=E-TS. E is the sum of the following terms:
     one-electron contribution =      -4.31982020 Ry
     hartree contribution      =      27.73454395 Ry
     xc contribution           =     -24.54656698 Ry
     ewald contribution        =    -153.59746759 Ry

     total magnetization       =     0.00 Bohr mag/cell
     absolute magnetization    =     0.00 Bohr mag/cell

     convergence has been achieved in  10 iterations

     Forces acting on atoms (cartesian axes, Ry/au):

     atom    1 type  2   force =     0.00000000    0.00000000    0.00000000
     atom    2 type  1   force =     0.00000000    0.00000000    0.00000000
     The non-local contrib.  to forces
     atom    1 type  2   force =     0.00000000    0.00000000    0.00000000
     atom    2 type  1   force =     0.00000000    0.00000000    0.00000000
     The ionic contribution  to forces
     atom    1 type  2   force =     0.00000000    0.00000000   -0.00000000
     atom    2 type  1   force =    -0.00000000   -0.00000000   -0.00000000
     The local contribution  to forces
     atom    1 type  2   force =     0.00000000    0.00000000   -0.00000000
     atom    2 type  1   force =     0.00000000    0.00000000   -0.00000000
     The core correction contribution to forces
     atom    1 type  2   force =     0.00000000    0.00000000    0.00000000
     atom    2 type  1   force =     0.00000000    0.00000000    0.00000000
     The Hubbard contrib.    to forces
     atom    1 type  2   force =     0.00000000    0.00000000    0.00000000
     atom    2 type  1   force =     0.00000000    0.00000000    0.00000000
     The SCF correction term to forces
     atom    1 type  2   force =    -0.00000000    0.00000000    0.00000000
     atom    2 type  1   force =     0.00000000   -0.00000000    0.00000000

     Total force =     0.000000     Total SCF correction =     0.000000


     Computing stress (Cartesian axis) and pressure

          total   stress  (Ry/bohr**3)                   (kbar)     P=       -3.60
   0.00000239   0.00000000   0.00000000            0.35        0.00        0.00
   0.00000000   0.00000239   0.00000000            0.00        0.35        0.00
   0.00000000   0.00000000  -0.00007826            0.00        0.00      -11.51

     Energy error            =      5.3E-05 Ry
     Gradient error          =      0.0E+00 Ry/Bohr
     Cell gradient error     =      1.2E+01 kbar

     number of scf cycles    =   3
     number of bfgs steps    =   2

     enthalpy           old  =    -154.7296386471 Ry
     enthalpy           new  =    -154.7296915784 Ry

     CASE: enthalpy          _new < enthalpy          _old

     new trust radius        =       0.0121442746 bohr
     new conv_thr            =       0.0000000010 Ry

     new unit-cell volume =    188.92035 a.u.^3 (    27.99511 Ang^3 )
     density =     15.45239 g/cm^3

CELL_PARAMETERS (angstrom)
   2.789405037   0.000000000   0.000000000
   0.000000000   2.789405037   0.000000000
   0.000000000   0.000000000   3.597981936

ATOMIC_POSITIONS (angstrom)
Cu            0.0000000000        0.0000000000        0.0000000000
Au            1.3947025185        1.3947025185        1.7989909679



     Writing config-only to output data dir /home/gridsan/epan1/labutil/lab3_samples/problem3/Lab3/CuAu_a_2.766_c_3.623_ecut_40_nk_10/pwscf.save/
     NEW-OLD atomic charge density approx. for the potential
     extrapolated charge   22.05635, renormalised to   22.00000
     Generating pointlists ...

     total cpu time spent up to now is       68.5 secs

     Self-consistent Calculation

     iteration #  1     ecut=    40.00 Ry     beta= 0.50
     Davidson diagonalization with overlap
     c_bands:  1 eigenvalues not converged
     ethr =  1.00E-06,  avg # of iterations =  3.6

     total cpu time spent up to now is       71.8 secs

     total energy              =    -154.72853702 Ry
     estimated scf accuracy    <       0.00126005 Ry

     total magnetization       =     0.00 Bohr mag/cell
     absolute magnetization    =     0.00 Bohr mag/cell

     iteration #  2     ecut=    40.00 Ry     beta= 0.50
     Davidson diagonalization with overlap
     ethr =  5.73E-06,  avg # of iterations =  2.1

     total cpu time spent up to now is       74.3 secs

     total energy              =    -154.72948008 Ry
     estimated scf accuracy    <       0.00445552 Ry

     total magnetization       =    -0.00 Bohr mag/cell
     absolute magnetization    =     0.00 Bohr mag/cell

     iteration #  3     ecut=    40.00 Ry     beta= 0.50
     Davidson diagonalization with overlap
     ethr =  5.73E-06,  avg # of iterations =  2.0

     total cpu time spent up to now is       76.4 secs

     total energy              =    -154.72979423 Ry
     estimated scf accuracy    <       0.00042959 Ry

     total magnetization       =    -0.00 Bohr mag/cell
     absolute magnetization    =     0.00 Bohr mag/cell

     iteration #  4     ecut=    40.00 Ry     beta= 0.50
     Davidson diagonalization with overlap
     ethr =  1.95E-06,  avg # of iterations =  1.0

     total cpu time spent up to now is       78.2 secs

     total energy              =    -154.72969745 Ry
     estimated scf accuracy    <       0.00022253 Ry

     total magnetization       =     0.00 Bohr mag/cell
     absolute magnetization    =     0.00 Bohr mag/cell

     iteration #  5     ecut=    40.00 Ry     beta= 0.50
     Davidson diagonalization with overlap
     ethr =  1.01E-06,  avg # of iterations =  2.0

     total cpu time spent up to now is       80.4 secs

     total energy              =    -154.72974924 Ry
     estimated scf accuracy    <       0.00000648 Ry

     total magnetization       =     0.00 Bohr mag/cell
     absolute magnetization    =     0.00 Bohr mag/cell

     iteration #  6     ecut=    40.00 Ry     beta= 0.50
     Davidson diagonalization with overlap
     ethr =  2.95E-08,  avg # of iterations =  1.5

     total cpu time spent up to now is       82.8 secs

     total energy              =    -154.72974888 Ry
     estimated scf accuracy    <       0.00000245 Ry

     total magnetization       =     0.00 Bohr mag/cell
     absolute magnetization    =     0.00 Bohr mag/cell

     iteration #  7     ecut=    40.00 Ry     beta= 0.50
     Davidson diagonalization with overlap
     ethr =  1.11E-08,  avg # of iterations =  1.0

     total cpu time spent up to now is       84.7 secs

     total energy              =    -154.72974900 Ry
     estimated scf accuracy    <       0.00000023 Ry

     total magnetization       =     0.00 Bohr mag/cell
     absolute magnetization    =     0.00 Bohr mag/cell

     iteration #  8     ecut=    40.00 Ry     beta= 0.50
     Davidson diagonalization with overlap
     ethr =  1.03E-09,  avg # of iterations =  2.0

     Magnetic moment per site  (integrated on atomic sphere of radius R)
     atom   1 (R=0.398)  charge= 10.0320  magn= -0.0000
     atom   2 (R=0.398)  charge=  8.8171  magn=  0.0000

     total cpu time spent up to now is       86.8 secs

     End of self-consistent calculation

     Number of k-points >= 100: set verbosity='high' to print the bands.

     the Fermi energy is    15.5660 ev

!    total energy              =    -154.72974904 Ry
     estimated scf accuracy    <          6.1E-10 Ry
     smearing contrib. (-TS)   =      -0.00033582 Ry
     internal energy E=F+TS    =    -154.72941321 Ry

     The total energy is F=E-TS. E is the sum of the following terms:
     one-electron contribution =      -4.51328421 Ry
     hartree contribution      =      27.79186359 Ry
     xc contribution           =     -24.54287846 Ry
     ewald contribution        =    -153.46511414 Ry

     total magnetization       =     0.00 Bohr mag/cell
     absolute magnetization    =     0.00 Bohr mag/cell

     convergence has been achieved in   8 iterations

     Forces acting on atoms (cartesian axes, Ry/au):

     atom    1 type  2   force =     0.00000000    0.00000000    0.00000000
     atom    2 type  1   force =     0.00000000    0.00000000    0.00000000
     The non-local contrib.  to forces
     atom    1 type  2   force =     0.00000000    0.00000000    0.00000000
     atom    2 type  1   force =     0.00000000    0.00000000    0.00000000
     The ionic contribution  to forces
     atom    1 type  2   force =     0.00000000    0.00000000   -0.00000000
     atom    2 type  1   force =     0.00000000    0.00000000   -0.00000000
     The local contribution  to forces
     atom    1 type  2   force =    -0.00000000    0.00000000    0.00000000
     atom    2 type  1   force =     0.00000000    0.00000000   -0.00000000
     The core correction contribution to forces
     atom    1 type  2   force =     0.00000000    0.00000000    0.00000000
     atom    2 type  1   force =     0.00000000    0.00000000    0.00000000
     The Hubbard contrib.    to forces
     atom    1 type  2   force =     0.00000000    0.00000000    0.00000000
     atom    2 type  1   force =     0.00000000    0.00000000    0.00000000
     The SCF correction term to forces
     atom    1 type  2   force =     0.00000000   -0.00000000   -0.00000000
     atom    2 type  1   force =    -0.00000000    0.00000000   -0.00000000

     Total force =     0.000000     Total SCF correction =     0.000000


     Computing stress (Cartesian axis) and pressure

          total   stress  (Ry/bohr**3)                   (kbar)     P=       -8.36
  -0.00003147   0.00000000   0.00000000           -4.63        0.00        0.00
   0.00000000  -0.00003147   0.00000000            0.00       -4.63        0.00
   0.00000000   0.00000000  -0.00010746            0.00        0.00      -15.81

     Energy error            =      5.7E-05 Ry
     Gradient error          =      0.0E+00 Ry/Bohr
     Cell gradient error     =      1.6E+01 kbar

     number of scf cycles    =   4
     number of bfgs steps    =   3

     enthalpy           old  =    -154.7296915784 Ry
     enthalpy           new  =    -154.7297490389 Ry

     CASE: enthalpy          _new < enthalpy          _old

     new trust radius        =       0.0183208291 bohr
     new conv_thr            =       0.0000000010 Ry

     new unit-cell volume =    189.21128 a.u.^3 (    28.03822 Ang^3 )
     density =     15.42863 g/cm^3

CELL_PARAMETERS (angstrom)
   2.800901104   0.000000000   0.000000000
   0.000000000   2.800901104   0.000000000
   0.000000000   0.000000000   3.574002733

ATOMIC_POSITIONS (angstrom)
Cu            0.0000000000        0.0000000000        0.0000000000
Au            1.4004505518        1.4004505518        1.7870013667



     Writing config-only to output data dir /home/gridsan/epan1/labutil/lab3_samples/problem3/Lab3/CuAu_a_2.766_c_3.623_ecut_40_nk_10/pwscf.save/
     NEW-OLD atomic charge density approx. for the potential
     extrapolated charge   22.03383, renormalised to   22.00000
     Generating pointlists ...

     total cpu time spent up to now is       88.0 secs

     Self-consistent Calculation

     iteration #  1     ecut=    40.00 Ry     beta= 0.50
     Davidson diagonalization with overlap
     ethr =  1.00E-06,  avg # of iterations =  3.9

     total cpu time spent up to now is       91.4 secs

     total energy              =    -154.72936598 Ry
     estimated scf accuracy    <       0.00049643 Ry

     total magnetization       =     0.00 Bohr mag/cell
     absolute magnetization    =     0.00 Bohr mag/cell

     iteration #  2     ecut=    40.00 Ry     beta= 0.50
     Davidson diagonalization with overlap
     ethr =  2.26E-06,  avg # of iterations =  2.1

     total cpu time spent up to now is       93.9 secs

     total energy              =    -154.72971388 Ry
     estimated scf accuracy    <       0.00173412 Ry

     total magnetization       =    -0.00 Bohr mag/cell
     absolute magnetization    =     0.00 Bohr mag/cell

     iteration #  3     ecut=    40.00 Ry     beta= 0.50
     Davidson diagonalization with overlap
     ethr =  2.26E-06,  avg # of iterations =  2.0

     total cpu time spent up to now is       95.9 secs

     total energy              =    -154.72984342 Ry
     estimated scf accuracy    <       0.00015348 Ry

     total magnetization       =     0.00 Bohr mag/cell
     absolute magnetization    =     0.00 Bohr mag/cell

     iteration #  4     ecut=    40.00 Ry     beta= 0.50
     Davidson diagonalization with overlap
     ethr =  6.98E-07,  avg # of iterations =  1.0

     total cpu time spent up to now is       97.8 secs

     total energy              =    -154.72980557 Ry
     estimated scf accuracy    <       0.00008037 Ry

     total magnetization       =     0.00 Bohr mag/cell
     absolute magnetization    =     0.00 Bohr mag/cell

     iteration #  5     ecut=    40.00 Ry     beta= 0.50
     Davidson diagonalization with overlap
     ethr =  3.65E-07,  avg # of iterations =  2.0

     total cpu time spent up to now is      100.1 secs

     total energy              =    -154.72982643 Ry
     estimated scf accuracy    <       0.00000622 Ry

     total magnetization       =     0.00 Bohr mag/cell
     absolute magnetization    =     0.00 Bohr mag/cell

     iteration #  6     ecut=    40.00 Ry     beta= 0.50
     Davidson diagonalization with overlap
     ethr =  2.83E-08,  avg # of iterations =  1.0

     total cpu time spent up to now is      101.9 secs

     total energy              =    -154.72982680 Ry
     estimated scf accuracy    <       0.00000056 Ry

     total magnetization       =     0.00 Bohr mag/cell
     absolute magnetization    =     0.00 Bohr mag/cell

     iteration #  7     ecut=    40.00 Ry     beta= 0.50
     Davidson diagonalization with overlap
     ethr =  2.55E-09,  avg # of iterations =  2.0

     total cpu time spent up to now is      103.9 secs

     total energy              =    -154.72982690 Ry
     estimated scf accuracy    <          1.1E-09 Ry

     total magnetization       =     0.00 Bohr mag/cell
     absolute magnetization    =     0.00 Bohr mag/cell

     iteration #  8     ecut=    40.00 Ry     beta= 0.50
     Davidson diagonalization with overlap
     ethr =  5.07E-12,  avg # of iterations =  3.0

     total cpu time spent up to now is      106.6 secs

     total energy              =    -154.72982690 Ry
     estimated scf accuracy    <          1.2E-09 Ry

     total magnetization       =     0.00 Bohr mag/cell
     absolute magnetization    =     0.00 Bohr mag/cell

     iteration #  9     ecut=    40.00 Ry     beta= 0.50
     Davidson diagonalization with overlap
     ethr =  5.07E-12,  avg # of iterations =  1.0

     Magnetic moment per site  (integrated on atomic sphere of radius R)
     atom   1 (R=0.398)  charge= 10.0314  magn=  0.0000
     atom   2 (R=0.398)  charge=  8.8158  magn=  0.0000

     total cpu time spent up to now is      108.5 secs

     End of self-consistent calculation

     Number of k-points >= 100: set verbosity='high' to print the bands.

     the Fermi energy is    15.5220 ev

!    total energy              =    -154.72982690 Ry
     estimated scf accuracy    <          8.3E-10 Ry
     smearing contrib. (-TS)   =      -0.00025845 Ry
     internal energy E=F+TS    =    -154.72956845 Ry

     The total energy is F=E-TS. E is the sum of the following terms:
     one-electron contribution =      -4.63098443 Ry
     hartree contribution      =      27.82716737 Ry
     xc contribution           =     -24.54070238 Ry
     ewald contribution        =    -153.38504901 Ry

     total magnetization       =     0.00 Bohr mag/cell
     absolute magnetization    =     0.00 Bohr mag/cell

     convergence has been achieved in   9 iterations

     Forces acting on atoms (cartesian axes, Ry/au):

     atom    1 type  2   force =     0.00000000    0.00000000    0.00000000
     atom    2 type  1   force =     0.00000000    0.00000000    0.00000000
     The non-local contrib.  to forces
     atom    1 type  2   force =     0.00000000    0.00000000    0.00000000
     atom    2 type  1   force =     0.00000000    0.00000000    0.00000000
     The ionic contribution  to forces
     atom    1 type  2   force =     0.00000000    0.00000000   -0.00000000
     atom    2 type  1   force =     0.00000000    0.00000000    0.00000000
     The local contribution  to forces
     atom    1 type  2   force =    -0.00000000    0.00000000    0.00000000
     atom    2 type  1   force =     0.00000000    0.00000000   -0.00000000
     The core correction contribution to forces
     atom    1 type  2   force =     0.00000000    0.00000000    0.00000000
     atom    2 type  1   force =     0.00000000    0.00000000    0.00000000
     The Hubbard contrib.    to forces
     atom    1 type  2   force =     0.00000000    0.00000000    0.00000000
     atom    2 type  1   force =     0.00000000    0.00000000    0.00000000
     The SCF correction term to forces
     atom    1 type  2   force =     0.00000000    0.00000000    0.00000000
     atom    2 type  1   force =     0.00000000   -0.00000000    0.00000000

     Total force =     0.000000     Total SCF correction =     0.000000


     Computing stress (Cartesian axis) and pressure

          total   stress  (Ry/bohr**3)                   (kbar)     P=      -10.82
  -0.00005170   0.00000000   0.00000000           -7.61        0.00        0.00
   0.00000000  -0.00005170   0.00000000            0.00       -7.61        0.00
   0.00000000   0.00000000  -0.00011727            0.00        0.00      -17.25

     Energy error            =      7.8E-05 Ry
     Gradient error          =      0.0E+00 Ry/Bohr
     Cell gradient error     =      1.7E+01 kbar

     number of scf cycles    =   5
     number of bfgs steps    =   4

     enthalpy           old  =    -154.7297490389 Ry
     enthalpy           new  =    -154.7298268978 Ry

     CASE: enthalpy          _new < enthalpy          _old

     new trust radius        =       0.0276869187 bohr
     new conv_thr            =       0.0000000010 Ry

     new unit-cell volume =    189.34070 a.u.^3 (    28.05740 Ang^3 )
     density =     15.41808 g/cm^3

CELL_PARAMETERS (angstrom)
   2.816065112   0.000000000   0.000000000
   0.000000000   2.816065112   0.000000000
   0.000000000   0.000000000   3.538033930

ATOMIC_POSITIONS (angstrom)
Cu            0.0000000000        0.0000000000        0.0000000000
Au            1.4080325558        1.4080325558        1.7690169648



     Writing config-only to output data dir /home/gridsan/epan1/labutil/lab3_samples/problem3/Lab3/CuAu_a_2.766_c_3.623_ecut_40_nk_10/pwscf.save/
     NEW-OLD atomic charge density approx. for the potential
     extrapolated charge   22.01504, renormalised to   22.00000
     Generating pointlists ...

     total cpu time spent up to now is      109.7 secs

     Self-consistent Calculation

     iteration #  1     ecut=    40.00 Ry     beta= 0.50
     Davidson diagonalization with overlap
     ethr =  1.00E-06,  avg # of iterations =  4.5

     total cpu time spent up to now is      113.4 secs

     total energy              =    -154.72980250 Ry
     estimated scf accuracy    <       0.00014530 Ry

     total magnetization       =     0.00 Bohr mag/cell
     absolute magnetization    =     0.00 Bohr mag/cell

     iteration #  2     ecut=    40.00 Ry     beta= 0.50
     Davidson diagonalization with overlap
     ethr =  6.60E-07,  avg # of iterations =  2.1

     total cpu time spent up to now is      115.7 secs

     total energy              =    -154.72988215 Ry
     estimated scf accuracy    <       0.00044288 Ry

     total magnetization       =     0.00 Bohr mag/cell
     absolute magnetization    =     0.00 Bohr mag/cell

     iteration #  3     ecut=    40.00 Ry     beta= 0.50
     Davidson diagonalization with overlap
     ethr =  6.60E-07,  avg # of iterations =  2.0

     total cpu time spent up to now is      117.8 secs

     total energy              =    -154.72991950 Ry
     estimated scf accuracy    <       0.00002983 Ry

     total magnetization       =     0.00 Bohr mag/cell
     absolute magnetization    =     0.00 Bohr mag/cell

     iteration #  4     ecut=    40.00 Ry     beta= 0.50
     Davidson diagonalization with overlap
     ethr =  1.36E-07,  avg # of iterations =  1.0

     total cpu time spent up to now is      119.7 secs

     total energy              =    -154.72991411 Ry
     estimated scf accuracy    <       0.00001211 Ry

     total magnetization       =     0.00 Bohr mag/cell
     absolute magnetization    =     0.00 Bohr mag/cell

     iteration #  5     ecut=    40.00 Ry     beta= 0.50
     Davidson diagonalization with overlap
     ethr =  5.50E-08,  avg # of iterations =  2.0

     total cpu time spent up to now is      122.0 secs

     total energy              =    -154.72991733 Ry
     estimated scf accuracy    <       0.00000181 Ry

     total magnetization       =     0.00 Bohr mag/cell
     absolute magnetization    =     0.00 Bohr mag/cell

     iteration #  6     ecut=    40.00 Ry     beta= 0.50
     Davidson diagonalization with overlap
     ethr =  8.22E-09,  avg # of iterations =  1.4

     total cpu time spent up to now is      124.1 secs

     total energy              =    -154.72991761 Ry
     estimated scf accuracy    <          7.2E-09 Ry

     total magnetization       =     0.00 Bohr mag/cell
     absolute magnetization    =     0.00 Bohr mag/cell

     iteration #  7     ecut=    40.00 Ry     beta= 0.50
     Davidson diagonalization with overlap
     ethr =  3.29E-11,  avg # of iterations =  2.4

     total cpu time spent up to now is      126.6 secs

     total energy              =    -154.72991762 Ry
     estimated scf accuracy    <          7.0E-09 Ry

     total magnetization       =     0.00 Bohr mag/cell
     absolute magnetization    =     0.00 Bohr mag/cell

     iteration #  8     ecut=    40.00 Ry     beta= 0.50
     Davidson diagonalization with overlap
     ethr =  3.19E-11,  avg # of iterations =  1.0

     Magnetic moment per site  (integrated on atomic sphere of radius R)
     atom   1 (R=0.398)  charge= 10.0329  magn=  0.0000
     atom   2 (R=0.398)  charge=  8.8152  magn=  0.0000

     total cpu time spent up to now is      128.3 secs

     End of self-consistent calculation

     Number of k-points >= 100: set verbosity='high' to print the bands.

     the Fermi energy is    15.4914 ev

!    total energy              =    -154.72991762 Ry
     estimated scf accuracy    <          8.0E-10 Ry
     smearing contrib. (-TS)   =      -0.00019060 Ry
     internal energy E=F+TS    =    -154.72972702 Ry

     The total energy is F=E-TS. E is the sum of the following terms:
     one-electron contribution =      -4.68485438 Ry
     hartree contribution      =      27.84309134 Ry
     xc contribution           =     -24.53951617 Ry
     ewald contribution        =    -153.34844781 Ry

     total magnetization       =     0.00 Bohr mag/cell
     absolute magnetization    =     0.00 Bohr mag/cell

     convergence has been achieved in   8 iterations

     Forces acting on atoms (cartesian axes, Ry/au):

     atom    1 type  2   force =     0.00000000    0.00000000    0.00000000
     atom    2 type  1   force =     0.00000000    0.00000000    0.00000000
     The non-local contrib.  to forces
     atom    1 type  2   force =     0.00000000    0.00000000    0.00000000
     atom    2 type  1   force =     0.00000000    0.00000000    0.00000000
     The ionic contribution  to forces
     atom    1 type  2   force =     0.00000000    0.00000000   -0.00000000
     atom    2 type  1   force =     0.00000000    0.00000000   -0.00000000
     The local contribution  to forces
     atom    1 type  2   force =     0.00000000    0.00000000    0.00000000
     atom    2 type  1   force =     0.00000000    0.00000000   -0.00000000
     The core correction contribution to forces
     atom    1 type  2   force =     0.00000000    0.00000000    0.00000000
     atom    2 type  1   force =     0.00000000    0.00000000    0.00000000
     The Hubbard contrib.    to forces
     atom    1 type  2   force =     0.00000000    0.00000000    0.00000000
     atom    2 type  1   force =     0.00000000    0.00000000    0.00000000
     The SCF correction term to forces
     atom    1 type  2   force =     0.00000000    0.00000000    0.00000000
     atom    2 type  1   force =    -0.00000000    0.00000000    0.00000000

     Total force =     0.000000     Total SCF correction =     0.000000


     Computing stress (Cartesian axis) and pressure

          total   stress  (Ry/bohr**3)                   (kbar)     P=      -12.18
  -0.00006977   0.00000000   0.00000000          -10.26        0.00        0.00
   0.00000000  -0.00006977   0.00000000            0.00      -10.26        0.00
   0.00000000   0.00000000  -0.00010893            0.00        0.00      -16.02

     Energy error            =      9.1E-05 Ry
     Gradient error          =      0.0E+00 Ry/Bohr
     Cell gradient error     =      1.6E+01 kbar

     number of scf cycles    =   6
     number of bfgs steps    =   5

     enthalpy           old  =    -154.7298268978 Ry
     enthalpy           new  =    -154.7299176199 Ry

     CASE: enthalpy          _new < enthalpy          _old

     new trust radius        =       0.0419669343 bohr
     new conv_thr            =       0.0000000010 Ry

     new unit-cell volume =    188.91201 a.u.^3 (    27.99387 Ang^3 )
     density =     15.45307 g/cm^3

CELL_PARAMETERS (angstrom)
   2.834571281   0.000000000   0.000000000
   0.000000000   2.834571281   0.000000000
   0.000000000   0.000000000   3.484080724

ATOMIC_POSITIONS (angstrom)
Cu            0.0000000000        0.0000000000        0.0000000000
Au            1.4172856403        1.4172856403        1.7420403620



     Writing config-only to output data dir /home/gridsan/epan1/labutil/lab3_samples/problem3/Lab3/CuAu_a_2.766_c_3.623_ecut_40_nk_10/pwscf.save/
     NEW-OLD atomic charge density approx. for the potential
     extrapolated charge   21.95008, renormalised to   22.00000
     Generating pointlists ...

     total cpu time spent up to now is      129.6 secs

     Self-consistent Calculation

     iteration #  1     ecut=    40.00 Ry     beta= 0.50
     Davidson diagonalization with overlap
     ethr =  1.00E-06,  avg # of iterations =  5.4

     total cpu time spent up to now is      133.5 secs

     total energy              =    -154.72927448 Ry
     estimated scf accuracy    <       0.00071499 Ry

     total magnetization       =    -0.00 Bohr mag/cell
     absolute magnetization    =     0.00 Bohr mag/cell

     iteration #  2     ecut=    40.00 Ry     beta= 0.50
     Davidson diagonalization with overlap
     ethr =  3.25E-06,  avg # of iterations =  2.1

     total cpu time spent up to now is      135.9 secs

     total energy              =    -154.72987900 Ry
     estimated scf accuracy    <       0.00247173 Ry

     total magnetization       =     0.00 Bohr mag/cell
     absolute magnetization    =     0.00 Bohr mag/cell

     iteration #  3     ecut=    40.00 Ry     beta= 0.50
     Davidson diagonalization with overlap
     ethr =  3.25E-06,  avg # of iterations =  2.0

     total cpu time spent up to now is      138.0 secs

     total energy              =    -154.73003247 Ry
     estimated scf accuracy    <       0.00026919 Ry

     total magnetization       =    -0.00 Bohr mag/cell
     absolute magnetization    =     0.00 Bohr mag/cell

     iteration #  4     ecut=    40.00 Ry     beta= 0.50
     Davidson diagonalization with overlap
     ethr =  1.22E-06,  avg # of iterations =  1.0

     total cpu time spent up to now is      139.9 secs

     total energy              =    -154.72997318 Ry
     estimated scf accuracy    <       0.00012436 Ry

     total magnetization       =    -0.00 Bohr mag/cell
     absolute magnetization    =     0.00 Bohr mag/cell

     iteration #  5     ecut=    40.00 Ry     beta= 0.50
     Davidson diagonalization with overlap
     ethr =  5.65E-07,  avg # of iterations =  2.0

     total cpu time spent up to now is      142.2 secs

     total energy              =    -154.73000775 Ry
     estimated scf accuracy    <       0.00001859 Ry

     total magnetization       =    -0.00 Bohr mag/cell
     absolute magnetization    =     0.00 Bohr mag/cell

     iteration #  6     ecut=    40.00 Ry     beta= 0.50
     Davidson diagonalization with overlap
     ethr =  8.45E-08,  avg # of iterations =  1.1

     total cpu time spent up to now is      144.0 secs

     total energy              =    -154.73001020 Ry
     estimated scf accuracy    <       0.00000041 Ry

     total magnetization       =    -0.00 Bohr mag/cell
     absolute magnetization    =     0.00 Bohr mag/cell

     iteration #  7     ecut=    40.00 Ry     beta= 0.50
     Davidson diagonalization with overlap
     ethr =  1.88E-09,  avg # of iterations =  1.7

     total cpu time spent up to now is      145.9 secs

     total energy              =    -154.73001008 Ry
     estimated scf accuracy    <       0.00000034 Ry

     total magnetization       =    -0.00 Bohr mag/cell
     absolute magnetization    =     0.00 Bohr mag/cell

     iteration #  8     ecut=    40.00 Ry     beta= 0.50
     Davidson diagonalization with overlap
     ethr =  1.57E-09,  avg # of iterations =  1.9

     total cpu time spent up to now is      147.9 secs

     total energy              =    -154.73001014 Ry
     estimated scf accuracy    <          1.8E-09 Ry

     total magnetization       =    -0.00 Bohr mag/cell
     absolute magnetization    =     0.00 Bohr mag/cell

     iteration #  9     ecut=    40.00 Ry     beta= 0.50
     Davidson diagonalization with overlap
     ethr =  8.37E-12,  avg # of iterations =  2.8

     total cpu time spent up to now is      150.6 secs

     total energy              =    -154.73001014 Ry
     estimated scf accuracy    <          6.0E-09 Ry

     total magnetization       =    -0.00 Bohr mag/cell
     absolute magnetization    =     0.00 Bohr mag/cell

     iteration # 10     ecut=    40.00 Ry     beta= 0.50
     Davidson diagonalization with overlap
     ethr =  8.37E-12,  avg # of iterations =  2.0

     Magnetic moment per site  (integrated on atomic sphere of radius R)
     atom   1 (R=0.398)  charge= 10.0389  magn= -0.0000
     atom   2 (R=0.398)  charge=  8.8161  magn= -0.0000

     total cpu time spent up to now is      152.9 secs

     End of self-consistent calculation

     Number of k-points >= 100: set verbosity='high' to print the bands.

     the Fermi energy is    15.5228 ev

!    total energy              =    -154.73001014 Ry
     estimated scf accuracy    <          4.6E-10 Ry
     smearing contrib. (-TS)   =      -0.00018258 Ry
     internal energy E=F+TS    =    -154.72982756 Ry

     The total energy is F=E-TS. E is the sum of the following terms:
     one-electron contribution =      -4.51775180 Ry
     hartree contribution      =      27.79302697 Ry
     xc contribution           =     -24.54224361 Ry
     ewald contribution        =    -153.46285913 Ry

     total magnetization       =    -0.00 Bohr mag/cell
     absolute magnetization    =     0.00 Bohr mag/cell

     convergence has been achieved in  10 iterations

     Forces acting on atoms (cartesian axes, Ry/au):

     atom    1 type  2   force =     0.00000000    0.00000000    0.00000000
     atom    2 type  1   force =     0.00000000    0.00000000    0.00000000
     The non-local contrib.  to forces
     atom    1 type  2   force =     0.00000000    0.00000000    0.00000000
     atom    2 type  1   force =     0.00000000    0.00000000    0.00000000
     The ionic contribution  to forces
     atom    1 type  2   force =     0.00000000    0.00000000   -0.00000000
     atom    2 type  1   force =     0.00000000    0.00000000    0.00000000
     The local contribution  to forces
     atom    1 type  2   force =     0.00000000    0.00000000    0.00000000
     atom    2 type  1   force =     0.00000000    0.00000000   -0.00000000
     The core correction contribution to forces
     atom    1 type  2   force =     0.00000000    0.00000000    0.00000000
     atom    2 type  1   force =     0.00000000    0.00000000    0.00000000
     The Hubbard contrib.    to forces
     atom    1 type  2   force =     0.00000000    0.00000000    0.00000000
     atom    2 type  1   force =     0.00000000    0.00000000    0.00000000
     The SCF correction term to forces
     atom    1 type  2   force =    -0.00000000   -0.00000000   -0.00000000
     atom    2 type  1   force =     0.00000000    0.00000000    0.00000000

     Total force =     0.000000     Total SCF correction =     0.000000


     Computing stress (Cartesian axis) and pressure

          total   stress  (Ry/bohr**3)                   (kbar)     P=       -9.20
  -0.00006005   0.00000000   0.00000000           -8.83        0.00        0.00
   0.00000000  -0.00006005   0.00000000            0.00       -8.83        0.00
   0.00000000   0.00000000  -0.00006754            0.00        0.00       -9.93

     Energy error            =      9.3E-05 Ry
     Gradient error          =      0.0E+00 Ry/Bohr
     Cell gradient error     =      9.9E+00 kbar

     number of scf cycles    =   7
     number of bfgs steps    =   6

     enthalpy           old  =    -154.7299176199 Ry
     enthalpy           new  =    -154.7300101400 Ry

     CASE: enthalpy          _new < enthalpy          _old

     new trust radius        =       0.0210565466 bohr
     new conv_thr            =       0.0000000010 Ry

     new unit-cell volume =    188.27238 a.u.^3 (    27.89909 Ang^3 )
     density =     15.50557 g/cm^3

CELL_PARAMETERS (angstrom)
   2.840669063   0.000000000   0.000000000
   0.000000000   2.840669063   0.000000000
   0.000000000   0.000000000   3.457392752

ATOMIC_POSITIONS (angstrom)
Cu            0.0000000000        0.0000000000        0.0000000000
Au            1.4203345315        1.4203345315        1.7286963760



     Writing config-only to output data dir /home/gridsan/epan1/labutil/lab3_samples/problem3/Lab3/CuAu_a_2.766_c_3.623_ecut_40_nk_10/pwscf.save/
     NEW-OLD atomic charge density approx. for the potential
     extrapolated charge   21.92526, renormalised to   22.00000
     Generating pointlists ...

     total cpu time spent up to now is      154.4 secs

     Self-consistent Calculation

     iteration #  1     ecut=    40.00 Ry     beta= 0.50
     Davidson diagonalization with overlap
     ethr =  1.00E-06,  avg # of iterations =  3.9

     total cpu time spent up to now is      157.8 secs

     total energy              =    -154.72827475 Ry
     estimated scf accuracy    <       0.00173684 Ry

     total magnetization       =    -0.00 Bohr mag/cell
     absolute magnetization    =     0.00 Bohr mag/cell

     iteration #  2     ecut=    40.00 Ry     beta= 0.50
     Davidson diagonalization with overlap
     ethr =  7.89E-06,  avg # of iterations =  2.2

     total cpu time spent up to now is      160.3 secs

     total energy              =    -154.72967584 Ry
     estimated scf accuracy    <       0.00617999 Ry

     total magnetization       =    -0.00 Bohr mag/cell
     absolute magnetization    =     0.00 Bohr mag/cell

     iteration #  3     ecut=    40.00 Ry     beta= 0.50
     Davidson diagonalization with overlap
     ethr =  7.89E-06,  avg # of iterations =  2.0

     total cpu time spent up to now is      162.4 secs

     total energy              =    -154.73009799 Ry
     estimated scf accuracy    <       0.00060833 Ry

     total magnetization       =    -0.00 Bohr mag/cell
     absolute magnetization    =     0.00 Bohr mag/cell

     iteration #  4     ecut=    40.00 Ry     beta= 0.50
     Davidson diagonalization with overlap
     ethr =  2.77E-06,  avg # of iterations =  1.0

     total cpu time spent up to now is      164.2 secs

     total energy              =    -154.72995700 Ry
     estimated scf accuracy    <       0.00029970 Ry

     total magnetization       =     0.00 Bohr mag/cell
     absolute magnetization    =     0.00 Bohr mag/cell

     iteration #  5     ecut=    40.00 Ry     beta= 0.50
     Davidson diagonalization with overlap
     ethr =  1.36E-06,  avg # of iterations =  2.0

     total cpu time spent up to now is      166.4 secs

     total energy              =    -154.73003719 Ry
     estimated scf accuracy    <       0.00002541 Ry

     total magnetization       =    -0.00 Bohr mag/cell
     absolute magnetization    =     0.00 Bohr mag/cell

     iteration #  6     ecut=    40.00 Ry     beta= 0.50
     Davidson diagonalization with overlap
     ethr =  1.16E-07,  avg # of iterations =  1.0

     total cpu time spent up to now is      168.5 secs

     total energy              =    -154.73003922 Ry
     estimated scf accuracy    <       0.00000286 Ry

     total magnetization       =    -0.00 Bohr mag/cell
     absolute magnetization    =     0.00 Bohr mag/cell

     iteration #  7     ecut=    40.00 Ry     beta= 0.50
     Davidson diagonalization with overlap
     ethr =  1.30E-08,  avg # of iterations =  1.0

     total cpu time spent up to now is      170.3 secs

     total energy              =    -154.73003840 Ry
     estimated scf accuracy    <       0.00000201 Ry

     total magnetization       =    -0.00 Bohr mag/cell
     absolute magnetization    =     0.00 Bohr mag/cell

     iteration #  8     ecut=    40.00 Ry     beta= 0.50
     Davidson diagonalization with overlap
     ethr =  9.14E-09,  avg # of iterations =  1.9

     Magnetic moment per site  (integrated on atomic sphere of radius R)
     atom   1 (R=0.398)  charge= 10.0451  magn= -0.0000
     atom   2 (R=0.398)  charge=  8.8186  magn= -0.0000

     total cpu time spent up to now is      172.3 secs

     End of self-consistent calculation

     Number of k-points >= 100: set verbosity='high' to print the bands.

     the Fermi energy is    15.5897 ev

!    total energy              =    -154.73003876 Ry
     estimated scf accuracy    <          4.8E-10 Ry
     smearing contrib. (-TS)   =      -0.00018280 Ry
     internal energy E=F+TS    =    -154.72985596 Ry

     The total energy is F=E-TS. E is the sum of the following terms:
     one-electron contribution =      -4.26511836 Ry
     hartree contribution      =      27.71829372 Ry
     xc contribution           =     -24.54688008 Ry
     ewald contribution        =    -153.63615123 Ry

     total magnetization       =    -0.00 Bohr mag/cell
     absolute magnetization    =     0.00 Bohr mag/cell

     convergence has been achieved in   8 iterations

     Forces acting on atoms (cartesian axes, Ry/au):

     atom    1 type  2   force =     0.00000000    0.00000000    0.00000000
     atom    2 type  1   force =     0.00000000    0.00000000    0.00000000
     The non-local contrib.  to forces
     atom    1 type  2   force =     0.00000000    0.00000000    0.00000000
     atom    2 type  1   force =     0.00000000    0.00000000    0.00000000
     The ionic contribution  to forces
     atom    1 type  2   force =     0.00000000    0.00000000   -0.00000000
     atom    2 type  1   force =    -0.00000000   -0.00000000    0.00000000
     The local contribution  to forces
     atom    1 type  2   force =     0.00000000    0.00000000    0.00000000
     atom    2 type  1   force =     0.00000000    0.00000000   -0.00000000
     The core correction contribution to forces
     atom    1 type  2   force =     0.00000000    0.00000000    0.00000000
     atom    2 type  1   force =     0.00000000    0.00000000    0.00000000
     The Hubbard contrib.    to forces
     atom    1 type  2   force =     0.00000000    0.00000000    0.00000000
     atom    2 type  1   force =     0.00000000    0.00000000    0.00000000
     The SCF correction term to forces
     atom    1 type  2   force =    -0.00000000   -0.00000000    0.00000000
     atom    2 type  1   force =    -0.00000000    0.00000000    0.00000000

     Total force =     0.000000     Total SCF correction =     0.000000


     Computing stress (Cartesian axis) and pressure

          total   stress  (Ry/bohr**3)                   (kbar)     P=       -3.27
  -0.00002331   0.00000000   0.00000000           -3.43        0.00        0.00
   0.00000000  -0.00002331   0.00000000            0.00       -3.43        0.00
   0.00000000   0.00000000  -0.00002006            0.00        0.00       -2.95

     Energy error            =      2.9E-05 Ry
     Gradient error          =      0.0E+00 Ry/Bohr
     Cell gradient error     =      3.4E+00 kbar

     number of scf cycles    =   8
     number of bfgs steps    =   7

     enthalpy           old  =    -154.7300101400 Ry
     enthalpy           new  =    -154.7300387615 Ry

     CASE: enthalpy          _new < enthalpy          _old

     new trust radius        =       0.0012423048 bohr
     new conv_thr            =       0.0000000010 Ry

     new unit-cell volume =    188.01770 a.u.^3 (    27.86135 Ang^3 )
     density =     15.52657 g/cm^3

CELL_PARAMETERS (angstrom)
   2.839389875   0.000000000   0.000000000
   0.000000000   2.839389875   0.000000000
   0.000000000   0.000000000   3.455827611

ATOMIC_POSITIONS (angstrom)
Cu            0.0000000000        0.0000000000        0.0000000000
Au            1.4196949374        1.4196949374        1.7279138053



     Writing config-only to output data dir /home/gridsan/epan1/labutil/lab3_samples/problem3/Lab3/CuAu_a_2.766_c_3.623_ecut_40_nk_10/pwscf.save/
     NEW-OLD atomic charge density approx. for the potential
     extrapolated charge   21.97020, renormalised to   22.00000
     Generating pointlists ...

     total cpu time spent up to now is      173.7 secs

     Self-consistent Calculation

     iteration #  1     ecut=    40.00 Ry     beta= 0.50
     Davidson diagonalization with overlap
     ethr =  1.00E-06,  avg # of iterations =  2.0

     total cpu time spent up to now is      176.2 secs

     total energy              =    -154.72975416 Ry
     estimated scf accuracy    <       0.00028632 Ry

     total magnetization       =    -0.00 Bohr mag/cell
     absolute magnetization    =     0.00 Bohr mag/cell

     iteration #  2     ecut=    40.00 Ry     beta= 0.50
     Davidson diagonalization with overlap
     ethr =  1.30E-06,  avg # of iterations =  2.1

     total cpu time spent up to now is      178.6 secs

     total energy              =    -154.72998359 Ry
     estimated scf accuracy    <       0.00098952 Ry

     total magnetization       =    -0.00 Bohr mag/cell
     absolute magnetization    =     0.00 Bohr mag/cell

     iteration #  3     ecut=    40.00 Ry     beta= 0.50
     Davidson diagonalization with overlap
     ethr =  1.30E-06,  avg # of iterations =  2.0

     total cpu time spent up to now is      180.7 secs

     total energy              =    -154.73005095 Ry
     estimated scf accuracy    <       0.00009931 Ry

     total magnetization       =    -0.00 Bohr mag/cell
     absolute magnetization    =     0.00 Bohr mag/cell

     iteration #  4     ecut=    40.00 Ry     beta= 0.50
     Davidson diagonalization with overlap
     ethr =  4.51E-07,  avg # of iterations =  1.0

     total cpu time spent up to now is      182.4 secs

     total energy              =    -154.73004478 Ry
     estimated scf accuracy    <       0.00004938 Ry

     total magnetization       =    -0.00 Bohr mag/cell
     absolute magnetization    =     0.00 Bohr mag/cell

     iteration #  5     ecut=    40.00 Ry     beta= 0.50
     Davidson diagonalization with overlap
     ethr =  2.24E-07,  avg # of iterations =  1.0

     total cpu time spent up to now is      184.5 secs

     total energy              =    -154.73004081 Ry
     estimated scf accuracy    <       0.00002005 Ry

     total magnetization       =    -0.00 Bohr mag/cell
     absolute magnetization    =     0.00 Bohr mag/cell

     iteration #  6     ecut=    40.00 Ry     beta= 0.50
     Davidson diagonalization with overlap
     ethr =  9.11E-08,  avg # of iterations =  1.0

     total cpu time spent up to now is      186.3 secs

     total energy              =    -154.73004060 Ry
     estimated scf accuracy    <       0.00000380 Ry

     total magnetization       =    -0.00 Bohr mag/cell
     absolute magnetization    =     0.00 Bohr mag/cell

     iteration #  7     ecut=    40.00 Ry     beta= 0.50
     Davidson diagonalization with overlap
     ethr =  1.73E-08,  avg # of iterations =  1.5

     total cpu time spent up to now is      188.2 secs

     total energy              =    -154.73004099 Ry
     estimated scf accuracy    <       0.00000015 Ry

     total magnetization       =    -0.00 Bohr mag/cell
     absolute magnetization    =     0.00 Bohr mag/cell

     iteration #  8     ecut=    40.00 Ry     beta= 0.50
     Davidson diagonalization with overlap
     ethr =  6.98E-10,  avg # of iterations =  2.0

     total cpu time spent up to now is      190.3 secs

     total energy              =    -154.73004100 Ry
     estimated scf accuracy    <          9.9E-09 Ry

     total magnetization       =    -0.00 Bohr mag/cell
     absolute magnetization    =     0.00 Bohr mag/cell

     iteration #  9     ecut=    40.00 Ry     beta= 0.50
     Davidson diagonalization with overlap
     ethr =  4.52E-11,  avg # of iterations =  2.3

     total cpu time spent up to now is      192.8 secs

     total energy              =    -154.73004101 Ry
     estimated scf accuracy    <       0.00000003 Ry

     total magnetization       =    -0.00 Bohr mag/cell
     absolute magnetization    =     0.00 Bohr mag/cell

     iteration # 10     ecut=    40.00 Ry     beta= 0.50
     Davidson diagonalization with overlap
     ethr =  4.52E-11,  avg # of iterations =  2.0

     total cpu time spent up to now is      195.0 secs

     total energy              =    -154.73004101 Ry
     estimated scf accuracy    <          2.5E-09 Ry

     total magnetization       =    -0.00 Bohr mag/cell
     absolute magnetization    =     0.00 Bohr mag/cell

     iteration # 11     ecut=    40.00 Ry     beta= 0.50
     Davidson diagonalization with overlap
     ethr =  1.15E-11,  avg # of iterations =  1.7

     Magnetic moment per site  (integrated on atomic sphere of radius R)
     atom   1 (R=0.398)  charge= 10.0471  magn= -0.0000
     atom   2 (R=0.398)  charge=  8.8198  magn= -0.0000

     total cpu time spent up to now is      197.0 secs

     End of self-consistent calculation

     Number of k-points >= 100: set verbosity='high' to print the bands.

     the Fermi energy is    15.6194 ev

!    total energy              =    -154.73004101 Ry
     estimated scf accuracy    <          1.6E-11 Ry
     smearing contrib. (-TS)   =      -0.00018367 Ry
     internal energy E=F+TS    =    -154.72985734 Ry

     The total energy is F=E-TS. E is the sum of the following terms:
     one-electron contribution =      -4.16414841 Ry
     hartree contribution      =      27.68859880 Ry
     xc contribution           =     -24.54881904 Ry
     ewald contribution        =    -153.70548869 Ry

     total magnetization       =    -0.00 Bohr mag/cell
     absolute magnetization    =     0.00 Bohr mag/cell

     convergence has been achieved in  11 iterations

     Forces acting on atoms (cartesian axes, Ry/au):

     atom    1 type  2   force =     0.00000000    0.00000000    0.00000000
     atom    2 type  1   force =     0.00000000    0.00000000    0.00000000
     The non-local contrib.  to forces
     atom    1 type  2   force =     0.00000000    0.00000000    0.00000000
     atom    2 type  1   force =     0.00000000    0.00000000    0.00000000
     The ionic contribution  to forces
     atom    1 type  2   force =     0.00000000    0.00000000   -0.00000000
     atom    2 type  1   force =     0.00000000    0.00000000    0.00000000
     The local contribution  to forces
     atom    1 type  2   force =     0.00000000    0.00000000    0.00000000
     atom    2 type  1   force =     0.00000000    0.00000000   -0.00000000
     The core correction contribution to forces
     atom    1 type  2   force =     0.00000000    0.00000000    0.00000000
     atom    2 type  1   force =     0.00000000    0.00000000    0.00000000
     The Hubbard contrib.    to forces
     atom    1 type  2   force =     0.00000000    0.00000000    0.00000000
     atom    2 type  1   force =     0.00000000    0.00000000    0.00000000
     The SCF correction term to forces
     atom    1 type  2   force =    -0.00000000    0.00000000   -0.00000000
     atom    2 type  1   force =     0.00000000    0.00000000   -0.00000000

     Total force =     0.000000     Total SCF correction =     0.000000


     Computing stress (Cartesian axis) and pressure

          total   stress  (Ry/bohr**3)                   (kbar)     P=       -0.79
  -0.00000627   0.00000000   0.00000000           -0.92        0.00        0.00
   0.00000000  -0.00000627   0.00000000            0.00       -0.92        0.00
   0.00000000   0.00000000  -0.00000350            0.00        0.00       -0.52

     Energy error            =      2.2E-06 Ry
     Gradient error          =      0.0E+00 Ry/Bohr
     Cell gradient error     =      9.2E-01 kbar

     number of scf cycles    =   9
     number of bfgs steps    =   8

     enthalpy           old  =    -154.7300387615 Ry
     enthalpy           new  =    -154.7300410073 Ry

     CASE: enthalpy          _new < enthalpy          _old

     new trust radius        =       0.0025637425 bohr
     new conv_thr            =       0.0000000010 Ry

     new unit-cell volume =    187.94294 a.u.^3 (    27.85027 Ang^3 )
     density =     15.53275 g/cm^3

CELL_PARAMETERS (angstrom)
   2.837499341   0.000000000   0.000000000
   0.000000000   2.837499341   0.000000000
   0.000000000   0.000000000   3.459058314

ATOMIC_POSITIONS (angstrom)
Cu            0.0000000000        0.0000000000        0.0000000000
Au            1.4187496704        1.4187496704        1.7295291571



     Writing config-only to output data dir /home/gridsan/epan1/labutil/lab3_samples/problem3/Lab3/CuAu_a_2.766_c_3.623_ecut_40_nk_10/pwscf.save/
     NEW-OLD atomic charge density approx. for the potential
     extrapolated charge   21.99125, renormalised to   22.00000
     Generating pointlists ...

     total cpu time spent up to now is      198.6 secs

     Self-consistent Calculation

     iteration #  1     ecut=    40.00 Ry     beta= 0.50
     Davidson diagonalization with overlap
     ethr =  1.00E-06,  avg # of iterations =  2.0

     total cpu time spent up to now is      201.3 secs

     total energy              =    -154.73001532 Ry
     estimated scf accuracy    <       0.00002669 Ry

     total magnetization       =    -0.00 Bohr mag/cell
     absolute magnetization    =     0.00 Bohr mag/cell

     iteration #  2     ecut=    40.00 Ry     beta= 0.50
     Davidson diagonalization with overlap
     ethr =  1.21E-07,  avg # of iterations =  2.1

     total cpu time spent up to now is      203.7 secs

     total energy              =    -154.73003618 Ry
     estimated scf accuracy    <       0.00009071 Ry

     total magnetization       =    -0.00 Bohr mag/cell
     absolute magnetization    =     0.00 Bohr mag/cell

     iteration #  3     ecut=    40.00 Ry     beta= 0.50
     Davidson diagonalization with overlap
     ethr =  1.21E-07,  avg # of iterations =  2.0

     total cpu time spent up to now is      205.8 secs

     total energy              =    -154.73004247 Ry
     estimated scf accuracy    <       0.00000893 Ry

     total magnetization       =    -0.00 Bohr mag/cell
     absolute magnetization    =     0.00 Bohr mag/cell

     iteration #  4     ecut=    40.00 Ry     beta= 0.50
     Davidson diagonalization with overlap
     ethr =  4.06E-08,  avg # of iterations =  1.0

     total cpu time spent up to now is      207.6 secs

     total energy              =    -154.73004049 Ry
     estimated scf accuracy    <       0.00000445 Ry

     total magnetization       =    -0.00 Bohr mag/cell
     absolute magnetization    =     0.00 Bohr mag/cell

     iteration #  5     ecut=    40.00 Ry     beta= 0.50
     Davidson diagonalization with overlap
     ethr =  2.02E-08,  avg # of iterations =  2.0

     total cpu time spent up to now is      210.0 secs

     total energy              =    -154.73004157 Ry
     estimated scf accuracy    <       0.00000018 Ry

     total magnetization       =    -0.00 Bohr mag/cell
     absolute magnetization    =     0.00 Bohr mag/cell

     iteration #  6     ecut=    40.00 Ry     beta= 0.50
     Davidson diagonalization with overlap
     ethr =  7.96E-10,  avg # of iterations =  1.3

     total cpu time spent up to now is      211.9 secs

     total energy              =    -154.73004158 Ry
     estimated scf accuracy    <       0.00000005 Ry

     total magnetization       =    -0.00 Bohr mag/cell
     absolute magnetization    =     0.00 Bohr mag/cell

     iteration #  7     ecut=    40.00 Ry     beta= 0.50
     Davidson diagonalization with overlap
     ethr =  2.16E-10,  avg # of iterations =  1.0

     total cpu time spent up to now is      213.7 secs

     total energy              =    -154.73004157 Ry
     estimated scf accuracy    <       0.00000001 Ry

     total magnetization       =    -0.00 Bohr mag/cell
     absolute magnetization    =     0.00 Bohr mag/cell

     iteration #  8     ecut=    40.00 Ry     beta= 0.50
     Davidson diagonalization with overlap
     ethr =  5.22E-11,  avg # of iterations =  1.8

     Magnetic moment per site  (integrated on atomic sphere of radius R)
     atom   1 (R=0.398)  charge= 10.0475  magn= -0.0000
     atom   2 (R=0.398)  charge=  8.8202  magn= -0.0000

     total cpu time spent up to now is      215.7 secs

     End of self-consistent calculation

     Number of k-points >= 100: set verbosity='high' to print the bands.

     the Fermi energy is    15.6293 ev

!    total energy              =    -154.73004157 Ry
     estimated scf accuracy    <          1.5E-10 Ry
     smearing contrib. (-TS)   =      -0.00018431 Ry
     internal energy E=F+TS    =    -154.72985726 Ry

     The total energy is F=E-TS. E is the sum of the following terms:
     one-electron contribution =      -4.13455324 Ry
     hartree contribution      =      27.68003985 Ry
     xc contribution           =     -24.54944629 Ry
     ewald contribution        =    -153.72589758 Ry

     total magnetization       =    -0.00 Bohr mag/cell
[...]

     total energy              =    -154.73004141 Ry
     estimated scf accuracy    <       0.00000116 Ry

     total magnetization       =     0.00 Bohr mag/cell
     absolute magnetization    =     0.00 Bohr mag/cell

     iteration #  9     ecut=    40.00 Ry     beta= 0.50
     Davidson diagonalization with overlap
     ethr =  5.26E-09,  avg # of iterations =  2.1

     total cpu time spent up to now is      238.8 secs

     total energy              =    -154.73004146 Ry
     estimated scf accuracy    <       0.00000038 Ry

     total magnetization       =    -0.00 Bohr mag/cell
     absolute magnetization    =     0.00 Bohr mag/cell

     iteration # 10     ecut=    40.00 Ry     beta= 0.50
     Davidson diagonalization with overlap
     ethr =  1.72E-09,  avg # of iterations =  1.7

     total cpu time spent up to now is      241.0 secs

     total energy              =    -154.73004157 Ry
     estimated scf accuracy    <       0.00000002 Ry

     total magnetization       =    -0.00 Bohr mag/cell
     absolute magnetization    =     0.00 Bohr mag/cell

     iteration # 11     ecut=    40.00 Ry     beta= 0.50
     Davidson diagonalization with overlap
     ethr =  9.35E-11,  avg # of iterations =  1.7

     total cpu time spent up to now is      242.9 secs

     total energy              =    -154.73004157 Ry
     estimated scf accuracy    <          1.3E-09 Ry

     total magnetization       =     0.00 Bohr mag/cell
     absolute magnetization    =     0.00 Bohr mag/cell

     iteration # 12     ecut=    40.00 Ry     beta= 0.50
     Davidson diagonalization with overlap
     ethr =  6.11E-12,  avg # of iterations =  2.0

     Magnetic moment per site  (integrated on atomic sphere of radius R)
     atom   1 (R=0.398)  charge= 10.0475  magn=  0.0000
     atom   2 (R=0.398)  charge=  8.8202  magn=  0.0000

     total cpu time spent up to now is      245.3 secs

     End of self-consistent calculation

     Number of k-points >= 100: set verbosity='high' to print the bands.

     the Fermi energy is    15.6293 ev

!    total energy              =    -154.73004157 Ry
     estimated scf accuracy    <          1.2E-10 Ry
     smearing contrib. (-TS)   =      -0.00018431 Ry
     internal energy E=F+TS    =    -154.72985726 Ry

     The total energy is F=E-TS. E is the sum of the following terms:
     one-electron contribution =      -4.13452874 Ry
     hartree contribution      =      27.68001123 Ry
     xc contribution           =     -24.54944217 Ry
     ewald contribution        =    -153.72589758 Ry

     total magnetization       =    -0.00 Bohr mag/cell
     absolute magnetization    =     0.00 Bohr mag/cell

     convergence has been achieved in  12 iterations

     Forces acting on atoms (cartesian axes, Ry/au):

     atom    1 type  2   force =     0.00000000    0.00000000    0.00000000
     atom    2 type  1   force =     0.00000000    0.00000000    0.00000000
     The non-local contrib.  to forces
     atom    1 type  2   force =     0.00000000    0.00000000    0.00000000
     atom    2 type  1   force =     0.00000000    0.00000000    0.00000000
     The ionic contribution  to forces
     atom    1 type  2   force =     0.00000000    0.00000000   -0.00000000
     atom    2 type  1   force =     0.00000000    0.00000000    0.00000000
     The local contribution  to forces
     atom    1 type  2   force =     0.00000000    0.00000000    0.00000000
     atom    2 type  1   force =     0.00000000    0.00000000   -0.00000000
     The core correction contribution to forces
     atom    1 type  2   force =     0.00000000    0.00000000    0.00000000
     atom    2 type  1   force =     0.00000000    0.00000000    0.00000000
     The Hubbard contrib.    to forces
     atom    1 type  2   force =     0.00000000    0.00000000    0.00000000
     atom    2 type  1   force =     0.00000000    0.00000000    0.00000000
     The SCF correction term to forces
     atom    1 type  2   force =     0.00000000   -0.00000000   -0.00000000
     atom    2 type  1   force =     0.00000000   -0.00000000    0.00000000

     Total force =     0.000000     Total SCF correction =     0.000000


     Computing stress (Cartesian axis) and pressure

          total   stress  (Ry/bohr**3)                   (kbar)     P=        0.05
   0.00000010   0.00000000   0.00000000            0.01        0.00        0.00
   0.00000000   0.00000010   0.00000000            0.00        0.01        0.00
   0.00000000   0.00000000   0.00000078            0.00        0.00        0.11

     Energy error            =      5.7E-07 Ry
     Gradient error          =      0.0E+00 Ry/Bohr
     Cell gradient error     =      1.1E-01 kbar

     bfgs converged in  10 scf cycles and   9 bfgs steps
     (criteria: energy <  1.0E-04 Ry, force <  1.0E-03 Ry/Bohr, cell <  5.0E-01 kbar)

     End of BFGS Geometry Optimization

     Final enthalpy           =    -154.7300415746 Ry

     File /home/gridsan/epan1/labutil/lab3_samples/problem3/Lab3/CuAu_a_2.766_c_3.623_ecut_40_nk_10/pwscf.bfgs deleted, as requested
Begin final coordinates
     new unit-cell volume =    187.94294 a.u.^3 (    27.85027 Ang^3 )
     density =     15.53275 g/cm^3

CELL_PARAMETERS (angstrom)
   2.837499341   0.000000000   0.000000000
   0.000000000   2.837499341   0.000000000
   0.000000000   0.000000000   3.459058314

ATOMIC_POSITIONS (angstrom)
Cu            0.0000000000        0.0000000000        0.0000000000
Au            1.4187496704        1.4187496704        1.7295291571
End final coordinates



     Writing config-only to output data dir /home/gridsan/epan1/labutil/lab3_samples/problem3/Lab3/CuAu_a_2.766_c_3.623_ecut_40_nk_10/pwscf.save/

     Final scf calculation at the relaxed structure.
     The G-vectors are recalculated for the final unit cell
     Results may differ from those at the preceding step.

     Parallelization info
     --------------------
     sticks:   dense  smooth     PW     G-vecs:    dense   smooth      PW
     Min          92      45     15                 2274      796     153
     Max          94      47     16                 2275      799     156
     Sum         741     365    121                18193     6383    1231

     Using Slab Decomposition



     bravais-lattice index     =            0
     lattice parameter (alat)  =       5.2270  a.u.
     unit-cell volume          =     187.9429 (a.u.)^3
     number of atoms/cell      =            2
     number of atomic types    =            2
     number of electrons       =        22.00
     number of Kohn-Sham states=           15
     kinetic-energy cutoff     =      40.0000  Ry
     charge density cutoff     =     320.0000  Ry
     scf convergence threshold =      1.0E-09
     mixing beta               =       0.5000
     number of iterations used =            8  plain     mixing
     press convergence thresh. =      5.0E-01
     Exchange-correlation=  SLA  PZ   NOGX NOGC
                           (   1   1   0   0   0   0   0)

     celldm(1)=   5.226982  celldm(2)=   0.000000  celldm(3)=   0.000000
     celldm(4)=   0.000000  celldm(5)=   0.000000  celldm(6)=   0.000000

     crystal axes: (cart. coord. in units of alat)
               a(1) = (   1.025849   0.000000   0.000000 )  
               a(2) = (   0.000000   1.025849   0.000000 )  
               a(3) = (   0.000000   0.000000   1.250563 )  

     reciprocal axes: (cart. coord. in units 2 pi/alat)
               b(1) = (  0.974802  0.000000  0.000000 )  
               b(2) = (  0.000000  0.974802  0.000000 )  
               b(3) = (  0.000000  0.000000  0.799640 )  


     PseudoPot. # 1 for Au read from file:
     /home/gridsan/epan1/labutil/lab3_samples/pseudopotentials/Au.pz-d-rrkjus.UPF
     MD5 check sum: 424ffd4ac9c90487cbadcd287136c95b
     Pseudo is Ultrasoft, Zval = 11.0
     Generated by new atomic code, or converted to UPF format
     Using radial grid of 1279 points,  3 beta functions with: 
                l(1) =   2
                l(2) =   2
                l(3) =   1
     Q(r) pseudized with 0 coefficients 


     PseudoPot. # 2 for Cu read from file:
     /home/gridsan/epan1/labutil/lab3_samples/pseudopotentials/Cu.pz-d-rrkjus.UPF
     MD5 check sum: fd38ae683e239c95a66f426e1f8e5fc7
     Pseudo is Ultrasoft, Zval = 11.0
     Generated by new atomic code, or converted to UPF format
     Using radial grid of  899 points,  3 beta functions with: 
                l(1) =   2
                l(2) =   2
                l(3) =   1
     Q(r) pseudized with 0 coefficients 


     atomic species   valence    mass     pseudopotential
        Au            11.00   196.96657     Au( 1.00)
        Cu            11.00    63.54600     Cu( 1.00)

     Starting magnetic structure 
     atomic species   magnetization
        Au           0.000
        Cu           0.000

     16 Sym. Ops., with inversion, found



   Cartesian axes

     site n.     atom                  positions (alat units)
         1           Cu  tau(   1) = (   0.0000000   0.0000000   0.0000000  )
         2           Au  tau(   2) = (   0.5129247   0.5129247   0.6252817  )

     number of k points=   126  Methfessel-Paxton smearing, width (Ry)=  0.0200

     Number of k-points >= 100: set verbosity='high' to print them.

     Dense  grid:    18193 G-vectors     FFT dimensions: (  32,  32,  40)

     Smooth grid:     6383 G-vectors     FFT dimensions: (  24,  24,  27)

     Estimated max dynamical RAM per process >      14.00 MB

     Estimated total dynamical RAM >     112.03 MB
     Generating pointlists ...

     Initial potential from superposition of free atoms

     starting charge      21.9996, renormalised to      22.0000
     Starting wfcs are   15 randomized atomic wfcs

     total cpu time spent up to now is      247.7 secs

     Self-consistent Calculation

     iteration #  1     ecut=    40.00 Ry     beta= 0.50
     Davidson diagonalization with overlap
     c_bands:  1 eigenvalues not converged
     c_bands:  1 eigenvalues not converged
     c_bands:  1 eigenvalues not converged
     c_bands:  1 eigenvalues not converged
     c_bands:  1 eigenvalues not converged
     c_bands:  1 eigenvalues not converged
     c_bands:  1 eigenvalues not converged
     c_bands:  1 eigenvalues not converged
     c_bands:  1 eigenvalues not converged
     c_bands:  1 eigenvalues not converged
     c_bands:  1 eigenvalues not converged
     c_bands:  1 eigenvalues not converged
     c_bands:  1 eigenvalues not converged
     c_bands:  1 eigenvalues not converged
     c_bands:  1 eigenvalues not converged
     c_bands:  1 eigenvalues not converged
     c_bands:  1 eigenvalues not converged
     c_bands:  1 eigenvalues not converged
     c_bands:  1 eigenvalues not converged
     c_bands:  1 eigenvalues not converged
     c_bands:  1 eigenvalues not converged
     c_bands:  1 eigenvalues not converged
     c_bands:  1 eigenvalues not converged
     c_bands:  1 eigenvalues not converged
     c_bands:  1 eigenvalues not converged
     c_bands:  1 eigenvalues not converged
     c_bands:  1 eigenvalues not converged
     c_bands:  1 eigenvalues not converged
     c_bands:  1 eigenvalues not converged
     c_bands:  1 eigenvalues not converged
     c_bands:  1 eigenvalues not converged
     ethr =  1.00E-06,  avg # of iterations = 14.2

     total cpu time spent up to now is      254.8 secs

     total energy              =    -154.64622852 Ry
     estimated scf accuracy    <       0.27964855 Ry

     total magnetization       =     0.00 Bohr mag/cell
     absolute magnetization    =     0.00 Bohr mag/cell

     iteration #  2     ecut=    40.00 Ry     beta= 0.50
     Davidson diagonalization with overlap
     ethr =  1.27E-03,  avg # of iterations =  2.0

     total cpu time spent up to now is      257.4 secs

     total energy              =    -154.71630432 Ry
     estimated scf accuracy    <       0.05466434 Ry

     total magnetization       =     0.00 Bohr mag/cell
     absolute magnetization    =     0.00 Bohr mag/cell

     iteration #  3     ecut=    40.00 Ry     beta= 0.50
     Davidson diagonalization with overlap
     ethr =  2.48E-04,  avg # of iterations =  2.0

     total cpu time spent up to now is      259.7 secs

     total energy              =    -154.72807991 Ry
     estimated scf accuracy    <       0.01025561 Ry

     total magnetization       =     0.00 Bohr mag/cell
     absolute magnetization    =     0.00 Bohr mag/cell

     iteration #  4     ecut=    40.00 Ry     beta= 0.50
     Davidson diagonalization with overlap
     ethr =  4.66E-05,  avg # of iterations =  1.2

     total cpu time spent up to now is      261.6 secs

     total energy              =    -154.72997429 Ry
     estimated scf accuracy    <       0.00026084 Ry

     total magnetization       =     0.00 Bohr mag/cell
     absolute magnetization    =     0.00 Bohr mag/cell

     iteration #  5     ecut=    40.00 Ry     beta= 0.50
     Davidson diagonalization with overlap
     ethr =  1.19E-06,  avg # of iterations =  2.3

     total cpu time spent up to now is      263.9 secs

     total energy              =    -154.73003589 Ry
     estimated scf accuracy    <       0.00008754 Ry

     total magnetization       =    -0.00 Bohr mag/cell
     absolute magnetization    =     0.00 Bohr mag/cell

     iteration #  6     ecut=    40.00 Ry     beta= 0.50
     Davidson diagonalization with overlap
     ethr =  3.98E-07,  avg # of iterations =  1.5

     total cpu time spent up to now is      265.8 secs

     total energy              =    -154.73004807 Ry
     estimated scf accuracy    <       0.00000068 Ry

     total magnetization       =    -0.00 Bohr mag/cell
     absolute magnetization    =     0.00 Bohr mag/cell

     iteration #  7     ecut=    40.00 Ry     beta= 0.50
     Davidson diagonalization with overlap
     ethr =  3.10E-09,  avg # of iterations =  2.2

     total cpu time spent up to now is      268.2 secs

     total energy              =    -154.73004839 Ry
     estimated scf accuracy    <       0.00000005 Ry

     total magnetization       =    -0.00 Bohr mag/cell
     absolute magnetization    =     0.00 Bohr mag/cell

     iteration #  8     ecut=    40.00 Ry     beta= 0.50
     Davidson diagonalization with overlap
     ethr =  2.43E-10,  avg # of iterations =  1.9

     total cpu time spent up to now is      270.8 secs

     total energy              =    -154.73004840 Ry
     estimated scf accuracy    <          3.0E-09 Ry

     total magnetization       =    -0.00 Bohr mag/cell
     absolute magnetization    =     0.00 Bohr mag/cell

     iteration #  9     ecut=    40.00 Ry     beta= 0.50
     Davidson diagonalization with overlap
     ethr =  1.38E-11,  avg # of iterations =  1.9

     Magnetic moment per site  (integrated on atomic sphere of radius R)
     atom   1 (R=0.398)  charge= 10.0470  magn=  0.0000
     atom   2 (R=0.398)  charge=  8.8197  magn= -0.0000

     total cpu time spent up to now is      272.8 secs

     End of self-consistent calculation

     Number of k-points >= 100: set verbosity='high' to print the bands.

     the Fermi energy is    15.6293 ev

!    total energy              =    -154.73004840 Ry
     estimated scf accuracy    <          6.1E-11 Ry
     smearing contrib. (-TS)   =      -0.00018430 Ry
     internal energy E=F+TS    =    -154.72986410 Ry

     The total energy is F=E-TS. E is the sum of the following terms:
     one-electron contribution =      -4.13444007 Ry
     hartree contribution      =      27.67988646 Ry
     xc contribution           =     -24.54941290 Ry
     ewald contribution        =    -153.72589758 Ry

     total magnetization       =    -0.00 Bohr mag/cell
     absolute magnetization    =     0.00 Bohr mag/cell

     convergence has been achieved in   9 iterations

     Forces acting on atoms (cartesian axes, Ry/au):

     atom    1 type  2   force =     0.00000000    0.00000000    0.00000000
     atom    2 type  1   force =     0.00000000    0.00000000    0.00000000
     The non-local contrib.  to forces
     atom    1 type  2   force =     0.00000000    0.00000000    0.00000000
     atom    2 type  1   force =     0.00000000    0.00000000    0.00000000
     The ionic contribution  to forces
     atom    1 type  2   force =     0.00000000    0.00000000   -0.00000000
     atom    2 type  1   force =    -0.00000000   -0.00000000    0.00000000
     The local contribution  to forces
     atom    1 type  2   force =     0.00000000    0.00000000    0.00000000
     atom    2 type  1   force =     0.00000000    0.00000000   -0.00000000
     The core correction contribution to forces
     atom    1 type  2   force =     0.00000000    0.00000000    0.00000000
     atom    2 type  1   force =     0.00000000    0.00000000    0.00000000
     The Hubbard contrib.    to forces
     atom    1 type  2   force =     0.00000000    0.00000000    0.00000000
     atom    2 type  1   force =     0.00000000    0.00000000    0.00000000
     The SCF correction term to forces
     atom    1 type  2   force =    -0.00000000    0.00000000    0.00000000
     atom    2 type  1   force =    -0.00000000   -0.00000000    0.00000000

     Total force =     0.000000     Total SCF correction =     0.000000


     Computing stress (Cartesian axis) and pressure

          total   stress  (Ry/bohr**3)                   (kbar)     P=       -0.16
  -0.00000125   0.00000000   0.00000000           -0.18        0.00        0.00
   0.00000000  -0.00000125   0.00000000            0.00       -0.18        0.00
   0.00000000   0.00000000  -0.00000074            0.00        0.00       -0.11


     init_run     :     14.96s CPU      2.16s WALL (       2 calls)
     electrons    :   2572.52s CPU    256.03s WALL (      12 calls)
     update_pot   :      1.41s CPU      1.38s WALL (       9 calls)
     forces       :      9.50s CPU      2.70s WALL (      12 calls)
     stress       :     38.02s CPU      9.78s WALL (      12 calls)

     Called by init_run:
     wfcinit      :     14.19s CPU      1.37s WALL (       2 calls)
     potinit      :      0.26s CPU      0.26s WALL (       3 calls)
     hinit0       :      0.51s CPU      0.52s WALL (       2 calls)

     Called by electrons:
     c_bands      :   2388.96s CPU    224.47s WALL (     111 calls)
     sum_band     :    176.51s CPU     29.11s WALL (     111 calls)
     v_of_rho     :      1.25s CPU      0.44s WALL (     123 calls)
     newd         :      2.78s CPU      1.01s WALL (     123 calls)
     mix_rho      :      1.42s CPU      0.52s WALL (     111 calls)

     Called by c_bands:
     init_us_2    :     29.76s CPU      3.58s WALL (   62496 calls)
     init_us_2:cp :     27.85s CPU      3.38s WALL (   62496 calls)
     cegterg      :   2120.42s CPU    198.58s WALL (   27972 calls)

     Called by *egterg:
     cdiaghg      :    384.18s CPU     35.34s WALL (   84147 calls)
     h_psi        :   1399.50s CPU    132.15s WALL (   87171 calls)
     s_psi        :     52.23s CPU      4.80s WALL (   87171 calls)
     g_psi        :      6.17s CPU      0.58s WALL (   58695 calls)

     Called by h_psi:
     h_psi:calbec :     77.92s CPU      7.44s WALL (   87171 calls)
     vloc_psi     :   1250.95s CPU    118.04s WALL (   87171 calls)
     add_vuspsi   :     56.83s CPU      5.37s WALL (   87171 calls)

     General routines
     calbec       :     93.52s CPU     11.01s WALL (  130263 calls)
     fft          :      1.35s CPU      0.68s WALL (    1373 calls)
     ffts         :      0.62s CPU      0.23s WALL (     468 calls)
     fftw         :   1229.20s CPU    123.52s WALL ( 2486616 calls)
     interpolate  :      0.44s CPU      0.23s WALL (     246 calls)

     Parallel routines

     PWSCF        :  44m 5.04s CPU   4m34.10s WALL


   This run was terminated on:  16:57:49   3Nov2023            

=------------------------------------------------------------------------------=
   JOB DONE.
=------------------------------------------------------------------------------=
