Header of the LAMMPS data file 

4 atoms 
1 atom types

0.0 4.09  xlo xhi
0.0 4.09  ylo yhi
0.0 4.09  zlo zhi

Masses 

1  107.8682

Atoms # atomic 

1 1 0.00000 0.00000 0.00000 
2 1 0.00000 2.04500 2.04500 
3 1 2.04500 0.00000 2.04500 
4 1 2.04500 2.04500 0.00000 
