LAMMPS (29 Oct 2020)
Reading data file ...
  orthogonal box = (0.0000000 0.0000000 0.0000000) to (28.630000 28.630000 28.630000)
  1 by 1 by 1 MPI processor grid
  reading atoms ...
  1372 atoms
  read_data CPU = 0.001 seconds
Reading eam potential file /home/gridsan/epan1/3320_atomistic_shared/lammps/potentials/Ag_u3.eam with DATE: 2007-06-11
WARNING: No fixes defined, atoms won't move (../verlet.cpp:54)
Neighbor list info ...
  update every 1 steps, delay 10 steps, check yes
  max neighbors/atom: 2000, page size: 100000
  master list distance cutoff = 7.55
  ghost atom cutoff = 7.55
  binsize = 3.775, bins = 8 8 8
  1 neighbor lists, perpetual/occasional/extra = 1 0 0
  (1) pair eam, perpetual
      attributes: half, newton on
      pair build: half/bin/atomonly/newton
      stencil: half/bin/3d/newton
      bin: standard
Setting up Verlet run ...
  Unit style    : metal
  Current step  : 0
  Time step     : 0.001
Per MPI rank memory allocation (min/avg/max) = 3.455 | 3.455 | 3.455 Mbytes
Step PotEng Lx Ly Lz Press Pxx Pyy Pzz 
       0   -3910.1999        28.63        28.63        28.63  -0.04008093  -0.04008093  -0.04008093  -0.04008093 
Loop time of 0 on 1 procs for 0 steps with 1372 atoms

0.0% CPU use with 1 MPI tasks x no OpenMP threads

MPI task timing breakdown:
Section |  min time  |  avg time  |  max time  |%varavg| %total
---------------------------------------------------------------
Pair    | 0          | 0          | 0          |   0.0 |  0.00
Neigh   | 0          | 0          | 0          |   0.0 |  0.00
Comm    | 0          | 0          | 0          |   0.0 |  0.00
Output  | 0          | 0          | 0          |   0.0 |  0.00
Modify  | 0          | 0          | 0          |   0.0 |  0.00
Other   |            | 0          |            |       |  0.00

Nlocal:        1372.00 ave        1372 max        1372 min
Histogram: 1 0 0 0 0 0 0 0 0 0
Nghost:        3258.00 ave        3258 max        3258 min
Histogram: 1 0 0 0 0 0 0 0 0 0
Neighs:        58996.0 ave       58996 max       58996 min
Histogram: 1 0 0 0 0 0 0 0 0 0

Total # of neighbors = 58996
Ave neighs/atom = 43.000000
Neighbor list builds = 0
Dangerous builds = 0
WARNING: Using 'neigh_modify every 1 delay 0 check yes' setting during minimization (../min.cpp:187)
Setting up cg style minimization ...
  Unit style    : metal
  Current step  : 0
WARNING: Energy due to 1 extra global DOFs will be included in minimizer energies
Per MPI rank memory allocation (min/avg/max) = 4.580 | 4.580 | 4.580 Mbytes
Step PotEng Lx Ly Lz Press Pxx Pyy Pzz 
       0   -3910.1999        28.63        28.63        28.63  -0.04008093  -0.04008093  -0.04008093  -0.04008093 
       3      -3910.2    28.630007    28.630007    28.630007  -0.85238941  -0.85238941  -0.85238941  -0.85238941 
Loop time of 0.0113029 on 1 procs for 3 steps with 1372 atoms

100.0% CPU use with 1 MPI tasks x no OpenMP threads

Minimization stats:
  Stopping criterion = energy tolerance
  Energy initial, next-to-last, final = 
     -3910.19994114417  -3910.19998870342  -3910.19998880072
  Force two-norm initial, final = 0.029229529 0.038874947
  Force max component initial, final = 0.0017612164 0.037455294
  Final line search alpha, max atom move = 0.0052548756 0.00019682291
  Iterations, force evaluations = 3 6

MPI task timing breakdown:
Section |  min time  |  avg time  |  max time  |%varavg| %total
---------------------------------------------------------------
Pair    | 0.010791   | 0.010791   | 0.010791   |   0.0 | 95.47
Neigh   | 0          | 0          | 0          |   0.0 |  0.00
Comm    | 7.8678e-05 | 7.8678e-05 | 7.8678e-05 |   0.0 |  0.70
Output  | 0          | 0          | 0          |   0.0 |  0.00
Modify  | 0          | 0          | 0          |   0.0 |  0.00
Other   |            | 0.000433   |            |       |  3.83

Nlocal:        1372.00 ave        1372 max        1372 min
Histogram: 1 0 0 0 0 0 0 0 0 0
Nghost:        3258.00 ave        3258 max        3258 min
Histogram: 1 0 0 0 0 0 0 0 0 0
Neighs:        58996.0 ave       58996 max       58996 min
Histogram: 1 0 0 0 0 0 0 0 0 0

Total # of neighbors = 58996
Ave neighs/atom = 43.000000
Neighbor list builds = 0
Dangerous builds = 0
Total energy (eV) = -3910.19998880072
Number of atoms = 1372
Lattice constant (Angstoms) = 28.6300073403809
Total wall time: 0:00:00
