Header of the LAMMPS data file 

4 atoms 
1 atom types

0.0 3.8808080808080807  xlo xhi
0.0 3.8808080808080807  ylo yhi
0.0 3.8808080808080807  zlo zhi

Masses 

1  107.8682

Atoms # atomic 

1 1 0.00000 0.00000 0.00000 
2 1 0.00000 1.94040 1.94040 
3 1 1.94040 0.00000 1.94040 
4 1 1.94040 1.94040 0.00000 
