Header of the LAMMPS data file 

4 atoms 
1 atom types

0.0 4.178947368421053  xlo xhi
0.0 4.178947368421053  ylo yhi
0.0 4.178947368421053  zlo zhi

Masses 

1  107.8682

Atoms # atomic 

1 1 0.00000 0.00000 0.00000 
2 1 0.00000 2.08947 2.08947 
3 1 2.08947 0.00000 2.08947 
4 1 2.08947 2.08947 0.00000 
