LAMMPS (29 Oct 2020)
Reading data file ...
  orthogonal box = (0.0000000 0.0000000 0.0000000) to (23.136500 23.136500 28.180000)
  1 by 1 by 1 MPI processor grid
  reading atoms ...
  320 atoms
  read_data CPU = 0.001 seconds
Reading eam potential file /home/gridsan/epan1/3320_atomistic_shared/lammps/potentials/Ag_u3.eam with DATE: 2007-06-11
WARNING: No fixes defined, atoms won't move (../verlet.cpp:54)
Neighbor list info ...
  update every 1 steps, delay 10 steps, check yes
  max neighbors/atom: 2000, page size: 100000
  master list distance cutoff = 7.55
  ghost atom cutoff = 7.55
  binsize = 3.775, bins = 7 7 8
  1 neighbor lists, perpetual/occasional/extra = 1 0 0
  (1) pair eam, perpetual
      attributes: half, newton on
      pair build: half/bin/atomonly/newton
      stencil: half/bin/3d/newton
      bin: standard
Setting up Verlet run ...
  Unit style    : metal
  Current step  : 0
  Time step     : 0.001
Per MPI rank memory allocation (min/avg/max) = 3.332 | 3.332 | 3.332 Mbytes
Step PotEng Lx Ly Lz Press Pxx Pyy Pzz 
       0   -864.76163      23.1365      23.1365        28.18   -7076.7941   -8661.8198   -8661.8198   -3906.7427 
Loop time of 1.19209e-06 on 1 procs for 0 steps with 320 atoms

83.9% CPU use with 1 MPI tasks x no OpenMP threads

MPI task timing breakdown:
Section |  min time  |  avg time  |  max time  |%varavg| %total
---------------------------------------------------------------
Pair    | 0          | 0          | 0          |   0.0 |  0.00
Neigh   | 0          | 0          | 0          |   0.0 |  0.00
Comm    | 0          | 0          | 0          |   0.0 |  0.00
Output  | 0          | 0          | 0          |   0.0 |  0.00
Modify  | 0          | 0          | 0          |   0.0 |  0.00
Other   |            | 1.192e-06  |            |       |100.00

Nlocal:        320.000 ave         320 max         320 min
Histogram: 1 0 0 0 0 0 0 0 0 0
Nghost:        579.000 ave         579 max         579 min
Histogram: 1 0 0 0 0 0 0 0 0 0
Neighs:        10304.0 ave       10304 max       10304 min
Histogram: 1 0 0 0 0 0 0 0 0 0

Total # of neighbors = 10304
Ave neighs/atom = 32.200000
Neighbor list builds = 0
Dangerous builds = 0
WARNING: Using 'neigh_modify every 1 delay 0 check yes' setting during minimization (../min.cpp:187)
Setting up cg style minimization ...
  Unit style    : metal
  Current step  : 0
WARNING: Energy due to 1 extra global DOFs will be included in minimizer energies
Per MPI rank memory allocation (min/avg/max) = 4.457 | 4.457 | 4.457 Mbytes
Step PotEng Lx Ly Lz Press Pxx Pyy Pzz 
       0   -864.76163      23.1365      23.1365        28.18   -7076.7941   -8661.8198   -8661.8198   -3906.7427 
      37   -865.91886    22.805488    22.805488    27.776831   0.27319743     1.865119     1.865119   -2.9106457 
Loop time of 0.0200999 on 1 procs for 37 steps with 320 atoms

99.7% CPU use with 1 MPI tasks x no OpenMP threads

Minimization stats:
  Stopping criterion = energy tolerance
  Energy initial, next-to-last, final = 
     -864.761629631847  -865.918862361457  -865.918862362558
  Force two-norm initial, final = 199.89770 0.0078062368
  Force max component initial, final = 199.88664 0.0074973405
  Final line search alpha, max atom move = 1.0000000 0.0074973405
  Iterations, force evaluations = 37 64

MPI task timing breakdown:
Section |  min time  |  avg time  |  max time  |%varavg| %total
---------------------------------------------------------------
Pair    | 0.018924   | 0.018924   | 0.018924   |   0.0 | 94.15
Neigh   | 0          | 0          | 0          |   0.0 |  0.00
Comm    | 0.00013661 | 0.00013661 | 0.00013661 |   0.0 |  0.68
Output  | 0          | 0          | 0          |   0.0 |  0.00
Modify  | 0          | 0          | 0          |   0.0 |  0.00
Other   |            | 0.001039   |            |       |  5.17

Nlocal:        320.000 ave         320 max         320 min
Histogram: 1 0 0 0 0 0 0 0 0 0
Nghost:        579.000 ave         579 max         579 min
Histogram: 1 0 0 0 0 0 0 0 0 0
Neighs:        10304.0 ave       10304 max       10304 min
Histogram: 1 0 0 0 0 0 0 0 0 0

Total # of neighbors = 10304
Ave neighs/atom = 32.200000
Neighbor list builds = 0
Dangerous builds = 0
Total energy (eV) = -865.918862362558
Number of atoms = 320
Lattice constant (Angstoms) = 22.8054879807164
Total wall time: 0:00:00
