LAMMPS (29 Oct 2020)
Reading data file ...
  orthogonal box = (0.0000000 0.0000000 0.0000000) to (8.7589300 8.7589300 24.129000)
  1 by 1 by 1 MPI processor grid
  reading atoms ...
  27 atoms
  read_data CPU = 0.000 seconds
WARNING: No fixes defined, atoms won't move (../verlet.cpp:54)
Neighbor list info ...
  update every 1 steps, delay 10 steps, check yes
  max neighbors/atom: 2000, page size: 100000
  master list distance cutoff = 6.5
  ghost atom cutoff = 6.5
  binsize = 3.25, bins = 3 3 8
  1 neighbor lists, perpetual/occasional/extra = 1 0 0
  (1) pair lj/cut, perpetual
      attributes: half, newton on
      pair build: half/bin/atomonly/newton
      stencil: half/bin/3d/newton
      bin: standard
Setting up Verlet run ...
  Unit style    : metal
  Current step  : 0
  Time step     : 0.001
Per MPI rank memory allocation (min/avg/max) = 3.061 | 3.061 | 3.061 Mbytes
Step PotEng Lx Ly Lz Press Pxx Pyy Pzz 
       0   -48.693077      8.75893      8.75893       24.129    112.44318   -1726.2496   -1726.2496    3789.8287 
Loop time of 1.19209e-06 on 1 procs for 0 steps with 27 atoms

83.9% CPU use with 1 MPI tasks x no OpenMP threads

MPI task timing breakdown:
Section |  min time  |  avg time  |  max time  |%varavg| %total
---------------------------------------------------------------
Pair    | 0          | 0          | 0          |   0.0 |  0.00
Neigh   | 0          | 0          | 0          |   0.0 |  0.00
Comm    | 0          | 0          | 0          |   0.0 |  0.00
Output  | 0          | 0          | 0          |   0.0 |  0.00
Modify  | 0          | 0          | 0          |   0.0 |  0.00
Other   |            | 1.192e-06  |            |       |100.00

Nlocal:        27.0000 ave          27 max          27 min
Histogram: 1 0 0 0 0 0 0 0 0 0
Nghost:        150.000 ave         150 max         150 min
Histogram: 1 0 0 0 0 0 0 0 0 0
Neighs:        459.000 ave         459 max         459 min
Histogram: 1 0 0 0 0 0 0 0 0 0

Total # of neighbors = 459
Ave neighs/atom = 17.000000
Neighbor list builds = 0
Dangerous builds = 0
Total energy (eV) = -48.69307712272
Number of atoms = 27
Lattice constant (Angstoms) = 8.75893
Total wall time: 0:00:00
