
     Program PWSCF v.7.2 starts on  2Nov2023 at 18: 5:45 

     This program is part of the open-source Quantum ESPRESSO suite
     for quantum simulation of materials; please cite
         "P. Giannozzi et al., J. Phys.:Condens. Matter 21 395502 (2009);
         "P. Giannozzi et al., J. Phys.:Condens. Matter 29 465901 (2017);
         "P. Giannozzi et al., J. Chem. Phys. 152 154105 (2020);
          URL http://www.quantum-espresso.org", 
     in publications or presentations arising from this work. More details at
     http://www.quantum-espresso.org/quote

     Parallel version (MPI), running on     2 processors

     MPI processes distributed on     2 nodes
     187045 MiB available memory on the printing compute node when the environment starts

     Waiting for input...
     Reading input from standard input
Warning: card &CELL ignored
Warning: card / ignored

     Current dimensions of program PWSCF are:
     Max number of different atomic species (ntypx) = 10
     Max number of k-points (npk) =  40000
     Max angular momentum in pseudopotentials (lmaxx) =  4
     file O.pz-rrkjus.UPF: wavefunction(s)  2S renormalized
     Message from routine setup:
     using ibrav=0 with symmetry is DISCOURAGED, use correct ibrav instead

     R & G space division:  proc/nbgrp/npool/nimage =       2
     Subspace diagonalization in iterative solution of the eigenvalue problem:
     a serial algorithm will be used


     Parallelization info
     --------------------
     sticks:   dense  smooth     PW     G-vecs:    dense   smooth      PW
     Min         516     254     74                12418     4366     709
     Max         517     255     75                12419     4367     710
     Sum        1033     509    149                24837     8733    1419

     Using Slab Decomposition



     bravais-lattice index     =            0
     lattice parameter (alat)  =       7.3321  a.u.
     unit-cell volume          =     394.1775 (a.u.)^3
     number of atoms/cell      =            5
     number of atomic types    =            3
     number of electrons       =        44.00
     number of Kohn-Sham states=           22
     kinetic-energy cutoff     =      30.0000  Ry
     charge density cutoff     =     240.0000  Ry
     scf convergence threshold =      1.0E-07
     mixing beta               =       0.7000
     number of iterations used =            8  plain     mixing
     energy convergence thresh.=      1.0E-04
     force convergence thresh. =      1.0E-03
     Exchange-correlation= SLA  PZ   NOGX NOGC
                           (   1   1   0   0   0   0   0)
     nstep                     =           50


     celldm(1)=   7.332137  celldm(2)=   0.000000  celldm(3)=   0.000000
     celldm(4)=   0.000000  celldm(5)=   0.000000  celldm(6)=   0.000000

     crystal axes: (cart. coord. in units of alat)
               a(1) = (   1.000000   0.000000   0.000000 )  
               a(2) = (   0.000000   1.000000   0.000000 )  
               a(3) = (   0.000000   0.000000   1.000000 )  

     reciprocal axes: (cart. coord. in units 2 pi/alat)
               b(1) = (  1.000000  0.000000  0.000000 )  
               b(2) = (  0.000000  1.000000  0.000000 )  
               b(3) = (  0.000000  0.000000  1.000000 )  


     PseudoPot. # 1 for O  read from file:
     /home/gridsan/epan1/labutil/lab3_samples/pseudopotentials/O.pz-rrkjus.UPF
     MD5 check sum: 24fb942a68ef5d262e498166c462ef4a
     Pseudo is Ultrasoft, Zval =  6.0
     Generated by new atomic code, or converted to UPF format
     Using radial grid of 1269 points,  4 beta functions with: 
                l(1) =   0
                l(2) =   0
                l(3) =   1
                l(4) =   1
     Q(r) pseudized with 0 coefficients 


     PseudoPot. # 2 for Pb read from file:
     /home/gridsan/epan1/labutil/lab3_samples/pseudopotentials/Pb.pz-d-van.UPF
     MD5 check sum: 4e1e5920686a026ae26139ac417581ff
     Pseudo is Ultrasoft, Zval = 14.0
     Generated by new atomic code, or converted to UPF format
     Using radial grid of  899 points,  6 beta functions with: 
                l(1) =   0
                l(2) =   0
                l(3) =   1
                l(4) =   1
                l(5) =   2
                l(6) =   2
     Q(r) pseudized with  8 coefficients,  rinner =    1.000   1.000   1.000
                                                       1.000   1.000

     PseudoPot. # 3 for Ti read from file:
     /home/gridsan/epan1/labutil/lab3_samples/pseudopotentials/Ti.pz-sp-van_ak.UPF
     MD5 check sum: 545d0e6e05332b8871a8093f427cb0ca
     Pseudo is Ultrasoft, Zval = 12.0
     Generated by new atomic code, or converted to UPF format
     Using radial grid of  851 points,  6 beta functions with: 
                l(1) =   0
                l(2) =   0
                l(3) =   1
                l(4) =   1
                l(5) =   2
                l(6) =   2
     Q(r) pseudized with  8 coefficients,  rinner =    1.000   1.000   1.000
                                                       1.000   1.000

     atomic species   valence    mass     pseudopotential
        O              6.00    15.99900     O ( 1.00)
        Pb            14.00   207.20000     Pb( 1.00)
        Ti            12.00    47.86700     Ti( 1.00)

      8 Sym. Ops. (no inversion) found



   Cartesian axes

     site n.     atom                  positions (alat units)
         1           Pb  tau(   1) = (   0.0000000   0.0000000   0.0000000  )
         2           Ti  tau(   2) = (   0.5000000   0.5000000   0.5157887  )
         3           O   tau(   3) = (   0.0000000   0.5000000   0.5000000  )
         4           O   tau(   4) = (   0.5000000   0.0000000   0.5000000  )
         5           O   tau(   5) = (   0.5000000   0.5000000   0.0000000  )

     number of k points=     6
                       cart. coord. in units 2pi/alat
        k(    1) = (   0.1250000   0.1250000   0.1250000), wk =   0.2500000
        k(    2) = (   0.1250000   0.1250000   0.3750000), wk =   0.2500000
        k(    3) = (   0.1250000   0.3750000   0.3750000), wk =   0.5000000
        k(    4) = (   0.3750000   0.3750000   0.3750000), wk =   0.2500000
        k(    5) = (   0.3750000  -0.1250000   0.1250000), wk =   0.5000000
        k(    6) = (   0.3750000  -0.3750000   0.1250000), wk =   0.2500000

     Dense  grid:    24837 G-vectors     FFT dimensions: (  40,  40,  40)

     Smooth grid:     8733 G-vectors     FFT dimensions: (  25,  25,  25)

     Estimated max dynamical RAM per process >      51.66 MB

     Estimated total dynamical RAM >     103.32 MB

     Initial potential from superposition of free atoms

     starting charge      42.9982, renormalised to      44.0000
     Starting wfcs are   31 randomized atomic wfcs

     total cpu time spent up to now is        1.0 secs

     Self-consistent Calculation

     iteration #  1     ecut=    30.00 Ry     beta= 0.70
     Davidson diagonalization with overlap
     ethr =  1.00E-02,  avg # of iterations =  2.0

     total cpu time spent up to now is        1.3 secs

     total energy              =    -332.61459616 Ry
     estimated scf accuracy    <       1.10194890 Ry

     iteration #  2     ecut=    30.00 Ry     beta= 0.70
     Davidson diagonalization with overlap
     ethr =  2.50E-03,  avg # of iterations =  6.5

     total cpu time spent up to now is        1.7 secs

     total energy              =    -332.34202169 Ry
     estimated scf accuracy    <       4.39830275 Ry

     iteration #  3     ecut=    30.00 Ry     beta= 0.70
     Davidson diagonalization with overlap
     ethr =  2.50E-03,  avg # of iterations =  5.7

     total cpu time spent up to now is        2.0 secs

     total energy              =    -333.15830515 Ry
     estimated scf accuracy    <       0.23130408 Ry

     iteration #  4     ecut=    30.00 Ry     beta= 0.70
     Davidson diagonalization with overlap
     ethr =  5.26E-04,  avg # of iterations =  2.2

     total cpu time spent up to now is        2.3 secs

     total energy              =    -333.15464817 Ry
     estimated scf accuracy    <       0.06459451 Ry

     iteration #  5     ecut=    30.00 Ry     beta= 0.70
     Davidson diagonalization with overlap
     ethr =  1.47E-04,  avg # of iterations =  4.8

     total cpu time spent up to now is        2.7 secs

     total energy              =    -333.18289737 Ry
     estimated scf accuracy    <       0.02123177 Ry

     iteration #  6     ecut=    30.00 Ry     beta= 0.70
     Davidson diagonalization with overlap
     ethr =  4.83E-05,  avg # of iterations =  2.3

     total cpu time spent up to now is        2.9 secs

     total energy              =    -333.18204810 Ry
     estimated scf accuracy    <       0.00704917 Ry

     iteration #  7     ecut=    30.00 Ry     beta= 0.70
     Davidson diagonalization with overlap
     ethr =  1.60E-05,  avg # of iterations =  4.2

     total cpu time spent up to now is        3.3 secs

     total energy              =    -333.18403798 Ry
     estimated scf accuracy    <       0.00010533 Ry

     iteration #  8     ecut=    30.00 Ry     beta= 0.70
     Davidson diagonalization with overlap
     ethr =  2.39E-07,  avg # of iterations =  5.2

     total cpu time spent up to now is        3.6 secs

     total energy              =    -333.18406261 Ry
     estimated scf accuracy    <       0.00024197 Ry

     iteration #  9     ecut=    30.00 Ry     beta= 0.70
     Davidson diagonalization with overlap
     ethr =  2.39E-07,  avg # of iterations =  2.7

     total cpu time spent up to now is        3.9 secs

     total energy              =    -333.18403854 Ry
     estimated scf accuracy    <       0.00011636 Ry

     iteration # 10     ecut=    30.00 Ry     beta= 0.70
     Davidson diagonalization with overlap
     ethr =  2.39E-07,  avg # of iterations =  4.3

     total cpu time spent up to now is        4.2 secs

     total energy              =    -333.18405601 Ry
     estimated scf accuracy    <       0.00000273 Ry

     iteration # 11     ecut=    30.00 Ry     beta= 0.70
     Davidson diagonalization with overlap
     ethr =  6.20E-09,  avg # of iterations =  5.5

     total cpu time spent up to now is        4.6 secs

     total energy              =    -333.18405847 Ry
     estimated scf accuracy    <       0.00000188 Ry

     iteration # 12     ecut=    30.00 Ry     beta= 0.70
     Davidson diagonalization with overlap
     ethr =  4.28E-09,  avg # of iterations =  1.0

     total cpu time spent up to now is        4.8 secs

     total energy              =    -333.18405819 Ry
     estimated scf accuracy    <       0.00000115 Ry

     iteration # 13     ecut=    30.00 Ry     beta= 0.70
     Davidson diagonalization with overlap
     ethr =  2.62E-09,  avg # of iterations =  2.5

     total cpu time spent up to now is        5.1 secs

     total energy              =    -333.18405825 Ry
     estimated scf accuracy    <       0.00000018 Ry

     iteration # 14     ecut=    30.00 Ry     beta= 0.70
     Davidson diagonalization with overlap
     ethr =  4.09E-10,  avg # of iterations =  4.8

     total cpu time spent up to now is        5.4 secs

     End of self-consistent calculation

          k = 0.1250 0.1250 0.1250 (  1096 PWs)   bands (ev):

   -44.7143 -21.3327 -21.3182 -21.3174  -6.3706  -5.3099  -5.2927  -4.0272
    -4.0256  -4.0126  -3.8453  -3.8434   4.6026   7.2603   7.2684   8.0294
     9.0711   9.0928   9.8383   9.8392   9.9396  10.0863

          k = 0.1250 0.1250 0.3750 (  1095 PWs)   bands (ev):

   -44.7130 -21.3895 -21.3160 -21.3150  -5.9562  -5.1718  -5.1458  -4.0877
    -4.0223  -4.0088  -3.9414  -3.8153   3.8680   6.7904   7.2768   7.8083
     8.4142   8.6767   9.3480   9.8922  10.0799  10.8193

          k = 0.1250 0.3750 0.3750 (  1093 PWs)   bands (ev):

   -44.7118 -21.3862 -21.3711 -21.3136  -5.7428  -5.0600  -4.9884  -4.0613
    -4.0177  -3.9640  -3.8752  -3.7223   3.5077   6.7212   6.8415   7.1504
     7.4584   8.6356   9.3924   9.4417   9.9873  10.6687

          k = 0.3750 0.3750 0.3750 (  1082 PWs)   bands (ev):

   -44.7105 -21.3835 -21.3685 -21.3683  -5.3536  -5.1881  -5.1747  -3.9743
    -3.9722  -3.6844  -3.6198  -3.6137   4.1268   5.9063   5.9203   6.6639
     7.0025   7.0130   7.9325  10.6200  10.6392  10.7077

          k = 0.3750-0.1250 0.1250 (  1095 PWs)   bands (ev):

   -44.7130 -21.3744 -21.3304 -21.3155  -5.9674  -5.1863  -5.1252  -4.0868
    -4.0212  -4.0092  -3.9435  -3.8136   3.8748   6.8060   7.3075   7.8066
     8.4014   8.7146   9.3176   9.8951  10.0432  10.8014

          k = 0.3750-0.3750 0.1250 (  1093 PWs)   bands (ev):

   -44.7118 -21.3715 -21.3707 -21.3284  -5.7648  -5.0488  -4.9781  -4.0595
    -4.0172  -3.9619  -3.8743  -3.7299   3.5139   6.7731   6.8107   7.1418
     7.4478   8.6261   9.4129   9.4425   9.9799  10.6904

     highest occupied level (ev):    10.8193

!    total energy              =    -333.18405829 Ry
     estimated scf accuracy    <       0.00000006 Ry

     The total energy is the sum of the following terms:
     one-electron contribution =     -77.04123611 Ry
     hartree contribution      =      66.40441401 Ry
     xc contribution           =     -49.63688767 Ry
     ewald contribution        =    -272.91034852 Ry

     convergence has been achieved in  14 iterations

     Forces acting on atoms (cartesian axes, Ry/au):

     atom    1 type  2   force =     0.00000000    0.00000000    0.00675554
     atom    2 type  3   force =     0.00000000    0.00000000   -0.00910786
     atom    3 type  1   force =     0.00000000    0.00000000   -0.00012813
     atom    4 type  1   force =     0.00000000    0.00000000   -0.00012813
     atom    5 type  1   force =     0.00000000    0.00000000    0.00260858
     The non-local contrib.  to forces
     atom    1 type  2   force =     0.00000000    0.00000000   -0.00372838
     atom    2 type  3   force =     0.00000000    0.00000000    0.00568417
     atom    3 type  1   force =     0.00000000    0.00000000    0.03097867
     atom    4 type  1   force =     0.00000000    0.00000000    0.03097867
     atom    5 type  1   force =     0.00000000    0.00000000   -0.11721855
     The ionic contribution  to forces
     atom    1 type  2   force =     0.00000000    0.00000000    0.41273300
     atom    2 type  3   force =    -0.00000000   -0.00000000   -0.94895092
     atom    3 type  1   force =     0.00000000   -0.00000000   -0.45789920
     atom    4 type  1   force =    -0.00000000    0.00000000   -0.45789920
     atom    5 type  1   force =    -0.00000000   -0.00000000    1.45201632
     The local contribution  to forces
     atom    1 type  2   force =    -0.00000000   -0.00000000   -0.40222291
     atom    2 type  3   force =    -0.00000000   -0.00000000    0.93414878
     atom    3 type  1   force =     0.00000000   -0.00000000    0.42676864
     atom    4 type  1   force =    -0.00000000   -0.00000000    0.42676864
     atom    5 type  1   force =    -0.00000000   -0.00000000   -1.33214897
     The core correction contribution to forces
     atom    1 type  2   force =     0.00000000    0.00000000    0.00000000
     atom    2 type  3   force =     0.00000000    0.00000000    0.00000000
     atom    3 type  1   force =     0.00000000    0.00000000    0.00000000
     atom    4 type  1   force =     0.00000000    0.00000000    0.00000000
     atom    5 type  1   force =     0.00000000    0.00000000    0.00000000
     The Hubbard contrib.    to forces
     atom    1 type  2   force =     0.00000000    0.00000000    0.00000000
     atom    2 type  3   force =     0.00000000    0.00000000    0.00000000
     atom    3 type  1   force =     0.00000000    0.00000000    0.00000000
     atom    4 type  1   force =     0.00000000    0.00000000    0.00000000
     atom    5 type  1   force =     0.00000000    0.00000000    0.00000000
     The SCF correction term to forces
     atom    1 type  2   force =     0.00000000   -0.00000000   -0.00000000
     atom    2 type  3   force =     0.00000000   -0.00000000    0.00000000
     atom    3 type  1   force =    -0.00000000   -0.00000000    0.00001727
     atom    4 type  1   force =     0.00000000   -0.00000000    0.00001727
     atom    5 type  1   force =    -0.00000000    0.00000000   -0.00004670

     Total force =     0.002615     Total SCF correction =     0.000053


     Computing stress (Cartesian axis) and pressure

          total   stress  (Ry/bohr**3)                   (kbar)     P=      -21.17
  -0.00015630   0.00000000   0.00000000          -22.99        0.00        0.00
   0.00000000  -0.00015630   0.00000000            0.00      -22.99        0.00
   0.00000000   0.00000000  -0.00011917            0.00        0.00      -17.53


     BFGS Geometry Optimization
     Energy error            =      0.0E+00 Ry
     Gradient error          =      2.6E-03 Ry/Bohr

     number of scf cycles    =   1
     number of bfgs steps    =   0

     energy             new  =    -333.1840582929 Ry

     new trust radius        =       0.0026085786 bohr
     new conv_thr            =       0.0000001000 Ry


ATOMIC_POSITIONS (angstrom)
Pb            0.0000000000        0.0000000000        0.0000000000    0   0   0
Ti            1.9400000000        1.9400000000        2.0012600000    0   0   0
O             0.0000000000        1.9400000000        1.9399321950
O             1.9400000000        0.0000000000        1.9399321950
O             1.9400000000        1.9400000000        0.0013804003



     Writing config-only to output data dir /home/gridsan/epan1/labutil/lab3_samples/problem2/Lab3/PbTiO3_a_3.88_ecut_30_nk_4_displ_0.01578947368421052/pwscf.save/
     NEW-OLD atomic charge density approx. for the potential

     total cpu time spent up to now is        6.5 secs

     Self-consistent Calculation

     iteration #  1     ecut=    30.00 Ry     beta= 0.70
     Davidson diagonalization with overlap
     ethr =  1.00E-06,  avg # of iterations =  2.0

     Threshold (ethr) on eigenvalues was too large:
     Diagonalizing with lowered threshold

     Davidson diagonalization with overlap
     ethr =  1.45E-09,  avg # of iterations =  6.3

     total cpu time spent up to now is        7.1 secs

     total energy              =    -333.18406372 Ry
     estimated scf accuracy    <       0.00000148 Ry

     iteration #  2     ecut=    30.00 Ry     beta= 0.70
     Davidson diagonalization with overlap
     ethr =  3.37E-09,  avg # of iterations =  5.2

     total cpu time spent up to now is        7.5 secs

     total energy              =    -333.18406366 Ry
     estimated scf accuracy    <       0.00000202 Ry

     iteration #  3     ecut=    30.00 Ry     beta= 0.70
     Davidson diagonalization with overlap
     ethr =  3.37E-09,  avg # of iterations =  4.7

     total cpu time spent up to now is        7.8 secs

     total energy              =    -333.18406415 Ry
     estimated scf accuracy    <       0.00000031 Ry

     iteration #  4     ecut=    30.00 Ry     beta= 0.70
     Davidson diagonalization with overlap
     ethr =  6.99E-10,  avg # of iterations =  3.7

     total cpu time spent up to now is        8.1 secs

     End of self-consistent calculation

          k = 0.1250 0.1250 0.1250 (  1096 PWs)   bands (ev):

   -44.7163 -21.3340 -21.3201 -21.3193  -6.3705  -5.3095  -5.2927  -4.0269
    -4.0255  -4.0124  -3.8451  -3.8432   4.6028   7.2604   7.2683   8.0293
     9.0721   9.0934   9.8387   9.8411   9.9395  10.0863

          k = 0.1250 0.1250 0.3750 (  1095 PWs)   bands (ev):

   -44.7150 -21.3907 -21.3179 -21.3169  -5.9562  -5.1719  -5.1452  -4.0874
    -4.0220  -4.0086  -3.9412  -3.8151   3.8685   6.7903   7.2773   7.8080
     8.4144   8.6778   9.3481   9.8926  10.0798  10.8194

          k = 0.1250 0.3750 0.3750 (  1093 PWs)   bands (ev):

   -44.7138 -21.3874 -21.3730 -21.3155  -5.7429  -5.0596  -4.9882  -4.0611
    -4.0175  -3.9637  -3.8750  -3.7222   3.5080   6.7220   6.8409   7.1504
     7.4584   8.6355   9.3932   9.4418   9.9876  10.6693

          k = 0.3750 0.3750 0.3750 (  1082 PWs)   bands (ev):

   -44.7125 -21.3847 -21.3704 -21.3702  -5.3535  -5.1877  -5.1747  -3.9740
    -3.9720  -3.6842  -3.6195  -3.6136   4.1271   5.9068   5.9204   6.6638
     7.0024   7.0125   7.9328  10.6208  10.6395  10.7081

          k = 0.3750-0.1250 0.1250 (  1095 PWs)   bands (ev):

   -44.7150 -21.3763 -21.3316 -21.3174  -5.9672  -5.1859  -5.1252  -4.0866
    -4.0210  -4.0090  -3.9433  -3.8134   3.8751   6.8058   7.3077   7.8066
     8.4014   8.7147   9.3186   9.8955  10.0439  10.8019

          k = 0.3750-0.3750 0.1250 (  1093 PWs)   bands (ev):

   -44.7138 -21.3734 -21.3726 -21.3296  -5.7643  -5.0488  -4.9782  -4.0593
    -4.0170  -3.9617  -3.8741  -3.7296   3.5140   6.7729   6.8105   7.1425
     7.4485   8.6262   9.4132   9.4426   9.9801  10.6905

     highest occupied level (ev):    10.8194

!    total energy              =    -333.18406416 Ry
     estimated scf accuracy    <       0.00000003 Ry

     The total energy is the sum of the following terms:
     one-electron contribution =     -77.03472392 Ry
     hartree contribution      =      66.40140444 Ry
     xc contribution           =     -49.63653910 Ry
     ewald contribution        =    -272.91420557 Ry

     convergence has been achieved in   4 iterations

     Forces acting on atoms (cartesian axes, Ry/au):

     atom    1 type  2   force =     0.00000000    0.00000000    0.00663036
     atom    2 type  3   force =     0.00000000    0.00000000   -0.00883162
     atom    3 type  1   force =     0.00000000    0.00000000    0.00016189
     atom    4 type  1   force =     0.00000000    0.00000000    0.00016189
     atom    5 type  1   force =     0.00000000    0.00000000    0.00187748
     The non-local contrib.  to forces
     atom    1 type  2   force =     0.00000000    0.00000000   -0.00379342
     atom    2 type  3   force =     0.00000000    0.00000000    0.00570319
     atom    3 type  1   force =     0.00000000    0.00000000    0.03188349
     atom    4 type  1   force =     0.00000000    0.00000000    0.03188349
     atom    5 type  1   force =     0.00000000    0.00000000   -0.11582003
     The ionic contribution  to forces
     atom    1 type  2   force =     0.00000000    0.00000000    0.40682252
     atom    2 type  3   force =    -0.00000000   -0.00000000   -0.91510637
     atom    3 type  1   force =     0.00000000   -0.00000000   -0.45367792
     atom    4 type  1   force =    -0.00000000    0.00000000   -0.45367792
     atom    5 type  1   force =    -0.00000000   -0.00000000    1.41563969
     The local contribution  to forces
     atom    1 type  2   force =    -0.00000000   -0.00000000   -0.39621540
     atom    2 type  3   force =    -0.00000000   -0.00000000    0.90036030
     atom    3 type  1   force =     0.00000000   -0.00000000    0.42187097
     atom    4 type  1   force =    -0.00000000    0.00000000    0.42187097
     atom    5 type  1   force =    -0.00000000   -0.00000000   -1.29788654
     The core correction contribution to forces
     atom    1 type  2   force =     0.00000000    0.00000000    0.00000000
     atom    2 type  3   force =     0.00000000    0.00000000    0.00000000
     atom    3 type  1   force =     0.00000000    0.00000000    0.00000000
     atom    4 type  1   force =     0.00000000    0.00000000    0.00000000
     atom    5 type  1   force =     0.00000000    0.00000000    0.00000000
     The Hubbard contrib.    to forces
     atom    1 type  2   force =     0.00000000    0.00000000    0.00000000
     atom    2 type  3   force =     0.00000000    0.00000000    0.00000000
     atom    3 type  1   force =     0.00000000    0.00000000    0.00000000
     atom    4 type  1   force =     0.00000000    0.00000000    0.00000000
     atom    5 type  1   force =     0.00000000    0.00000000    0.00000000
     The SCF correction term to forces
     atom    1 type  2   force =     0.00000000    0.00000000   -0.00000000
     atom    2 type  3   force =    -0.00000000   -0.00000000    0.00000000
     atom    3 type  1   force =    -0.00000000   -0.00000000    0.00007601
     atom    4 type  1   force =    -0.00000000   -0.00000000    0.00007601
     atom    5 type  1   force =     0.00000000   -0.00000000   -0.00006499

     Total force =     0.001891     Total SCF correction =     0.000126


     Computing stress (Cartesian axis) and pressure

          total   stress  (Ry/bohr**3)                   (kbar)     P=      -20.60
  -0.00015180   0.00000000   0.00000000          -22.33        0.00        0.00
   0.00000000  -0.00015180   0.00000000            0.00      -22.33        0.00
   0.00000000   0.00000000  -0.00011658            0.00        0.00      -17.15

     Energy error            =      5.9E-06 Ry
     Gradient error          =      1.9E-03 Ry/Bohr

     number of scf cycles    =   2
     number of bfgs steps    =   1

     energy             old  =    -333.1840582929 Ry
     energy             new  =    -333.1840641619 Ry

     CASE: energy            _new < energy            _old

     new trust radius        =       0.0028694365 bohr
     new conv_thr            =       0.0000000010 Ry


ATOMIC_POSITIONS (angstrom)
Pb            0.0000000000        0.0000000000        0.0000000000    0   0   0
Ti            1.9400000000        1.9400000000        2.0012600000    0   0   0
O             0.0000000000        1.9400000000        1.9400461381
O             1.9400000000        0.0000000000        1.9400461381
O             1.9400000000        1.9400000000        0.0028988407



     Writing config-only to output data dir /home/gridsan/epan1/labutil/lab3_samples/problem2/Lab3/PbTiO3_a_3.88_ecut_30_nk_4_displ_0.01578947368421052/pwscf.save/
     NEW-OLD atomic charge density approx. for the potential

     total cpu time spent up to now is        9.3 secs

     Self-consistent Calculation

     iteration #  1     ecut=    30.00 Ry     beta= 0.70
     Davidson diagonalization with overlap
     ethr =  1.00E-06,  avg # of iterations =  2.0

     Threshold (ethr) on eigenvalues was too large:
     Diagonalizing with lowered threshold

     Davidson diagonalization with overlap
     ethr =  1.94E-09,  avg # of iterations =  6.5

     total cpu time spent up to now is        9.9 secs

     total energy              =    -333.18406747 Ry
     estimated scf accuracy    <       0.00000228 Ry

     iteration #  2     ecut=    30.00 Ry     beta= 0.70
     Davidson diagonalization with overlap
     ethr =  5.18E-09,  avg # of iterations =  5.8

     total cpu time spent up to now is       10.3 secs

     total energy              =    -333.18406726 Ry
     estimated scf accuracy    <       0.00000536 Ry

     iteration #  3     ecut=    30.00 Ry     beta= 0.70
     Davidson diagonalization with overlap
     ethr =  5.18E-09,  avg # of iterations =  4.5

     total cpu time spent up to now is       10.7 secs

     total energy              =    -333.18406834 Ry
     estimated scf accuracy    <       0.00000019 Ry

     iteration #  4     ecut=    30.00 Ry     beta= 0.70
     Davidson diagonalization with overlap
     ethr =  4.29E-10,  avg # of iterations =  2.7

     total cpu time spent up to now is       11.0 secs

     total energy              =    -333.18406836 Ry
     estimated scf accuracy    <       0.00000003 Ry

     iteration #  5     ecut=    30.00 Ry     beta= 0.70
     Davidson diagonalization with overlap
     ethr =  7.66E-11,  avg # of iterations =  4.7

     total cpu time spent up to now is       11.3 secs

     total energy              =    -333.18406837 Ry
     estimated scf accuracy    <          3.8E-09 Ry

     iteration #  6     ecut=    30.00 Ry     beta= 0.70
     Davidson diagonalization with overlap
     ethr =  8.62E-12,  avg # of iterations =  2.7

     total cpu time spent up to now is       11.6 secs

     total energy              =    -333.18406837 Ry
     estimated scf accuracy    <          1.8E-09 Ry

     iteration #  7     ecut=    30.00 Ry     beta= 0.70
     Davidson diagonalization with overlap
     ethr =  4.02E-12,  avg # of iterations =  4.7

     total cpu time spent up to now is       11.9 secs

     End of self-consistent calculation

          k = 0.1250 0.1250 0.1250 (  1096 PWs)   bands (ev):

   -44.7174 -21.3343 -21.3212 -21.3204  -6.3706  -5.3091  -5.2931  -4.0267
    -4.0252  -4.0122  -3.8448  -3.8431   4.6030   7.2604   7.2680   8.0291
     9.0730   9.0938   9.8389   9.8433   9.9390  10.0859

          k = 0.1250 0.1250 0.3750 (  1095 PWs)   bands (ev):

   -44.7161 -21.3911 -21.3190 -21.3181  -5.9566  -5.1723  -5.1446  -4.0872
    -4.0218  -4.0084  -3.9410  -3.8148   3.8690   6.7904   7.2778   7.8074
     8.4144   8.6789   9.3479   9.8928  10.0794  10.8192

          k = 0.1250 0.3750 0.3750 (  1093 PWs)   bands (ev):

   -44.7149 -21.3878 -21.3741 -21.3166  -5.7432  -5.0593  -4.9882  -4.0608
    -4.0172  -3.9635  -3.8748  -3.7221   3.5083   6.7229   6.8400   7.1503
     7.4583   8.6351   9.3940   9.4418   9.9878  10.6698

          k = 0.3750 0.3750 0.3750 (  1082 PWs)   bands (ev):

   -44.7136 -21.3851 -21.3715 -21.3713  -5.3535  -5.1874  -5.1751  -3.9738
    -3.9718  -3.6840  -3.6192  -3.6135   4.1272   5.9073   5.9203   6.6636
     7.0023   7.0119   7.9330  10.6214  10.6395  10.7082

          k = 0.3750-0.1250 0.1250 (  1095 PWs)   bands (ev):

   -44.7161 -21.3774 -21.3320 -21.3185  -5.9672  -5.1857  -5.1256  -4.0864
    -4.0207  -4.0088  -3.9430  -3.8132   3.8752   6.8054   7.3077   7.8065
     8.4015   8.7145   9.3195   9.8957  10.0446  10.8023

          k = 0.3750-0.3750 0.1250 (  1093 PWs)   bands (ev):

   -44.7149 -21.3745 -21.3737 -21.3300  -5.7638  -5.0491  -4.9786  -4.0591
    -4.0167  -3.9615  -3.8739  -3.7292   3.5140   6.7726   6.8101   7.1431
     7.4492   8.6263   9.4132   9.4425   9.9803  10.6901

     highest occupied level (ev):    10.8192

!    total energy              =    -333.18406837 Ry
     estimated scf accuracy    <          5.7E-11 Ry

     The total energy is the sum of the following terms:
     one-electron contribution =     -77.02653869 Ry
     hartree contribution      =      66.39677802 Ry
     xc contribution           =     -49.63629031 Ry
     ewald contribution        =    -272.91801738 Ry

     convergence has been achieved in   7 iterations

     Forces acting on atoms (cartesian axes, Ry/au):

     atom    1 type  2   force =     0.00000000    0.00000000    0.00686114
     atom    2 type  3   force =     0.00000000    0.00000000   -0.00886119
     atom    3 type  1   force =     0.00000000    0.00000000    0.00039948
     atom    4 type  1   force =     0.00000000    0.00000000    0.00039948
     atom    5 type  1   force =     0.00000000    0.00000000    0.00120108
     The non-local contrib.  to forces
     atom    1 type  2   force =     0.00000000    0.00000000   -0.00372614
     atom    2 type  3   force =     0.00000000    0.00000000    0.00570605
     atom    3 type  1   force =     0.00000000    0.00000000    0.03280843
     atom    4 type  1   force =     0.00000000    0.00000000    0.03280843
     atom    5 type  1   force =     0.00000000    0.00000000   -0.11425702
     The ionic contribution  to forces
     atom    1 type  2   force =     0.00000000    0.00000000    0.40290923
     atom    2 type  3   force =    -0.00000000   -0.00000000   -0.88069203
     atom    3 type  1   force =     0.00000000   -0.00000000   -0.44948052
     atom    4 type  1   force =    -0.00000000    0.00000000   -0.44948052
     atom    5 type  1   force =    -0.00000000   -0.00000000    1.37674385
     The local contribution  to forces
     atom    1 type  2   force =    -0.00000000   -0.00000000   -0.39232972
     atom    2 type  3   force =    -0.00000000   -0.00000000    0.86614842
     atom    3 type  1   force =     0.00000000   -0.00000000    0.41707135
     atom    4 type  1   force =    -0.00000000    0.00000000    0.41707135
     atom    5 type  1   force =    -0.00000000   -0.00000000   -1.26129625
     The core correction contribution to forces
     atom    1 type  2   force =     0.00000000    0.00000000    0.00000000
     atom    2 type  3   force =     0.00000000    0.00000000    0.00000000
     atom    3 type  1   force =     0.00000000    0.00000000    0.00000000
     atom    4 type  1   force =     0.00000000    0.00000000    0.00000000
     atom    5 type  1   force =     0.00000000    0.00000000    0.00000000
     The Hubbard contrib.    to forces
     atom    1 type  2   force =     0.00000000    0.00000000    0.00000000
     atom    2 type  3   force =     0.00000000    0.00000000    0.00000000
     atom    3 type  1   force =     0.00000000    0.00000000    0.00000000
     atom    4 type  1   force =     0.00000000    0.00000000    0.00000000
     atom    5 type  1   force =     0.00000000    0.00000000    0.00000000
     The SCF correction term to forces
     atom    1 type  2   force =    -0.00000000    0.00000000    0.00000000
     atom    2 type  3   force =     0.00000000   -0.00000000   -0.00000000
     atom    3 type  1   force =    -0.00000000   -0.00000000   -0.00000325
     atom    4 type  1   force =     0.00000000    0.00000000   -0.00000325
     atom    5 type  1   force =    -0.00000000    0.00000000    0.00000703

     Total force =     0.001327     Total SCF correction =     0.000008


     Computing stress (Cartesian axis) and pressure

          total   stress  (Ry/bohr**3)                   (kbar)     P=      -21.06
  -0.00015426   0.00000000   0.00000000          -22.69        0.00        0.00
   0.00000000  -0.00015426   0.00000000            0.00      -22.69        0.00
   0.00000000   0.00000000  -0.00012101            0.00        0.00      -17.80

     Energy error            =      4.2E-06 Ry
     Gradient error          =      1.2E-03 Ry/Bohr

     number of scf cycles    =   3
     number of bfgs steps    =   2

     energy             old  =    -333.1840641619 Ry
     energy             new  =    -333.1840683715 Ry

     CASE: energy            _new < energy            _old

     new trust radius        =       0.0043041547 bohr
     new conv_thr            =       0.0000000010 Ry


ATOMIC_POSITIONS (angstrom)
Pb            0.0000000000        0.0000000000        0.0000000000    0   0   0
Ti            1.9400000000        1.9400000000        2.0012600000    0   0   0
O             0.0000000000        1.9400000000        1.9405109095
O             1.9400000000        0.0000000000        1.9405109095
O             1.9400000000        1.9400000000        0.0051765013



     Writing config-only to output data dir /home/gridsan/epan1/labutil/lab3_samples/problem2/Lab3/PbTiO3_a_3.88_ecut_30_nk_4_displ_0.01578947368421052/pwscf.save/
     NEW-OLD atomic charge density approx. for the potential

     total cpu time spent up to now is       13.2 secs

     Self-consistent Calculation

     iteration #  1     ecut=    30.00 Ry     beta= 0.70
     Davidson diagonalization with overlap
     ethr =  1.00E-06,  avg # of iterations =  2.3

     Threshold (ethr) on eigenvalues was too large:
     Diagonalizing with lowered threshold

     Davidson diagonalization with overlap
     ethr =  3.48E-09,  avg # of iterations =  7.2

     total cpu time spent up to now is       13.9 secs

     total energy              =    -333.18407186 Ry
     estimated scf accuracy    <       0.00000306 Ry

     iteration #  2     ecut=    30.00 Ry     beta= 0.70
     Davidson diagonalization with overlap
     ethr =  6.95E-09,  avg # of iterations =  3.5

     total cpu time spent up to now is       14.2 secs

     total energy              =    -333.18407226 Ry
     estimated scf accuracy    <       0.00000079 Ry

     iteration #  3     ecut=    30.00 Ry     beta= 0.70
     Davidson diagonalization with overlap
     ethr =  1.80E-09,  avg # of iterations =  4.7

     total cpu time spent up to now is       14.5 secs

     total energy              =    -333.18407242 Ry
     estimated scf accuracy    <       0.00000047 Ry

     iteration #  4     ecut=    30.00 Ry     beta= 0.70
     Davidson diagonalization with overlap
     ethr =  1.06E-09,  avg # of iterations =  4.0

     total cpu time spent up to now is       14.8 secs

     total energy              =    -333.18407252 Ry
     estimated scf accuracy    <       0.00000002 Ry

     iteration #  5     ecut=    30.00 Ry     beta= 0.70
     Davidson diagonalization with overlap
     ethr =  4.01E-11,  avg # of iterations =  5.2

     total cpu time spent up to now is       15.2 secs

     total energy              =    -333.18407252 Ry
     estimated scf accuracy    <       0.00000002 Ry

     iteration #  6     ecut=    30.00 Ry     beta= 0.70
     Davidson diagonalization with overlap
     ethr =  4.01E-11,  avg # of iterations =  3.3

     total cpu time spent up to now is       15.5 secs

     total energy              =    -333.18407253 Ry
     estimated scf accuracy    <          3.5E-09 Ry

     iteration #  7     ecut=    30.00 Ry     beta= 0.70
     Davidson diagonalization with overlap
     ethr =  8.00E-12,  avg # of iterations =  5.2

     total cpu time spent up to now is       15.8 secs

     total energy              =    -333.18407253 Ry
     estimated scf accuracy    <          1.8E-09 Ry

     iteration #  8     ecut=    30.00 Ry     beta= 0.70
     Davidson diagonalization with overlap
     ethr =  4.10E-12,  avg # of iterations =  1.3

     total cpu time spent up to now is       16.1 secs

     End of self-consistent calculation

          k = 0.1250 0.1250 0.1250 (  1096 PWs)   bands (ev):

   -44.7189 -21.3349 -21.3228 -21.3220  -6.3708  -5.3086  -5.2936  -4.0264
    -4.0250  -4.0119  -3.8445  -3.8429   4.6033   7.2605   7.2676   8.0289
     9.0744   9.0944   9.8394   9.8468   9.9384  10.0850

          k = 0.1250 0.1250 0.3750 (  1095 PWs)   bands (ev):

   -44.7177 -21.3916 -21.3206 -21.3196  -5.9571  -5.1728  -5.1438  -4.0869
    -4.0215  -4.0082  -3.9408  -3.8145   3.8697   6.7904   7.2788   7.8068
     8.4142   8.6806   9.3478   9.8931  10.0787  10.8189

          k = 0.1250 0.3750 0.3750 (  1093 PWs)   bands (ev):

   -44.7165 -21.3883 -21.3756 -21.3182  -5.7437  -5.0590  -4.9882  -4.0605
    -4.0169  -3.9632  -3.8745  -3.7220   3.5087   6.7245   6.8387   7.1501
     7.4581   8.6346   9.3950   9.4417   9.9881  10.6704

          k = 0.3750 0.3750 0.3750 (  1082 PWs)   bands (ev):

   -44.7152 -21.3856 -21.3731 -21.3728  -5.3534  -5.1871  -5.1754  -3.9734
    -3.9716  -3.6837  -3.6188  -3.6135   4.1275   5.9079   5.9201   6.6634
     7.0020   7.0110   7.9334  10.6223  10.6395  10.7084

          k = 0.3750-0.1250 0.1250 (  1095 PWs)   bands (ev):

   -44.7177 -21.3790 -21.3325 -21.3201  -5.9671  -5.1855  -5.1260  -4.0861
    -4.0205  -4.0085  -3.9427  -3.8130   3.8755   6.8049   7.3077   7.8064
     8.4015   8.7142   9.3209   9.8961  10.0458  10.8028

          k = 0.3750-0.3750 0.1250 (  1093 PWs)   bands (ev):

   -44.7165 -21.3761 -21.3752 -21.3305  -5.7631  -5.0495  -4.9791  -4.0589
    -4.0165  -3.9613  -3.8737  -3.7287   3.5140   6.7722   6.8096   7.1438
     7.4501   8.6263   9.4133   9.4424   9.9806  10.6897

     highest occupied level (ev):    10.8189

!    total energy              =    -333.18407253 Ry
     estimated scf accuracy    <          9.9E-10 Ry

     The total energy is the sum of the following terms:
     one-electron contribution =     -77.01640397 Ry
     hartree contribution      =      66.39127744 Ry
     xc contribution           =     -49.63590934 Ry
     ewald contribution        =    -272.92303666 Ry

     convergence has been achieved in   8 iterations

     Forces acting on atoms (cartesian axes, Ry/au):

     atom    1 type  2   force =     0.00000000    0.00000000    0.00688072
     atom    2 type  3   force =     0.00000000    0.00000000   -0.00866832
     atom    3 type  1   force =     0.00000000    0.00000000    0.00075838
     atom    4 type  1   force =     0.00000000    0.00000000    0.00075838
     atom    5 type  1   force =     0.00000000    0.00000000    0.00027084
     The non-local contrib.  to forces
     atom    1 type  2   force =     0.00000000    0.00000000   -0.00405807
     atom    2 type  3   force =     0.00000000    0.00000000    0.00570309
     atom    3 type  1   force =     0.00000000    0.00000000    0.03405441
     atom    4 type  1   force =     0.00000000    0.00000000    0.03405441
     atom    5 type  1   force =     0.00000000    0.00000000   -0.11163991
     The ionic contribution  to forces
     atom    1 type  2   force =     0.00000000    0.00000000    0.40107363
     atom    2 type  3   force =    -0.00000000   -0.00000000   -0.83346136
     atom    3 type  1   force =     0.00000000   -0.00000000   -0.44387940
     atom    4 type  1   force =    -0.00000000    0.00000000   -0.44387940
     atom    5 type  1   force =    -0.00000000   -0.00000000    1.32014654
     The local contribution  to forces
     atom    1 type  2   force =    -0.00000000    0.00000000   -0.39013735
     atom    2 type  3   force =    -0.00000000   -0.00000000    0.81909170
     atom    3 type  1   force =     0.00000000   -0.00000000    0.41057697
     atom    4 type  1   force =    -0.00000000    0.00000000    0.41057697
     atom    5 type  1   force =    -0.00000000   -0.00000000   -1.20823551
     The core correction contribution to forces
     atom    1 type  2   force =     0.00000000    0.00000000    0.00000000
     atom    2 type  3   force =     0.00000000    0.00000000    0.00000000
     atom    3 type  1   force =     0.00000000    0.00000000    0.00000000
     atom    4 type  1   force =     0.00000000    0.00000000    0.00000000
     atom    5 type  1   force =     0.00000000    0.00000000    0.00000000
     The Hubbard contrib.    to forces
     atom    1 type  2   force =     0.00000000    0.00000000    0.00000000
     atom    2 type  3   force =     0.00000000    0.00000000    0.00000000
     atom    3 type  1   force =     0.00000000    0.00000000    0.00000000
     atom    4 type  1   force =     0.00000000    0.00000000    0.00000000
     atom    5 type  1   force =     0.00000000    0.00000000    0.00000000
     The SCF correction term to forces
     atom    1 type  2   force =     0.00000000   -0.00000000   -0.00000000
     atom    2 type  3   force =    -0.00000000   -0.00000000   -0.00000000
     atom    3 type  1   force =    -0.00000000   -0.00000000    0.00000223
     atom    4 type  1   force =    -0.00000000   -0.00000000    0.00000223
     atom    5 type  1   force =    -0.00000000   -0.00000000   -0.00000444

     Total force =     0.001106     Total SCF correction =     0.000005


     Computing stress (Cartesian axis) and pressure

          total   stress  (Ry/bohr**3)                   (kbar)     P=      -21.33
  -0.00015513   0.00000000   0.00000000          -22.82        0.00        0.00
   0.00000000  -0.00015513   0.00000000            0.00      -22.82        0.00
   0.00000000   0.00000000  -0.00012482            0.00        0.00      -18.36

     Energy error            =      4.2E-06 Ry
     Gradient error          =      7.6E-04 Ry/Bohr

     bfgs converged in   4 scf cycles and   3 bfgs steps
     (criteria: energy <  1.0E-04 Ry, force <  1.0E-03 Ry/Bohr)

     End of BFGS Geometry Optimization

     Final energy             =    -333.1840725262 Ry

     File /home/gridsan/epan1/labutil/lab3_samples/problem2/Lab3/PbTiO3_a_3.88_ecut_30_nk_4_displ_0.01578947368421052/pwscf.bfgs deleted, as requested
Begin final coordinates

ATOMIC_POSITIONS (angstrom)
Pb            0.0000000000        0.0000000000        0.0000000000    0   0   0
Ti            1.9400000000        1.9400000000        2.0012600000    0   0   0
O             0.0000000000        1.9400000000        1.9405109095
O             1.9400000000        0.0000000000        1.9405109095
O             1.9400000000        1.9400000000        0.0051765013
End final coordinates



     init_run     :      0.71s CPU      0.70s WALL (       1 calls)
     electrons    :     14.08s CPU     11.46s WALL (       4 calls)
     update_pot   :      0.15s CPU      0.14s WALL (       3 calls)
     forces       :      0.50s CPU      0.43s WALL (       4 calls)
     stress       :      4.18s CPU      3.56s WALL (       4 calls)

     Called by init_run:
     wfcinit      :      0.10s CPU      0.08s WALL (       1 calls)
     potinit      :      0.04s CPU      0.04s WALL (       1 calls)
     hinit0       :      0.46s CPU      0.46s WALL (       1 calls)

     Called by electrons:
     c_bands      :      8.14s CPU      6.23s WALL (      36 calls)
     sum_band     :      3.71s CPU      3.26s WALL (      36 calls)
     v_of_rho     :      0.13s CPU      0.12s WALL (      37 calls)
     newd         :      2.18s CPU      1.92s WALL (      37 calls)
     mix_rho      :      0.08s CPU      0.08s WALL (      36 calls)

     Called by c_bands:
     init_us_2    :      0.26s CPU      0.21s WALL (     486 calls)
     init_us_2:cp :      0.26s CPU      0.20s WALL (     486 calls)
     cegterg      :      7.50s CPU      5.65s WALL (     216 calls)

     Called by *egterg:
     cdiaghg      :      1.31s CPU      0.95s WALL (    1054 calls)
     h_psi        :      5.04s CPU      3.89s WALL (    1096 calls)
     s_psi        :      0.22s CPU      0.16s WALL (    1096 calls)
     g_psi        :      0.05s CPU      0.04s WALL (     874 calls)

     Called by h_psi:
     h_psi:calbec :      0.31s CPU      0.24s WALL (    1096 calls)
     vloc_psi     :      4.47s CPU      3.45s WALL (    1096 calls)
     add_vuspsi   :      0.23s CPU      0.17s WALL (    1096 calls)

     General routines
     calbec       :      0.42s CPU      0.33s WALL (    1432 calls)
     fft          :      0.39s CPU      0.36s WALL (     240 calls)
     ffts         :      0.05s CPU      0.04s WALL (      73 calls)
     fftw         :      4.25s CPU      3.30s WALL (   32936 calls)
     interpolate  :      0.07s CPU      0.06s WALL (      37 calls)

     Parallel routines

     PWSCF        :     20.21s CPU     17.14s WALL


   This run was terminated on:  18: 6: 2   2Nov2023            

=------------------------------------------------------------------------------=
   JOB DONE.
=------------------------------------------------------------------------------=
