
     Program PWSCF v.7.2 starts on  2Nov2023 at 17:43:22 

     This program is part of the open-source Quantum ESPRESSO suite
     for quantum simulation of materials; please cite
         "P. Giannozzi et al., J. Phys.:Condens. Matter 21 395502 (2009);
         "P. Giannozzi et al., J. Phys.:Condens. Matter 29 465901 (2017);
         "P. Giannozzi et al., J. Chem. Phys. 152 154105 (2020);
          URL http://www.quantum-espresso.org", 
     in publications or presentations arising from this work. More details at
     http://www.quantum-espresso.org/quote

     Parallel version (MPI), running on     2 processors

     MPI processes distributed on     2 nodes
     187200 MiB available memory on the printing compute node when the environment starts

     Waiting for input...
     Reading input from standard input
Warning: card &CELL ignored
Warning: card / ignored

     Current dimensions of program PWSCF are:
     Max number of different atomic species (ntypx) = 10
     Max number of k-points (npk) =  40000
     Max angular momentum in pseudopotentials (lmaxx) =  4
     file O.pz-rrkjus.UPF: wavefunction(s)  2S renormalized
     Message from routine setup:
     using ibrav=0 with symmetry is DISCOURAGED, use correct ibrav instead

     R & G space division:  proc/nbgrp/npool/nimage =       2
     Subspace diagonalization in iterative solution of the eigenvalue problem:
     a serial algorithm will be used


     Parallelization info
     --------------------
     sticks:   dense  smooth     PW     G-vecs:    dense   smooth      PW
     Min         527     258     80                12910     4544     751
     Max         530     259     81                12911     4549     752
     Sum        1057     517    161                25821     9093    1503

     Using Slab Decomposition



     bravais-lattice index     =            0
     lattice parameter (alat)  =       7.4455  a.u.
     unit-cell volume          =     412.7483 (a.u.)^3
     number of atoms/cell      =            5
     number of atomic types    =            3
     number of electrons       =        44.00
     number of Kohn-Sham states=           22
     kinetic-energy cutoff     =      30.0000  Ry
     charge density cutoff     =     240.0000  Ry
     scf convergence threshold =      1.0E-07
     mixing beta               =       0.7000
     number of iterations used =            8  plain     mixing
     Exchange-correlation= SLA  PZ   NOGX NOGC
                           (   1   1   0   0   0   0   0)

     celldm(1)=   7.445521  celldm(2)=   0.000000  celldm(3)=   0.000000
     celldm(4)=   0.000000  celldm(5)=   0.000000  celldm(6)=   0.000000

     crystal axes: (cart. coord. in units of alat)
               a(1) = (   1.000000   0.000000   0.000000 )  
               a(2) = (   0.000000   1.000000   0.000000 )  
               a(3) = (   0.000000   0.000000   1.000000 )  

     reciprocal axes: (cart. coord. in units 2 pi/alat)
               b(1) = (  1.000000  0.000000  0.000000 )  
               b(2) = (  0.000000  1.000000  0.000000 )  
               b(3) = (  0.000000  0.000000  1.000000 )  


     PseudoPot. # 1 for O  read from file:
     /home/gridsan/epan1/labutil/lab3_samples/pseudopotentials/O.pz-rrkjus.UPF
     MD5 check sum: 24fb942a68ef5d262e498166c462ef4a
     Pseudo is Ultrasoft, Zval =  6.0
     Generated by new atomic code, or converted to UPF format
     Using radial grid of 1269 points,  4 beta functions with: 
                l(1) =   0
                l(2) =   0
                l(3) =   1
                l(4) =   1
     Q(r) pseudized with 0 coefficients 


     PseudoPot. # 2 for Pb read from file:
     /home/gridsan/epan1/labutil/lab3_samples/pseudopotentials/Pb.pz-d-van.UPF
     MD5 check sum: 4e1e5920686a026ae26139ac417581ff
     Pseudo is Ultrasoft, Zval = 14.0
     Generated by new atomic code, or converted to UPF format
     Using radial grid of  899 points,  6 beta functions with: 
                l(1) =   0
                l(2) =   0
                l(3) =   1
                l(4) =   1
                l(5) =   2
                l(6) =   2
     Q(r) pseudized with  8 coefficients,  rinner =    1.000   1.000   1.000
                                                       1.000   1.000

     PseudoPot. # 3 for Ti read from file:
     /home/gridsan/epan1/labutil/lab3_samples/pseudopotentials/Ti.pz-sp-van_ak.UPF
     MD5 check sum: 545d0e6e05332b8871a8093f427cb0ca
     Pseudo is Ultrasoft, Zval = 12.0
     Generated by new atomic code, or converted to UPF format
     Using radial grid of  851 points,  6 beta functions with: 
                l(1) =   0
                l(2) =   0
                l(3) =   1
                l(4) =   1
                l(5) =   2
                l(6) =   2
     Q(r) pseudized with  8 coefficients,  rinner =    1.000   1.000   1.000
                                                       1.000   1.000

     atomic species   valence    mass     pseudopotential
        O              6.00    15.99900     O ( 1.00)
        Pb            14.00   207.20000     Pb( 1.00)
        Ti            12.00    47.86700     Ti( 1.00)

     48 Sym. Ops., with inversion, found



   Cartesian axes

     site n.     atom                  positions (alat units)
         1           Pb  tau(   1) = (   0.0000000   0.0000000   0.0000000  )
         2           Ti  tau(   2) = (   0.5000000   0.5000000   0.5000000  )
         3           O   tau(   3) = (   0.0000000   0.5000000   0.5000000  )
         4           O   tau(   4) = (   0.5000000   0.0000000   0.5000000  )
         5           O   tau(   5) = (   0.5000000   0.5000000   0.0000000  )

     number of k points=     4
                       cart. coord. in units 2pi/alat
        k(    1) = (   0.1250000   0.1250000   0.1250000), wk =   0.2500000
        k(    2) = (   0.1250000   0.1250000   0.3750000), wk =   0.7500000
        k(    3) = (   0.1250000   0.3750000   0.3750000), wk =   0.7500000
        k(    4) = (   0.3750000   0.3750000   0.3750000), wk =   0.2500000

     Dense  grid:    25821 G-vectors     FFT dimensions: (  40,  40,  40)

     Smooth grid:     9093 G-vectors     FFT dimensions: (  25,  25,  25)

     Estimated max dynamical RAM per process >      53.10 MB

     Estimated total dynamical RAM >     106.21 MB

     Initial potential from superposition of free atoms

     starting charge      42.9982, renormalised to      44.0000
     Starting wfcs are   31 randomized atomic wfcs

     total cpu time spent up to now is        1.0 secs

     Self-consistent Calculation

     iteration #  1     ecut=    30.00 Ry     beta= 0.70
     Davidson diagonalization with overlap
     ethr =  1.00E-02,  avg # of iterations =  2.0

     total cpu time spent up to now is        1.2 secs

     total energy              =    -332.58468221 Ry
     estimated scf accuracy    <       1.12777810 Ry

     iteration #  2     ecut=    30.00 Ry     beta= 0.70
     Davidson diagonalization with overlap
     ethr =  2.56E-03,  avg # of iterations =  7.8

     total cpu time spent up to now is        1.6 secs

     total energy              =    -331.99895987 Ry
     estimated scf accuracy    <       6.68482632 Ry

     iteration #  3     ecut=    30.00 Ry     beta= 0.70
     Davidson diagonalization with overlap
     ethr =  2.56E-03,  avg # of iterations =  6.5

     total cpu time spent up to now is        1.9 secs

     total energy              =    -333.14920278 Ry
     estimated scf accuracy    <       0.31150121 Ry

     iteration #  4     ecut=    30.00 Ry     beta= 0.70
     Davidson diagonalization with overlap
     ethr =  7.08E-04,  avg # of iterations =  2.8

     total cpu time spent up to now is        2.1 secs

     total energy              =    -333.14671586 Ry
     estimated scf accuracy    <       0.09703747 Ry

     iteration #  5     ecut=    30.00 Ry     beta= 0.70
     Davidson diagonalization with overlap
     ethr =  2.21E-04,  avg # of iterations =  4.8

     total cpu time spent up to now is        2.4 secs

     total energy              =    -333.17801964 Ry
     estimated scf accuracy    <       0.00756503 Ry

     iteration #  6     ecut=    30.00 Ry     beta= 0.70
     Davidson diagonalization with overlap
     ethr =  1.72E-05,  avg # of iterations =  3.5

     total cpu time spent up to now is        2.6 secs

     total energy              =    -333.17793000 Ry
     estimated scf accuracy    <       0.00308241 Ry

     iteration #  7     ecut=    30.00 Ry     beta= 0.70
     Davidson diagonalization with overlap
     ethr =  7.01E-06,  avg # of iterations =  4.5

     total cpu time spent up to now is        2.9 secs

     total energy              =    -333.17876755 Ry
     estimated scf accuracy    <       0.00008008 Ry

     iteration #  8     ecut=    30.00 Ry     beta= 0.70
     Davidson diagonalization with overlap
     ethr =  1.82E-07,  avg # of iterations =  4.0

     total cpu time spent up to now is        3.2 secs

     total energy              =    -333.17877306 Ry
     estimated scf accuracy    <       0.00008354 Ry

     iteration #  9     ecut=    30.00 Ry     beta= 0.70
     Davidson diagonalization with overlap
     ethr =  1.82E-07,  avg # of iterations =  2.8

     total cpu time spent up to now is        3.4 secs

     total energy              =    -333.17877294 Ry
     estimated scf accuracy    <       0.00002500 Ry

     iteration # 10     ecut=    30.00 Ry     beta= 0.70
     Davidson diagonalization with overlap
     ethr =  5.68E-08,  avg # of iterations =  4.5

     total cpu time spent up to now is        3.7 secs

     total energy              =    -333.17878067 Ry
     estimated scf accuracy    <       0.00000089 Ry

     iteration # 11     ecut=    30.00 Ry     beta= 0.70
     Davidson diagonalization with overlap
     ethr =  2.02E-09,  avg # of iterations =  4.5

     total cpu time spent up to now is        4.0 secs

     total energy              =    -333.17878082 Ry
     estimated scf accuracy    <       0.00000134 Ry

     iteration # 12     ecut=    30.00 Ry     beta= 0.70
     Davidson diagonalization with overlap
     ethr =  2.02E-09,  avg # of iterations =  1.0

     total cpu time spent up to now is        4.2 secs

     total energy              =    -333.17878063 Ry
     estimated scf accuracy    <       0.00000104 Ry

     iteration # 13     ecut=    30.00 Ry     beta= 0.70
     Davidson diagonalization with overlap
     ethr =  2.02E-09,  avg # of iterations =  2.0

     total cpu time spent up to now is        4.4 secs

     total energy              =    -333.17878070 Ry
     estimated scf accuracy    <       0.00000034 Ry

     iteration # 14     ecut=    30.00 Ry     beta= 0.70
     Davidson diagonalization with overlap
     ethr =  7.65E-10,  avg # of iterations =  1.2

     total cpu time spent up to now is        4.6 secs

     total energy              =    -333.17878065 Ry
     estimated scf accuracy    <       0.00000034 Ry

     iteration # 15     ecut=    30.00 Ry     beta= 0.70
     Davidson diagonalization with overlap
     ethr =  7.65E-10,  avg # of iterations =  2.2

     total cpu time spent up to now is        4.9 secs

     total energy              =    -333.17878062 Ry
     estimated scf accuracy    <       0.00000013 Ry

     iteration # 16     ecut=    30.00 Ry     beta= 0.70
     Davidson diagonalization with overlap
     ethr =  2.85E-10,  avg # of iterations =  5.0

     total cpu time spent up to now is        5.1 secs

     End of self-consistent calculation

          k = 0.1250 0.1250 0.1250 (  1153 PWs)   bands (ev):

   -45.6528 -22.2175 -22.2175 -22.2171  -6.8861  -5.9057  -5.9057  -4.8534
    -4.8534  -4.8417  -4.6743  -4.6743   3.8737   6.6795   6.6795   7.2995
     8.4663   8.4663   9.2109   9.2272   9.2272   9.3141

          k = 0.1250 0.1250 0.3750 (  1148 PWs)   bands (ev):

   -45.6519 -22.2620 -22.2157 -22.2153  -6.5158  -5.7924  -5.7699  -4.9042
    -4.8487  -4.8353  -4.7667  -4.6540   3.2274   6.1989   6.7653   7.1773
     7.7366   8.0862   8.6421   9.2517   9.3750   9.9758

          k = 0.1250 0.3750 0.3750 (  1154 PWs)   bands (ev):

   -45.6510 -22.2601 -22.2600 -22.2140  -6.3271  -5.7012  -5.6418  -4.8817
    -4.8437  -4.7887  -4.7106  -4.5658   2.9277   6.1428   6.2439   6.6089
     6.9040   7.9195   8.7062   8.7972   9.1995   9.9808

          k = 0.3750 0.3750 0.3750 (  1124 PWs)   bands (ev):

   -45.6498 -22.2580 -22.2570 -22.2570  -5.9868  -5.8337  -5.8337  -4.8092
    -4.8092  -4.5279  -4.4634  -4.4634   3.5230   5.4607   5.4607   6.0165
     6.4107   6.4107   7.2051   9.9347   9.9347  10.0155

     highest occupied level (ev):    10.0155

!    total energy              =    -333.17878064 Ry
     estimated scf accuracy    <       0.00000004 Ry

     The total energy is the sum of the following terms:
     one-electron contribution =     -82.99750746 Ry
     hartree contribution      =      68.08911151 Ry
     xc contribution           =     -49.46205901 Ry
     ewald contribution        =    -268.80832569 Ry

     convergence has been achieved in  16 iterations

     Forces acting on atoms (cartesian axes, Ry/au):

     atom    1 type  2   force =     0.00000000    0.00000000    0.00000000
     atom    2 type  3   force =     0.00000000    0.00000000    0.00000000
     atom    3 type  1   force =     0.00000000    0.00000000    0.00000000
     atom    4 type  1   force =     0.00000000    0.00000000    0.00000000
     atom    5 type  1   force =     0.00000000    0.00000000    0.00000000
     The non-local contrib.  to forces
     atom    1 type  2   force =     0.00000000    0.00000000    0.00000000
     atom    2 type  3   force =     0.00000000    0.00000000    0.00000000
     atom    3 type  1   force =     0.00000000    0.00000000    0.00000000
     atom    4 type  1   force =     0.00000000    0.00000000    0.00000000
     atom    5 type  1   force =     0.00000000    0.00000000    0.00000000
     The ionic contribution  to forces
     atom    1 type  2   force =     0.00000000    0.00000000    0.00000000
     atom    2 type  3   force =     0.00000000    0.00000000    0.00000000
     atom    3 type  1   force =     0.00000000   -0.00000000   -0.00000000
     atom    4 type  1   force =    -0.00000000    0.00000000   -0.00000000
     atom    5 type  1   force =    -0.00000000   -0.00000000    0.00000000
     The local contribution  to forces
     atom    1 type  2   force =    -0.00000000    0.00000000    0.00000000
     atom    2 type  3   force =    -0.00000000   -0.00000000   -0.00000000
     atom    3 type  1   force =     0.00000000   -0.00000000   -0.00000000
     atom    4 type  1   force =    -0.00000000    0.00000000   -0.00000000
     atom    5 type  1   force =    -0.00000000   -0.00000000    0.00000000
     The core correction contribution to forces
     atom    1 type  2   force =     0.00000000    0.00000000    0.00000000
     atom    2 type  3   force =     0.00000000    0.00000000    0.00000000
     atom    3 type  1   force =     0.00000000    0.00000000    0.00000000
     atom    4 type  1   force =     0.00000000    0.00000000    0.00000000
     atom    5 type  1   force =     0.00000000    0.00000000    0.00000000
     The Hubbard contrib.    to forces
     atom    1 type  2   force =     0.00000000    0.00000000    0.00000000
     atom    2 type  3   force =     0.00000000    0.00000000    0.00000000
     atom    3 type  1   force =     0.00000000    0.00000000    0.00000000
     atom    4 type  1   force =     0.00000000    0.00000000    0.00000000
     atom    5 type  1   force =     0.00000000    0.00000000    0.00000000
     The SCF correction term to forces
     atom    1 type  2   force =     0.00000000    0.00000000    0.00000000
     atom    2 type  3   force =     0.00000000    0.00000000    0.00000000
     atom    3 type  1   force =     0.00000000    0.00000000   -0.00000000
     atom    4 type  1   force =     0.00000000   -0.00000000    0.00000000
     atom    5 type  1   force =    -0.00000000    0.00000000   -0.00000000

     Total force =     0.000000     Total SCF correction =     0.000000


     Computing stress (Cartesian axis) and pressure

          total   stress  (Ry/bohr**3)                   (kbar)     P=     -107.88
  -0.00073335   0.00000000   0.00000000         -107.88        0.00        0.00
   0.00000000  -0.00073335   0.00000000            0.00     -107.88        0.00
   0.00000000   0.00000000  -0.00073335            0.00        0.00     -107.88


     init_run     :      0.72s CPU      0.68s WALL (       1 calls)
     electrons    :      4.67s CPU      4.12s WALL (       1 calls)
     forces       :      0.13s CPU      0.11s WALL (       1 calls)
     stress       :      1.00s CPU      0.85s WALL (       1 calls)

     Called by init_run:
     wfcinit      :      0.08s CPU      0.05s WALL (       1 calls)
     potinit      :      0.04s CPU      0.04s WALL (       1 calls)
     hinit0       :      0.46s CPU      0.46s WALL (       1 calls)

     Called by electrons:
     c_bands      :      2.14s CPU      1.70s WALL (      16 calls)
     sum_band     :      1.54s CPU      1.41s WALL (      16 calls)
     v_of_rho     :      0.04s CPU      0.05s WALL (      17 calls)
     newd         :      0.95s CPU      0.96s WALL (      17 calls)
     mix_rho      :      0.04s CPU      0.04s WALL (      16 calls)

     Called by c_bands:
     init_us_2    :      0.07s CPU      0.06s WALL (     140 calls)
     init_us_2:cp :      0.07s CPU      0.06s WALL (     140 calls)
     cegterg      :      1.97s CPU      1.54s WALL (      64 calls)

     Called by *egterg:
     cdiaghg      :      0.33s CPU      0.26s WALL (     300 calls)
     h_psi        :      1.37s CPU      1.09s WALL (     304 calls)
     s_psi        :      0.06s CPU      0.05s WALL (     304 calls)
     g_psi        :      0.01s CPU      0.01s WALL (     236 calls)

     Called by h_psi:
     h_psi:calbec :      0.09s CPU      0.07s WALL (     304 calls)
     vloc_psi     :      1.21s CPU      0.96s WALL (     304 calls)
     add_vuspsi   :      0.06s CPU      0.05s WALL (     304 calls)

     General routines
     calbec       :      0.11s CPU      0.09s WALL (     388 calls)
     fft          :      0.24s CPU      0.23s WALL (     105 calls)
     ffts         :      0.04s CPU      0.04s WALL (      33 calls)
     fftw         :      1.15s CPU      0.93s WALL (    9118 calls)
     interpolate  :      0.05s CPU      0.05s WALL (      17 calls)

     Parallel routines

     PWSCF        :      6.87s CPU      6.14s WALL


   This run was terminated on:  17:43:28   2Nov2023            

=------------------------------------------------------------------------------=
   JOB DONE.
=------------------------------------------------------------------------------=
