
     Program PWSCF v.7.2 starts on  3Nov2023 at 11: 6:12 

     This program is part of the open-source Quantum ESPRESSO suite
     for quantum simulation of materials; please cite
         "P. Giannozzi et al., J. Phys.:Condens. Matter 21 395502 (2009);
         "P. Giannozzi et al., J. Phys.:Condens. Matter 29 465901 (2017);
         "P. Giannozzi et al., J. Chem. Phys. 152 154105 (2020);
          URL http://www.quantum-espresso.org", 
     in publications or presentations arising from this work. More details at
     http://www.quantum-espresso.org/quote

     Parallel version (MPI), running on     8 processors

     MPI processes distributed on     8 nodes
     185442 MiB available memory on the printing compute node when the environment starts

     Waiting for input...
     Reading input from standard input

     Current dimensions of program PWSCF are:
     Max number of different atomic species (ntypx) = 10
     Max number of k-points (npk) =  40000
     Max angular momentum in pseudopotentials (lmaxx) =  4
     Message from routine setup:
     using ibrav=0 with symmetry is DISCOURAGED, use correct ibrav instead

     R & G space division:  proc/nbgrp/npool/nimage =       8
     Subspace diagonalization in iterative solution of the eigenvalue problem:
     a serial algorithm will be used


     Parallelization info
     --------------------
     sticks:   dense  smooth     PW     G-vecs:    dense   smooth      PW
     Min          79      39     13                 1301      461      90
     Max          80      40     14                 1303      463      91
     Sum         637     313    109                10417     3695     725

     Using Slab Decomposition



     bravais-lattice index     =            0
     lattice parameter (alat)  =       5.3450  a.u.
     unit-cell volume          =     107.9734 (a.u.)^3
     number of atoms/cell      =            1
     number of atomic types    =            1
     number of electrons       =        11.00
     number of Kohn-Sham states=           10
     kinetic-energy cutoff     =      40.0000  Ry
     charge density cutoff     =     320.0000  Ry
     scf convergence threshold =      1.0E-07
     mixing beta               =       0.5000
     number of iterations used =            8  plain     mixing
     energy convergence thresh.=      1.0E-04
     force convergence thresh. =      1.0E-03
     press convergence thresh. =      5.0E-01
     Exchange-correlation=  SLA  PZ   NOGX NOGC
                           (   1   1   0   0   0   0   0)
     nstep                     =           50


     celldm(1)=   5.344953  celldm(2)=   0.000000  celldm(3)=   0.000000
     celldm(4)=   0.000000  celldm(5)=   0.000000  celldm(6)=   0.000000

     crystal axes: (cart. coord. in units of alat)
               a(1) = (   0.000000   0.707107   0.707107 )  
               a(2) = (   0.707107   0.000000   0.707107 )  
               a(3) = (   0.707107   0.707107   0.000000 )  

     reciprocal axes: (cart. coord. in units 2 pi/alat)
               b(1) = ( -0.707107  0.707107  0.707107 )  
               b(2) = (  0.707107 -0.707107  0.707107 )  
               b(3) = (  0.707107  0.707107 -0.707107 )  


     PseudoPot. # 1 for Au read from file:
     /home/gridsan/epan1/labutil/lab3_samples/pseudopotentials/Au.pz-d-rrkjus.UPF
     MD5 check sum: 424ffd4ac9c90487cbadcd287136c95b
     Pseudo is Ultrasoft, Zval = 11.0
     Generated by new atomic code, or converted to UPF format
     Using radial grid of 1279 points,  3 beta functions with: 
                l(1) =   2
                l(2) =   2
                l(3) =   1
     Q(r) pseudized with 0 coefficients 


     atomic species   valence    mass     pseudopotential
        Au            11.00   196.96657     Au( 1.00)

     Starting magnetic structure 
     atomic species   magnetization
        Au           0.700

     48 Sym. Ops., with inversion, found



   Cartesian axes

     site n.     atom                  positions (alat units)
         1           Au  tau(   1) = (   0.0000000   0.0000000   0.0000000  )

     number of k points=    10  Methfessel-Paxton smearing, width (Ry)=  0.0200
                       cart. coord. in units 2pi/alat
        k(    1) = (   0.0000000   0.0000000   0.0000000), wk =   0.0080000
        k(    2) = (   0.1414214   0.1414214  -0.1414214), wk =   0.0640000
        k(    3) = (   0.2828427   0.2828427  -0.2828427), wk =   0.0640000
        k(    4) = (   0.2828427   0.0000000   0.0000000), wk =   0.0480000
        k(    5) = (   0.4242641   0.1414214  -0.1414214), wk =   0.1920000
        k(    6) = (  -0.1414214  -0.4242641   0.4242641), wk =   0.1920000
        k(    7) = (   0.0000000  -0.2828427   0.2828427), wk =   0.0960000
        k(    8) = (   0.5656854   0.0000000   0.0000000), wk =   0.0480000
        k(    9) = (   0.0000000  -0.5656854   0.5656854), wk =   0.0960000
        k(   10) = (  -0.1414214  -0.4242641   0.7071068), wk =   0.1920000

     Dense  grid:    10417 G-vectors     FFT dimensions: (  32,  32,  32)

     Smooth grid:     3695 G-vectors     FFT dimensions: (  24,  24,  24)

     Estimated max dynamical RAM per process >       4.82 MB

     Estimated total dynamical RAM >      38.56 MB
     Generating pointlists ...
     new r_m :   0.4125 (alat units)  2.2048 (a.u.) for type    1

     Initial potential from superposition of free atoms

     starting charge      10.9999, renormalised to      11.0000
     Starting wfcs are    9 randomized atomic wfcs +    1 random wfcs

     total cpu time spent up to now is        0.5 secs

     Self-consistent Calculation

     iteration #  1     ecut=    40.00 Ry     beta= 0.50
     Davidson diagonalization with overlap
     ethr =  1.00E-02,  avg # of iterations =  5.2

     total cpu time spent up to now is        0.6 secs

     total energy              =     -66.45251503 Ry
     estimated scf accuracy    <       0.46510717 Ry

     total magnetization       =     1.39 Bohr mag/cell
     absolute magnetization    =     1.41 Bohr mag/cell

     iteration #  2     ecut=    40.00 Ry     beta= 0.50
     Davidson diagonalization with overlap
     ethr =  4.23E-03,  avg # of iterations =  1.4

     total cpu time spent up to now is        0.7 secs

     total energy              =     -66.76845174 Ry
     estimated scf accuracy    <       0.17680408 Ry

     total magnetization       =     0.06 Bohr mag/cell
     absolute magnetization    =     0.49 Bohr mag/cell

     iteration #  3     ecut=    40.00 Ry     beta= 0.50
     Davidson diagonalization with overlap
     ethr =  1.61E-03,  avg # of iterations =  1.0

     total cpu time spent up to now is        0.8 secs

     total energy              =     -66.87202611 Ry
     estimated scf accuracy    <       0.05454773 Ry

     total magnetization       =     0.04 Bohr mag/cell
     absolute magnetization    =     0.34 Bohr mag/cell

     iteration #  4     ecut=    40.00 Ry     beta= 0.50
     Davidson diagonalization with overlap
     ethr =  4.96E-04,  avg # of iterations =  1.9

     total cpu time spent up to now is        0.9 secs

     total energy              =     -66.87984009 Ry
     estimated scf accuracy    <       0.00402414 Ry

     total magnetization       =    -0.06 Bohr mag/cell
     absolute magnetization    =     0.06 Bohr mag/cell

     iteration #  5     ecut=    40.00 Ry     beta= 0.50
     Davidson diagonalization with overlap
     ethr =  3.66E-05,  avg # of iterations =  2.2

     total cpu time spent up to now is        1.0 secs

     total energy              =     -66.88090037 Ry
     estimated scf accuracy    <       0.00024076 Ry

     total magnetization       =    -0.03 Bohr mag/cell
     absolute magnetization    =     0.04 Bohr mag/cell

     iteration #  6     ecut=    40.00 Ry     beta= 0.50
     Davidson diagonalization with overlap
     ethr =  2.19E-06,  avg # of iterations =  2.3

     total cpu time spent up to now is        1.0 secs

     total energy              =     -66.88113353 Ry
     estimated scf accuracy    <       0.00003252 Ry

     total magnetization       =     0.02 Bohr mag/cell
     absolute magnetization    =     0.02 Bohr mag/cell

     iteration #  7     ecut=    40.00 Ry     beta= 0.50
     Davidson diagonalization with overlap
     ethr =  2.96E-07,  avg # of iterations =  1.5

     total cpu time spent up to now is        1.1 secs

     total energy              =     -66.88115455 Ry
     estimated scf accuracy    <       0.00000441 Ry

     total magnetization       =     0.01 Bohr mag/cell
     absolute magnetization    =     0.01 Bohr mag/cell

     iteration #  8     ecut=    40.00 Ry     beta= 0.50
     Davidson diagonalization with overlap
     ethr =  4.01E-08,  avg # of iterations =  1.4

     Magnetic moment per site  (integrated on atomic sphere of radius R)
     atom   1 (R=0.413)  charge=  9.2986  magn=  0.0004

     total cpu time spent up to now is        1.2 secs

     End of self-consistent calculation

 ------ SPIN UP ------------


          k = 0.0000 0.0000 0.0000 (   459 PWs)   bands (ev):

     6.3999  12.0224  12.0224  12.0224  13.7181  13.7181  33.5487  37.4063
    37.4063  37.4063

          k = 0.1414 0.1414-0.1414 (   471 PWs)   bands (ev):

     7.7531  11.7503  12.3408  12.3408  13.7177  13.7177  30.8262  34.6003
    38.1036  38.1036

          k = 0.2828 0.2828-0.2828 (   467 PWs)   bands (ev):

     9.1012  12.0590  12.0590  14.1289  14.8036  14.8036  22.6966  32.9721
    36.1434  36.1434

          k = 0.2828 0.0000 0.0000 (   472 PWs)   bands (ev):

     8.2271  11.1344  12.8656  12.9306  12.9306  14.1441  34.1628  34.1628
    34.3824  35.2542

          k = 0.4243 0.1414-0.1414 (   452 PWs)   bands (ev):

     9.8167  11.1302  12.0619  13.0859  14.9779  15.5588  25.7631  32.2337
    32.2584  34.9772

          k =-0.1414-0.4243 0.4243 (   456 PWs)   bands (ev):

    10.0745  11.4474  12.6530  12.7717  14.7390  18.7131  21.2340  29.3840
    33.8575  34.3503

          k = 0.0000-0.2828 0.2828 (   465 PWs)   bands (ev):

     9.5621  11.3204  12.1191  13.0025  13.1884  15.4740  28.0690  30.2131
    35.7776  38.8865

          k = 0.5657 0.0000 0.0000 (   452 PWs)   bands (ev):

     9.5240   9.9204  14.8854  14.9610  14.9610  15.6322  26.2300  28.6432
    28.6432  34.4396

          k = 0.0000-0.5657 0.5657 (   462 PWs)   bands (ev):

     9.8609  10.3893  13.4702  14.3217  15.1132  20.8686  21.8834  25.3002
    29.4648  35.6739

          k =-0.1414-0.4243 0.7071 (   459 PWs)   bands (ev):

    10.6700  10.9571  11.7228  13.8465  14.9463  19.1884  24.4201  25.7608
    28.9228  39.4764

 ------ SPIN DOWN ----------


          k = 0.0000 0.0000 0.0000 (   459 PWs)   bands (ev):

     6.4001  12.0235  12.0235  12.0235  13.7191  13.7191  33.5482  37.4067
    37.4067  37.4067

          k = 0.1414 0.1414-0.1414 (   471 PWs)   bands (ev):

     7.7533  11.7513  12.3419  12.3419  13.7187  13.7187  30.8268  34.6002
    38.1041  38.1041

          k = 0.2828 0.2828-0.2828 (   467 PWs)   bands (ev):

     9.1017  12.0600  12.0600  14.1294  14.8048  14.8048  22.6973  32.9723
    36.1437  36.1437

          k = 0.2828 0.0000 0.0000 (   472 PWs)   bands (ev):

     8.2274  11.1354  12.8665  12.9318  12.9318  14.1451  34.1633  34.1633
    34.3831  35.2540

          k = 0.4243 0.1414-0.1414 (   452 PWs)   bands (ev):

     9.8172  11.1310  12.0627  13.0869  14.9791  15.5598  25.7637  32.2341
    32.2588  34.9776

          k =-0.1414-0.4243 0.4243 (   456 PWs)   bands (ev):

    10.0751  11.4483  12.6539  12.7727  14.7402  18.7138  21.2347  29.3844
    33.8578  34.3506

          k = 0.0000-0.2828 0.2828 (   465 PWs)   bands (ev):

     9.5624  11.3213  12.1201  13.0035  13.1896  15.4751  28.0696  30.2136
    35.7778  38.8869

          k = 0.5657 0.0000 0.0000 (   452 PWs)   bands (ev):

     9.5247   9.9213  14.8864  14.9624  14.9624  15.6324  26.2305  28.6435
    28.6435  34.4405

          k = 0.0000-0.5657 0.5657 (   462 PWs)   bands (ev):

     9.8617  10.3902  13.4711  14.3227  15.1146  20.8690  21.8839  25.3009
    29.4651  35.6745

          k =-0.1414-0.4243 0.7071 (   459 PWs)   bands (ev):

    10.6708  10.9579  11.7236  13.8474  14.9476  19.1891  24.4205  25.7612
    28.9234  39.4768

     the Fermi energy is    15.7330 ev

!    total energy              =     -66.88115889 Ry
     estimated scf accuracy    <       0.00000002 Ry
     smearing contrib. (-TS)   =      -0.00008508 Ry
     internal energy E=F+TS    =     -66.88107381 Ry

     The total energy is F=E-TS. E is the sum of the following terms:
     one-electron contribution =      10.16879176 Ry
     hartree contribution      =       6.83893308 Ry
     xc contribution           =     -10.49611178 Ry
     ewald contribution        =     -73.39268687 Ry

     total magnetization       =     0.00 Bohr mag/cell
     absolute magnetization    =     0.00 Bohr mag/cell

     convergence has been achieved in   8 iterations

     Forces acting on atoms (cartesian axes, Ry/au):

     atom    1 type  1   force =     0.00000000    0.00000000    0.00000000
     The non-local contrib.  to forces
     atom    1 type  1   force =     0.00000000    0.00000000    0.00000000
     The ionic contribution  to forces
     atom    1 type  1   force =    -0.00000000   -0.00000000   -0.00000000
     The local contribution  to forces
     atom    1 type  1   force =     0.00000000    0.00000000    0.00000000
     The core correction contribution to forces
     atom    1 type  1   force =     0.00000000    0.00000000    0.00000000
     The Hubbard contrib.    to forces
     atom    1 type  1   force =     0.00000000    0.00000000    0.00000000
     The SCF correction term to forces
     atom    1 type  1   force =     0.00000000    0.00000000    0.00000000

     Total force =     0.000000     Total SCF correction =     0.000000


     Computing stress (Cartesian axis) and pressure

          total   stress  (Ry/bohr**3)                   (kbar)     P=       63.79
   0.00043363  -0.00000000  -0.00000000           63.79       -0.00       -0.00
  -0.00000000   0.00043363  -0.00000000           -0.00       63.79       -0.00
  -0.00000000  -0.00000000   0.00043363           -0.00       -0.00       63.79


     BFGS Geometry Optimization
     Energy error            =      0.0E+00 Ry
     Gradient error          =      0.0E+00 Ry/Bohr
     Cell gradient error     =      6.4E+01 kbar

     number of scf cycles    =   1
     number of bfgs steps    =   0

     enthalpy           new  =     -66.8811588901 Ry

     new trust radius        =       0.0225292356 bohr
     new conv_thr            =       0.0000001000 Ry

     new unit-cell volume =    111.52308 a.u.^3 (    16.52602 Ang^3 )
     density =     19.79126 g/cm^3

CELL_PARAMETERS (angstrom)
  -0.000000000   2.021681442   2.021681442
   2.021681442  -0.000000000   2.021681442
   2.021681442   2.021681442  -0.000000000

ATOMIC_POSITIONS (angstrom)
Au            0.0000000000        0.0000000000        0.0000000000



     Writing config-only to output data dir /home/gridsan/epan1/labutil/lab3_samples/problem3/Lab3/Au_a_4.0_ecut_40_nk_5/pwscf.save/
     NEW-OLD atomic charge density approx. for the potential
     extrapolated charge   11.35012, renormalised to   11.00000
     Generating pointlists ...

     total cpu time spent up to now is        1.5 secs

     Self-consistent Calculation

     iteration #  1     ecut=    40.00 Ry     beta= 0.50
     Davidson diagonalization with overlap
     ethr =  1.00E-06,  avg # of iterations =  3.2

     total cpu time spent up to now is        1.6 secs

     total energy              =     -66.86120458 Ry
     estimated scf accuracy    <       0.01800477 Ry

     total magnetization       =     0.00 Bohr mag/cell
     absolute magnetization    =     0.00 Bohr mag/cell

     iteration #  2     ecut=    40.00 Ry     beta= 0.50
     Davidson diagonalization with overlap
     ethr =  1.64E-04,  avg # of iterations =  2.0

     total cpu time spent up to now is        1.7 secs

     total energy              =     -66.88258367 Ry
     estimated scf accuracy    <       0.02277724 Ry

     total magnetization       =     0.00 Bohr mag/cell
     absolute magnetization    =     0.00 Bohr mag/cell

     iteration #  3     ecut=    40.00 Ry     beta= 0.50
     Davidson diagonalization with overlap
     ethr =  1.64E-04,  avg # of iterations =  1.0

     total cpu time spent up to now is        1.8 secs

     total energy              =     -66.88212292 Ry
     estimated scf accuracy    <       0.00546463 Ry

     total magnetization       =     0.00 Bohr mag/cell
     absolute magnetization    =     0.00 Bohr mag/cell

     iteration #  4     ecut=    40.00 Ry     beta= 0.50
     Davidson diagonalization with overlap
     ethr =  4.97E-05,  avg # of iterations =  1.0

     total cpu time spent up to now is        1.9 secs

     total energy              =     -66.88188208 Ry
     estimated scf accuracy    <       0.00146893 Ry

     total magnetization       =     0.00 Bohr mag/cell
     absolute magnetization    =     0.00 Bohr mag/cell

     iteration #  5     ecut=    40.00 Ry     beta= 0.50
     Davidson diagonalization with overlap
     ethr =  1.34E-05,  avg # of iterations =  1.0

     total cpu time spent up to now is        2.0 secs

     total energy              =     -66.88194311 Ry
     estimated scf accuracy    <       0.00026496 Ry

     total magnetization       =     0.00 Bohr mag/cell
     absolute magnetization    =     0.00 Bohr mag/cell

     iteration #  6     ecut=    40.00 Ry     beta= 0.50
     Davidson diagonalization with overlap
     ethr =  2.41E-06,  avg # of iterations =  1.0

     total cpu time spent up to now is        2.1 secs

     total energy              =     -66.88184378 Ry
     estimated scf accuracy    <       0.00017361 Ry

     total magnetization       =     0.00 Bohr mag/cell
     absolute magnetization    =     0.00 Bohr mag/cell

     iteration #  7     ecut=    40.00 Ry     beta= 0.50
     Davidson diagonalization with overlap
     ethr =  1.58E-06,  avg # of iterations =  2.0

     total cpu time spent up to now is        2.2 secs

     total energy              =     -66.88188841 Ry
     estimated scf accuracy    <       0.00000593 Ry

     total magnetization       =     0.00 Bohr mag/cell
     absolute magnetization    =     0.00 Bohr mag/cell

     iteration #  8     ecut=    40.00 Ry     beta= 0.50
     Davidson diagonalization with overlap
     ethr =  5.39E-08,  avg # of iterations =  1.0

     total cpu time spent up to now is        2.2 secs

     total energy              =     -66.88188913 Ry
     estimated scf accuracy    <       0.00000026 Ry

     total magnetization       =     0.00 Bohr mag/cell
     absolute magnetization    =     0.00 Bohr mag/cell

     iteration #  9     ecut=    40.00 Ry     beta= 0.50
     Davidson diagonalization with overlap
     ethr =  2.34E-09,  avg # of iterations =  1.0

     Magnetic moment per site  (integrated on atomic sphere of radius R)
     atom   1 (R=0.413)  charge=  9.2577  magn=  0.0000

     total cpu time spent up to now is        2.3 secs

     End of self-consistent calculation

 ------ SPIN UP ------------


          k = 0.0000 0.0000 0.0000 (   459 PWs)   bands (ev):

     5.9774  11.4380  11.4380  11.4380  13.0421  13.0421  32.6963  36.3526
    36.3526  36.3526

          k = 0.1399 0.1399-0.1399 (   471 PWs)   bands (ev):

     7.2941  11.1837  11.7408  11.7408  13.0444  13.0444  29.7943  33.6877
    36.9282  36.9282

          k = 0.2798 0.2798-0.2798 (   467 PWs)   bands (ev):

     8.6355  11.4748  11.4748  13.5004  14.0707  14.0707  21.7383  32.1200
    34.9939  34.9939

          k = 0.2798 0.0000 0.0000 (   472 PWs)   bands (ev):

     7.7553  10.5982  12.2414  12.3010  12.3010  13.4455  33.0544  33.0544
    33.3787  34.2542

          k = 0.4197 0.1399-0.1399 (   452 PWs)   bands (ev):

     9.3243  10.5969  11.4789  12.4488  14.2341  14.8153  24.7832  31.1656
    31.1924  33.8962

          k =-0.1399-0.4197 0.4197 (   456 PWs)   bands (ev):

     9.5778  10.9006  12.0535  12.1522  14.0104  17.8880  20.3134  28.3451
    32.7429  33.3686

          k = 0.0000-0.2798 0.2798 (   465 PWs)   bands (ev):

     9.0584  10.7761  11.5368  12.3707  12.5450  14.7132  27.0600  29.1358
    34.7891  37.6276

          k = 0.5596 0.0000 0.0000 (   452 PWs)   bands (ev):

     9.0611   9.4433  14.1459  14.2211  14.2211  14.9460  25.1688  27.6896
    27.6896  33.3422

          k = 0.0000-0.5596 0.5596 (   462 PWs)   bands (ev):

     9.3871   9.8915  12.8262  13.6180  14.3631  20.0275  20.9412  24.3334
    28.4791  34.5423

          k =-0.1399-0.4197 0.6995 (   459 PWs)   bands (ev):

    10.1623  10.4304  11.1574  13.1724  14.2069  18.3278  23.4612  24.8031
    27.8955  38.3389

 ------ SPIN DOWN ----------


          k = 0.0000 0.0000 0.0000 (   459 PWs)   bands (ev):

     5.9774  11.4380  11.4380  11.4380  13.0421  13.0421  32.6963  36.3526
    36.3526  36.3526

          k = 0.1399 0.1399-0.1399 (   471 PWs)   bands (ev):

     7.2941  11.1837  11.7409  11.7409  13.0444  13.0444  29.7943  33.6877
    36.9282  36.9282

          k = 0.2798 0.2798-0.2798 (   467 PWs)   bands (ev):

     8.6355  11.4748  11.4748  13.5004  14.0707  14.0707  21.7383  32.1200
    34.9939  34.9939

          k = 0.2798 0.0000 0.0000 (   472 PWs)   bands (ev):

     7.7553  10.5982  12.2414  12.3010  12.3010  13.4455  33.0544  33.0544
    33.3787  34.2542

          k = 0.4197 0.1399-0.1399 (   452 PWs)   bands (ev):

     9.3243  10.5969  11.4789  12.4489  14.2342  14.8153  24.7832  31.1656
    31.1924  33.8962

          k =-0.1399-0.4197 0.4197 (   456 PWs)   bands (ev):

     9.5778  10.9006  12.0535  12.1522  14.0104  17.8880  20.3134  28.3451
    32.7429  33.3686

          k = 0.0000-0.2798 0.2798 (   465 PWs)   bands (ev):

     9.0584  10.7761  11.5368  12.3707  12.5450  14.7132  27.0600  29.1358
    34.7891  37.6277

          k = 0.5596 0.0000 0.0000 (   452 PWs)   bands (ev):

     9.0611   9.4433  14.1459  14.2211  14.2211  14.9460  25.1688  27.6896
    27.6896  33.3422

          k = 0.0000-0.5596 0.5596 (   462 PWs)   bands (ev):

     9.3871   9.8915  12.8262  13.6180  14.3631  20.0275  20.9412  24.3334
    28.4791  34.5423

          k =-0.1399-0.4197 0.6995 (   459 PWs)   bands (ev):

    10.1623  10.4304  11.1574  13.1725  14.2069  18.3279  23.4612  24.8031
    27.8955  38.3389

     the Fermi energy is    15.0051 ev

!    total energy              =     -66.88188908 Ry
     estimated scf accuracy    <       0.00000008 Ry
     smearing contrib. (-TS)   =       0.00000304 Ry
     internal energy E=F+TS    =     -66.88189213 Ry

     The total energy is F=E-TS. E is the sum of the following terms:
     one-electron contribution =       9.06810327 Ry
     hartree contribution      =       7.12366689 Ry
     xc contribution           =     -10.46807236 Ry
     ewald contribution        =     -72.60558993 Ry

     total magnetization       =     0.00 Bohr mag/cell
     absolute magnetization    =     0.00 Bohr mag/cell

     convergence has been achieved in   9 iterations

     Forces acting on atoms (cartesian axes, Ry/au):

     atom    1 type  1   force =     0.00000000    0.00000000    0.00000000
     The non-local contrib.  to forces
     atom    1 type  1   force =     0.00000000   -0.00000000    0.00000000
     The ionic contribution  to forces
     atom    1 type  1   force =    -0.00000000   -0.00000000   -0.00000000
     The local contribution  to forces
     atom    1 type  1   force =     0.00000000    0.00000000    0.00000000
     The core correction contribution to forces
     atom    1 type  1   force =     0.00000000    0.00000000    0.00000000
     The Hubbard contrib.    to forces
     atom    1 type  1   force =     0.00000000    0.00000000    0.00000000
     The SCF correction term to forces
     atom    1 type  1   force =     0.00000000    0.00000000    0.00000000

     Total force =     0.000000     Total SCF correction =     0.000000


     Computing stress (Cartesian axis) and pressure

          total   stress  (Ry/bohr**3)                   (kbar)     P=       -4.47
  -0.00003040  -0.00000000   0.00000000           -4.47       -0.00        0.00
   0.00000000  -0.00003040  -0.00000000            0.00       -4.47       -0.00
  -0.00000000   0.00000000  -0.00003040           -0.00        0.00       -4.47

     Energy error            =      7.3E-04 Ry
     Gradient error          =      0.0E+00 Ry/Bohr
     Cell gradient error     =      4.5E+00 kbar

     number of scf cycles    =   2
     number of bfgs steps    =   1

     enthalpy           old  =     -66.8811588901 Ry
     enthalpy           new  =     -66.8818890847 Ry

     CASE: enthalpy          _new < enthalpy          _old

     new trust radius        =       0.0015140153 bohr
     new conv_thr            =       0.0000000010 Ry

     new unit-cell volume =    111.28343 a.u.^3 (    16.49050 Ang^3 )
     density =     19.83388 g/cm^3

CELL_PARAMETERS (angstrom)
  -0.000000000   2.020232234   2.020232234
   2.020232234  -0.000000000   2.020232234
   2.020232234   2.020232234  -0.000000000

ATOMIC_POSITIONS (angstrom)
Au            0.0000000000        0.0000000000        0.0000000000



     Writing config-only to output data dir /home/gridsan/epan1/labutil/lab3_samples/problem3/Lab3/Au_a_4.0_ecut_40_nk_5/pwscf.save/
     NEW-OLD atomic charge density approx. for the potential
     extrapolated charge   10.97631, renormalised to   11.00000
     Generating pointlists ...

     total cpu time spent up to now is        2.6 secs

     Self-consistent Calculation

     iteration #  1     ecut=    40.00 Ry     beta= 0.50
     Davidson diagonalization with overlap
     ethr =  1.00E-06,  avg # of iterations =  2.0
     Minimization algorithm failed to find Fermi energy: reverting to bisection
     Possible cause: smearing is larger than the electronic band-gap.

     total cpu time spent up to now is        2.7 secs

     total energy              =     -66.88177577 Ry
     estimated scf accuracy    <       0.00010802 Ry

     total magnetization       =     0.00 Bohr mag/cell
     absolute magnetization    =     0.00 Bohr mag/cell

     iteration #  2     ecut=    40.00 Ry     beta= 0.50
     Davidson diagonalization with overlap
     ethr =  9.82E-07,  avg # of iterations =  2.0

     total cpu time spent up to now is        2.8 secs

     total energy              =     -66.88188893 Ry
     estimated scf accuracy    <       0.00013681 Ry

     total magnetization       =     0.00 Bohr mag/cell
     absolute magnetization    =     0.00 Bohr mag/cell

     iteration #  3     ecut=    40.00 Ry     beta= 0.50
     Davidson diagonalization with overlap
     ethr =  9.82E-07,  avg # of iterations =  1.0

     total cpu time spent up to now is        2.9 secs

     total energy              =     -66.88189049 Ry
     estimated scf accuracy    <       0.00002565 Ry

     total magnetization       =     0.00 Bohr mag/cell
     absolute magnetization    =     0.00 Bohr mag/cell

     iteration #  4     ecut=    40.00 Ry     beta= 0.50
     Davidson diagonalization with overlap
     ethr =  2.33E-07,  avg # of iterations =  1.0

     total cpu time spent up to now is        2.9 secs

     total energy              =     -66.88188939 Ry
     estimated scf accuracy    <       0.00000762 Ry

     total magnetization       =     0.00 Bohr mag/cell
     absolute magnetization    =     0.00 Bohr mag/cell

     iteration #  5     ecut=    40.00 Ry     beta= 0.50
     Davidson diagonalization with overlap
     ethr =  6.93E-08,  avg # of iterations =  1.0

     total cpu time spent up to now is        3.0 secs

     total energy              =     -66.88188891 Ry
     estimated scf accuracy    <       0.00000204 Ry

     total magnetization       =     0.00 Bohr mag/cell
     absolute magnetization    =     0.00 Bohr mag/cell

     iteration #  6     ecut=    40.00 Ry     beta= 0.50
     Davidson diagonalization with overlap
     ethr =  1.86E-08,  avg # of iterations =  1.1

     total cpu time spent up to now is        3.1 secs

     total energy              =     -66.88188905 Ry
     estimated scf accuracy    <       0.00000014 Ry

     total magnetization       =     0.00 Bohr mag/cell
     absolute magnetization    =     0.00 Bohr mag/cell

     iteration #  7     ecut=    40.00 Ry     beta= 0.50
     Davidson diagonalization with overlap
     ethr =  1.32E-09,  avg # of iterations =  1.4

     total cpu time spent up to now is        3.2 secs

     total energy              =     -66.88188907 Ry
     estimated scf accuracy    <          1.9E-09 Ry

     total magnetization       =     0.00 Bohr mag/cell
     absolute magnetization    =     0.00 Bohr mag/cell

     iteration #  8     ecut=    40.00 Ry     beta= 0.50
     Davidson diagonalization with overlap
     ethr =  1.73E-11,  avg # of iterations =  1.2

     Magnetic moment per site  (integrated on atomic sphere of radius R)
     atom   1 (R=0.413)  charge=  9.2605  magn=  0.0000

     total cpu time spent up to now is        3.3 secs

     End of self-consistent calculation

 ------ SPIN UP ------------


          k = 0.0000 0.0000 0.0000 (   459 PWs)   bands (ev):

     6.0051  11.4757  11.4757  11.4757  13.0856  13.0856  32.7524  36.4219
    36.4219  36.4219

          k = 0.1400 0.1400-0.1400 (   471 PWs)   bands (ev):

     7.3241  11.2203  11.7795  11.7795  13.0878  13.0878  29.8620  33.7476
    37.0054  37.0054

          k = 0.2800 0.2800-0.2800 (   467 PWs)   bands (ev):

     8.6657  11.5124  11.5124  13.5414  14.1179  14.1179  21.8006  32.1762
    35.0693  35.0693

          k = 0.2800 0.0000 0.0000 (   472 PWs)   bands (ev):

     7.7861  10.6328  12.2817  12.3416  12.3416  13.4905  33.1270  33.1270
    33.4449  34.3198

          k = 0.4200 0.1400-0.1400 (   452 PWs)   bands (ev):

     9.3563  10.6314  11.5166  12.4899  14.2820  14.8634  24.8472  31.2355
    31.2623  33.9668

          k =-0.1400-0.4200 0.4200 (   456 PWs)   bands (ev):

     9.6100  10.9360  12.0923  12.1921  14.0573  17.9417  20.3732  28.4130
    32.8159  33.4330

          k = 0.0000-0.2800 0.2800 (   465 PWs)   bands (ev):

     9.0913  10.8113  11.5744  12.4114  12.5865  14.7623  27.1260  29.2061
    34.8540  37.7101

          k = 0.5600 0.0000 0.0000 (   452 PWs)   bands (ev):

     9.0911   9.4741  14.1935  14.2688  14.2688  14.9908  25.2380  27.7521
    27.7521  33.4141

          k = 0.0000-0.5600 0.5600 (   462 PWs)   bands (ev):

     9.4178   9.9237  12.8679  13.6633  14.4114  20.0822  21.0028  24.3964
    28.5436  34.6164

          k =-0.1400-0.4200 0.7000 (   459 PWs)   bands (ev):

    10.1952  10.4645  11.1939  13.2159  14.2545  18.3838  23.5238  24.8655
    27.9625  38.4136

 ------ SPIN DOWN ----------


          k = 0.0000 0.0000 0.0000 (   459 PWs)   bands (ev):

     6.0051  11.4757  11.4757  11.4757  13.0856  13.0856  32.7524  36.4219
    36.4219  36.4219

          k = 0.1400 0.1400-0.1400 (   471 PWs)   bands (ev):

     7.3241  11.2203  11.7795  11.7795  13.0878  13.0878  29.8620  33.7476
    37.0054  37.0054

          k = 0.2800 0.2800-0.2800 (   467 PWs)   bands (ev):

     8.6657  11.5124  11.5124  13.5414  14.1179  14.1179  21.8006  32.1762
    35.0693  35.0693

          k = 0.2800 0.0000 0.0000 (   472 PWs)   bands (ev):

     7.7861  10.6328  12.2817  12.3416  12.3416  13.4905  33.1270  33.1270
    33.4449  34.3198

          k = 0.4200 0.1400-0.1400 (   452 PWs)   bands (ev):

     9.3563  10.6314  11.5166  12.4899  14.2820  14.8634  24.8472  31.2355
    31.2623  33.9668

          k =-0.1400-0.4200 0.4200 (   456 PWs)   bands (ev):

     9.6100  10.9360  12.0923  12.1921  14.0573  17.9417  20.3732  28.4130
    32.8159  33.4330

          k = 0.0000-0.2800 0.2800 (   465 PWs)   bands (ev):

     9.0913  10.8113  11.5744  12.4114  12.5865  14.7623  27.1260  29.2061
    34.8540  37.7101

          k = 0.5600 0.0000 0.0000 (   452 PWs)   bands (ev):

     9.0911   9.4741  14.1935  14.2688  14.2688  14.9908  25.2380  27.7521
    27.7521  33.4141

          k = 0.0000-0.5600 0.5600 (   462 PWs)   bands (ev):

     9.4178   9.9237  12.8679  13.6633  14.4114  20.0822  21.0028  24.3964
    28.5436  34.6164

          k =-0.1400-0.4200 0.7000 (   459 PWs)   bands (ev):

    10.1952  10.4645  11.1939  13.2159  14.2545  18.3838  23.5238  24.8655
    27.9625  38.4136

     the Fermi energy is    15.0521 ev

!    total energy              =     -66.88188907 Ry
     estimated scf accuracy    <          2.7E-10 Ry
     smearing contrib. (-TS)   =      -0.00000314 Ry
     internal energy E=F+TS    =     -66.88188593 Ry

     The total energy is F=E-TS. E is the sum of the following terms:
     one-electron contribution =       9.14052734 Ry
     hartree contribution      =       7.10532576 Ry
     xc contribution           =     -10.47006570 Ry
     ewald contribution        =     -72.65767333 Ry

     total magnetization       =     0.00 Bohr mag/cell
     absolute magnetization    =     0.00 Bohr mag/cell

     convergence has been achieved in   8 iterations

     Forces acting on atoms (cartesian axes, Ry/au):

     atom    1 type  1   force =     0.00000000    0.00000000    0.00000000
     The non-local contrib.  to forces
     atom    1 type  1   force =     0.00000000    0.00000000    0.00000000
     The ionic contribution  to forces
     atom    1 type  1   force =    -0.00000000   -0.00000000   -0.00000000
     The local contribution  to forces
     atom    1 type  1   force =     0.00000000    0.00000000    0.00000000
     The core correction contribution to forces
     atom    1 type  1   force =     0.00000000    0.00000000    0.00000000
     The Hubbard contrib.    to forces
     atom    1 type  1   force =     0.00000000    0.00000000    0.00000000
     The SCF correction term to forces
     atom    1 type  1   force =     0.00000000    0.00000000    0.00000000

     Total force =     0.000000     Total SCF correction =     0.000000


     Computing stress (Cartesian axis) and pressure

          total   stress  (Ry/bohr**3)                   (kbar)     P=        1.92
   0.00001308   0.00000000   0.00000000            1.92        0.00        0.00
   0.00000000   0.00001308   0.00000000            0.00        1.92        0.00
   0.00000000   0.00000000   0.00001308            0.00        0.00        1.92

     Energy error            =      1.1E-08 Ry
     Gradient error          =      0.0E+00 Ry/Bohr
     Cell gradient error     =      1.9E+00 kbar

     number of scf cycles    =   3
     number of bfgs steps    =   2

     enthalpy           old  =     -66.8818890847 Ry
     enthalpy           new  =     -66.8818890737 Ry

     CASE: enthalpy          _new > enthalpy          _old

     new trust radius        =       0.0007555967 bohr
     new conv_thr            =       0.0000000010 Ry

     new unit-cell volume =    111.40339 a.u.^3 (    16.50828 Ang^3 )
     density =     19.81252 g/cm^3

CELL_PARAMETERS (angstrom)
  -0.000000000   2.020957929   2.020957929
   2.020957929  -0.000000000   2.020957929
   2.020957929   2.020957929  -0.000000000

ATOMIC_POSITIONS (angstrom)
Au            0.0000000000        0.0000000000        0.0000000000



     Writing config-only to output data dir /home/gridsan/epan1/labutil/lab3_samples/problem3/Lab3/Au_a_4.0_ecut_40_nk_5/pwscf.save/
     NEW-OLD atomic charge density approx. for the potential
     extrapolated charge   11.01185, renormalised to   11.00000
     Generating pointlists ...

     total cpu time spent up to now is        3.5 secs

     Self-consistent Calculation

     iteration #  1     ecut=    40.00 Ry     beta= 0.50
     Davidson diagonalization with overlap
     ethr =  1.00E-06,  avg # of iterations =  2.0

     total cpu time spent up to now is        3.6 secs

     total energy              =     -66.88186257 Ry
     estimated scf accuracy    <       0.00002499 Ry

     total magnetization       =     0.00 Bohr mag/cell
     absolute magnetization    =     0.00 Bohr mag/cell

     iteration #  2     ecut=    40.00 Ry     beta= 0.50
     Davidson diagonalization with overlap
     ethr =  2.27E-07,  avg # of iterations =  2.0

     total cpu time spent up to now is        3.7 secs

     total energy              =     -66.88189011 Ry
     estimated scf accuracy    <       0.00003407 Ry

     total magnetization       =    -0.00 Bohr mag/cell
     absolute magnetization    =     0.00 Bohr mag/cell

     iteration #  3     ecut=    40.00 Ry     beta= 0.50
     Davidson diagonalization with overlap
     ethr =  2.27E-07,  avg # of iterations =  1.0

     total cpu time spent up to now is        3.8 secs

     total energy              =     -66.88189025 Ry
     estimated scf accuracy    <       0.00000678 Ry

     total magnetization       =    -0.00 Bohr mag/cell
     absolute magnetization    =     0.00 Bohr mag/cell

     iteration #  4     ecut=    40.00 Ry     beta= 0.50
     Davidson diagonalization with overlap
     ethr =  6.16E-08,  avg # of iterations =  1.0

     total cpu time spent up to now is        3.9 secs

     total energy              =     -66.88188999 Ry
     estimated scf accuracy    <       0.00000191 Ry

     total magnetization       =    -0.00 Bohr mag/cell
     absolute magnetization    =     0.00 Bohr mag/cell

     iteration #  5     ecut=    40.00 Ry     beta= 0.50
     Davidson diagonalization with overlap
     ethr =  1.73E-08,  avg # of iterations =  1.0

     total cpu time spent up to now is        4.0 secs

     total energy              =     -66.88188989 Ry
     estimated scf accuracy    <       0.00000048 Ry

     total magnetization       =    -0.00 Bohr mag/cell
     absolute magnetization    =     0.00 Bohr mag/cell

     iteration #  6     ecut=    40.00 Ry     beta= 0.50
     Davidson diagonalization with overlap
     ethr =  4.36E-09,  avg # of iterations =  1.0

     total cpu time spent up to now is        4.0 secs

     total energy              =     -66.88188992 Ry
     estimated scf accuracy    <       0.00000004 Ry

     total magnetization       =     0.00 Bohr mag/cell
     absolute magnetization    =     0.00 Bohr mag/cell

     iteration #  7     ecut=    40.00 Ry     beta= 0.50
     Davidson diagonalization with overlap
     ethr =  3.50E-10,  avg # of iterations =  1.5

     Magnetic moment per site  (integrated on atomic sphere of radius R)
     atom   1 (R=0.413)  charge=  9.2592  magn= -0.0000

     total cpu time spent up to now is        4.1 secs

     End of self-consistent calculation

 ------ SPIN UP ------------


          k = 0.0000 0.0000 0.0000 (   459 PWs)   bands (ev):

     5.9912  11.4564  11.4564  11.4564  13.0633  13.0633  32.7244  36.3872
    36.3872  36.3872

          k = 0.1400 0.1400-0.1400 (   471 PWs)   bands (ev):

     7.3090  11.2015  11.7597  11.7597  13.0655  13.0655  29.8280  33.7176
    36.9666  36.9666

          k = 0.2799 0.2799-0.2799 (   467 PWs)   bands (ev):

     8.6503  11.4931  11.4931  13.5208  14.0937  14.0937  21.7692  32.1481
    35.0315  35.0315

          k = 0.2799 0.0000 0.0000 (   472 PWs)   bands (ev):

     7.7706  10.6150  12.2610  12.3207  12.3207  13.4674  33.0905  33.0905
    33.4117  34.2869

          k = 0.4199 0.1400-0.1400 (   452 PWs)   bands (ev):

     9.3401  10.6138  11.4974  12.4689  14.2575  14.8389  24.8150  31.2004
    31.2272  33.9314

          k =-0.1400-0.4199 0.4199 (   456 PWs)   bands (ev):

     9.5936  10.9179  12.0725  12.1716  14.0332  17.9145  20.3430  28.3788
    32.7792  33.4008

          k = 0.0000-0.2799 0.2799 (   465 PWs)   bands (ev):

     9.0748  10.7932  11.5552  12.3905  12.5652  14.7372  27.0928  29.1707
    34.8215  37.6686

          k = 0.5598 0.0000 0.0000 (   452 PWs)   bands (ev):

     9.0758   9.4583  14.1690  14.2443  14.2443  14.9683  25.2031  27.7207
    27.7207  33.3779

          k = 0.0000-0.5598 0.5598 (   462 PWs)   bands (ev):

     9.4021   9.9072  12.8466  13.6401  14.3866  20.0546  20.9718  24.3647
    28.5113  34.5791

          k =-0.1400-0.4199 0.6998 (   459 PWs)   bands (ev):

    10.1784  10.4470  11.1753  13.1936  14.2301  18.3555  23.4923  24.8341
    27.9288  38.3762

 ------ SPIN DOWN ----------


          k = 0.0000 0.0000 0.0000 (   459 PWs)   bands (ev):

     5.9912  11.4564  11.4564  11.4564  13.0633  13.0633  32.7244  36.3872
    36.3872  36.3872

          k = 0.1400 0.1400-0.1400 (   471 PWs)   bands (ev):

     7.3090  11.2015  11.7597  11.7597  13.0655  13.0655  29.8280  33.7176
    36.9666  36.9666

          k = 0.2799 0.2799-0.2799 (   467 PWs)   bands (ev):

     8.6503  11.4931  11.4931  13.5208  14.0937  14.0937  21.7692  32.1481
    35.0315  35.0315

          k = 0.2799 0.0000 0.0000 (   472 PWs)   bands (ev):

     7.7706  10.6150  12.2610  12.3207  12.3207  13.4674  33.0905  33.0905
    33.4117  34.2869

          k = 0.4199 0.1400-0.1400 (   452 PWs)   bands (ev):

     9.3401  10.6138  11.4974  12.4689  14.2575  14.8389  24.8150  31.2004
    31.2272  33.9314

          k =-0.1400-0.4199 0.4199 (   456 PWs)   bands (ev):

     9.5936  10.9179  12.0725  12.1716  14.0332  17.9145  20.3430  28.3788
    32.7792  33.4008

          k = 0.0000-0.2799 0.2799 (   465 PWs)   bands (ev):

     9.0748  10.7932  11.5552  12.3905  12.5652  14.7372  27.0928  29.1707
    34.8215  37.6686

          k = 0.5598 0.0000 0.0000 (   452 PWs)   bands (ev):

     9.0758   9.4583  14.1690  14.2443  14.2443  14.9683  25.2031  27.7207
    27.7207  33.3779

          k = 0.0000-0.5598 0.5598 (   462 PWs)   bands (ev):

     9.4021   9.9072  12.8466  13.6401  14.3866  20.0546  20.9718  24.3647
    28.5113  34.5791

          k =-0.1400-0.4199 0.6998 (   459 PWs)   bands (ev):

    10.1784  10.4470  11.1753  13.1936  14.2301  18.3555  23.4923  24.8341
    27.9288  38.3762

     the Fermi energy is    15.0283 ev

!    total energy              =     -66.88188993 Ry
     estimated scf accuracy    <          3.3E-10 Ry
     smearing contrib. (-TS)   =       0.00000046 Ry
     internal energy E=F+TS    =     -66.88189039 Ry

     The total energy is F=E-TS. E is the sum of the following terms:
     one-electron contribution =       9.10385740 Ry
     hartree contribution      =       7.11501960 Ry
     xc contribution           =     -10.46918431 Ry
     ewald contribution        =     -72.63158308 Ry

     total magnetization       =     0.00 Bohr mag/cell
     absolute magnetization    =     0.00 Bohr mag/cell

     convergence has been achieved in   7 iterations

     Forces acting on atoms (cartesian axes, Ry/au):

     atom    1 type  1   force =     0.00000000    0.00000000    0.00000000
     The non-local contrib.  to forces
     atom    1 type  1   force =    -0.00000000   -0.00000000    0.00000000
     The ionic contribution  to forces
     atom    1 type  1   force =    -0.00000000   -0.00000000   -0.00000000
     The local contribution  to forces
     atom    1 type  1   force =     0.00000000    0.00000000    0.00000000
     The core correction contribution to forces
     atom    1 type  1   force =     0.00000000    0.00000000    0.00000000
     The Hubbard contrib.    to forces
     atom    1 type  1   force =     0.00000000    0.00000000    0.00000000
     The SCF correction term to forces
     atom    1 type  1   force =     0.00000000    0.00000000    0.00000000

     Total force =     0.000000     Total SCF correction =     0.000000


     Computing stress (Cartesian axis) and pressure

          total   stress  (Ry/bohr**3)                   (kbar)     P=        0.18
   0.00000123   0.00000000  -0.00000000            0.18        0.00       -0.00
   0.00000000   0.00000123   0.00000000            0.00        0.18        0.00
   0.00000000   0.00000000   0.00000123            0.00        0.00        0.18

     Energy error            =      8.4E-07 Ry
     Gradient error          =      0.0E+00 Ry/Bohr
     Cell gradient error     =      1.8E-01 kbar
Begin final coordinates
     new unit-cell volume =    111.40339 a.u.^3 (    16.50828 Ang^3 )
     density =     19.81252 g/cm^3

CELL_PARAMETERS (angstrom)
  -0.000000000   2.020957929   2.020957929
   2.020957929  -0.000000000   2.020957929
   2.020957929   2.020957929  -0.000000000

ATOMIC_POSITIONS (angstrom)
Au            0.0000000000        0.0000000000        0.0000000000
End final coordinates



     Writing config-only to output data dir /home/gridsan/epan1/labutil/lab3_samples/problem3/Lab3/Au_a_4.0_ecut_40_nk_5/pwscf.save/

     lsda relaxation :  a final configuration with zero
                        absolute magnetization has been found

     the program is checking if it is really the minimum energy structure
     by performing a new scf iteration without any "electronic" history

     Initial potential from superposition of free atoms

     starting charge      10.9999, renormalised to      11.0000

     total cpu time spent up to now is        4.3 secs

     Self-consistent Calculation

     iteration #  1     ecut=    40.00 Ry     beta= 0.50
     Davidson diagonalization with overlap
     ethr =  1.00E-06,  avg # of iterations =  3.8

     total cpu time spent up to now is        4.5 secs

     total energy              =     -66.44450474 Ry
     estimated scf accuracy    <       0.47407265 Ry

     total magnetization       =     1.44 Bohr mag/cell
     absolute magnetization    =     1.46 Bohr mag/cell

     iteration #  2     ecut=    40.00 Ry     beta= 0.50
     Davidson diagonalization with overlap
     ethr =  4.31E-03,  avg # of iterations =  1.5

     total cpu time spent up to now is        4.6 secs

     total energy              =     -66.76256062 Ry
     estimated scf accuracy    <       0.18473665 Ry

     total magnetization       =     0.07 Bohr mag/cell
     absolute magnetization    =     0.49 Bohr mag/cell

     iteration #  3     ecut=    40.00 Ry     beta= 0.50
     Davidson diagonalization with overlap
     ethr =  1.68E-03,  avg # of iterations =  1.0

     total cpu time spent up to now is        4.6 secs

     total energy              =     -66.87127913 Ry
     estimated scf accuracy    <       0.05759099 Ry

     total magnetization       =     0.04 Bohr mag/cell
     absolute magnetization    =     0.35 Bohr mag/cell

     iteration #  4     ecut=    40.00 Ry     beta= 0.50
     Davidson diagonalization with overlap
     ethr =  5.24E-04,  avg # of iterations =  1.5

     total cpu time spent up to now is        4.7 secs

     total energy              =     -66.88032784 Ry
     estimated scf accuracy    <       0.00518112 Ry

     total magnetization       =    -0.06 Bohr mag/cell
     absolute magnetization    =     0.06 Bohr mag/cell

     iteration #  5     ecut=    40.00 Ry     beta= 0.50
     Davidson diagonalization with overlap
     ethr =  4.71E-05,  avg # of iterations =  1.9

     total cpu time spent up to now is        4.8 secs

     total energy              =     -66.88161322 Ry
     estimated scf accuracy    <       0.00024045 Ry

     total magnetization       =    -0.03 Bohr mag/cell
     absolute magnetization    =     0.04 Bohr mag/cell

     iteration #  6     ecut=    40.00 Ry     beta= 0.50
     Davidson diagonalization with overlap
     ethr =  2.19E-06,  avg # of iterations =  1.9

     total cpu time spent up to now is        4.9 secs

     total energy              =     -66.88186241 Ry
     estimated scf accuracy    <       0.00004268 Ry

     total magnetization       =     0.02 Bohr mag/cell
     absolute magnetization    =     0.02 Bohr mag/cell

     iteration #  7     ecut=    40.00 Ry     beta= 0.50
     Davidson diagonalization with overlap
     ethr =  3.88E-07,  avg # of iterations =  1.5

     total cpu time spent up to now is        5.0 secs

     total energy              =     -66.88188633 Ry
     estimated scf accuracy    <       0.00000437 Ry

     total magnetization       =     0.01 Bohr mag/cell
     absolute magnetization    =     0.01 Bohr mag/cell

     iteration #  8     ecut=    40.00 Ry     beta= 0.50
     Davidson diagonalization with overlap
     ethr =  3.98E-08,  avg # of iterations =  1.4

     total cpu time spent up to now is        5.1 secs

     total energy              =     -66.88188991 Ry
     estimated scf accuracy    <          9.8E-09 Ry

     total magnetization       =     0.00 Bohr mag/cell
     absolute magnetization    =     0.00 Bohr mag/cell

     iteration #  9     ecut=    40.00 Ry     beta= 0.50
     Davidson diagonalization with overlap
     ethr =  8.87E-11,  avg # of iterations =  2.0

     total cpu time spent up to now is        5.2 secs

     total energy              =     -66.88188992 Ry
     estimated scf accuracy    <          6.9E-09 Ry

     total magnetization       =    -0.00 Bohr mag/cell
     absolute magnetization    =     0.00 Bohr mag/cell

     iteration # 10     ecut=    40.00 Ry     beta= 0.50
     Davidson diagonalization with overlap
     ethr =  6.23E-11,  avg # of iterations =  1.6

     Magnetic moment per site  (integrated on atomic sphere of radius R)
     atom   1 (R=0.413)  charge=  9.2592  magn=  0.0000

     total cpu time spent up to now is        5.3 secs

     End of self-consistent calculation

 ------ SPIN UP ------------


          k = 0.0000 0.0000 0.0000 (   459 PWs)   bands (ev):

     5.9912  11.4564  11.4564  11.4564  13.0633  13.0633  32.7243  36.3872
    36.3872  36.3872

          k = 0.1400 0.1400-0.1400 (   471 PWs)   bands (ev):

     7.3090  11.2016  11.7597  11.7597  13.0655  13.0655  29.8279  33.7176
    36.9666  36.9666

          k = 0.2799 0.2799-0.2799 (   467 PWs)   bands (ev):

     8.6503  11.4931  11.4931  13.5207  14.0937  14.0937  21.7692  32.1481
    35.0314  35.0314

          k = 0.2799 0.0000 0.0000 (   472 PWs)   bands (ev):

     7.7706  10.6150  12.2610  12.3208  12.3208  13.4675  33.0905  33.0905
    33.4116  34.2868

          k = 0.4199 0.1400-0.1400 (   452 PWs)   bands (ev):

     9.3400  10.6138  11.4974  12.4689  14.2575  14.8389  24.8150  31.2004
    31.2271  33.9313

          k =-0.1400-0.4199 0.4199 (   456 PWs)   bands (ev):

     9.5936  10.9179  12.0725  12.1716  14.0333  17.9145  20.3430  28.3788
    32.7792  33.4007

          k = 0.0000-0.2799 0.2799 (   465 PWs)   bands (ev):

     9.0747  10.7933  11.5552  12.3906  12.5652  14.7372  27.0928  29.1707
    34.8215  37.6686

          k = 0.5598 0.0000 0.0000 (   452 PWs)   bands (ev):

     9.0758   9.4583  14.1691  14.2444  14.2444  14.9682  25.2031  27.7207
    27.7207  33.3779

          k = 0.0000-0.5598 0.5598 (   462 PWs)   bands (ev):

     9.4021   9.9072  12.8466  13.6401  14.3867  20.0546  20.9717  24.3646
    28.5112  34.5791

          k =-0.1400-0.4199 0.6998 (   459 PWs)   bands (ev):

    10.1784  10.4470  11.1753  13.1937  14.2301  18.3555  23.4923  24.8341
    27.9288  38.3761

 ------ SPIN DOWN ----------


          k = 0.0000 0.0000 0.0000 (   459 PWs)   bands (ev):

     5.9913  11.4565  11.4565  11.4565  13.0635  13.0635  32.7244  36.3873
    36.3873  36.3873

          k = 0.1400 0.1400-0.1400 (   471 PWs)   bands (ev):

     7.3091  11.2017  11.7598  11.7598  13.0657  13.0657  29.8281  33.7177
    36.9667  36.9667

          k = 0.2799 0.2799-0.2799 (   467 PWs)   bands (ev):

     8.6504  11.4933  11.4933  13.5208  14.0938  14.0938  21.7693  32.1482
    35.0315  35.0315

          k = 0.2799 0.0000 0.0000 (   472 PWs)   bands (ev):

     7.7707  10.6152  12.2612  12.3209  12.3209  13.4676  33.0906  33.0906
    33.4117  34.2869

          k = 0.4199 0.1400-0.1400 (   452 PWs)   bands (ev):

     9.3402  10.6139  11.4975  12.4690  14.2576  14.8390  24.8151  31.2005
    31.2272  33.9314

          k =-0.1400-0.4199 0.4199 (   456 PWs)   bands (ev):

     9.5937  10.9180  12.0726  12.1718  14.0334  17.9146  20.3431  28.3789
    32.7793  33.4008

          k = 0.0000-0.2799 0.2799 (   465 PWs)   bands (ev):

     9.0748  10.7934  11.5553  12.3907  12.5653  14.7373  27.0929  29.1708
    34.8216  37.6687

          k = 0.5598 0.0000 0.0000 (   452 PWs)   bands (ev):

     9.0759   9.4585  14.1692  14.2445  14.2445  14.9683  25.2032  27.7208
    27.7208  33.3780

          k = 0.0000-0.5598 0.5598 (   462 PWs)   bands (ev):

     9.4022   9.9073  12.8467  13.6402  14.3868  20.0547  20.9718  24.3647
    28.5113  34.5792

          k =-0.1400-0.4199 0.6998 (   459 PWs)   bands (ev):

    10.1785  10.4472  11.1754  13.1938  14.2302  18.3556  23.4924  24.8342
    27.9289  38.3762

     the Fermi energy is    15.0283 ev

!    total energy              =     -66.88188993 Ry
     estimated scf accuracy    <          1.7E-10 Ry
     smearing contrib. (-TS)   =       0.00000037 Ry
     internal energy E=F+TS    =     -66.88189030 Ry

     The total energy is F=E-TS. E is the sum of the following terms:
     one-electron contribution =       9.10392225 Ry
     hartree contribution      =       7.11493532 Ry
     xc contribution           =     -10.46916480 Ry
     ewald contribution        =     -72.63158308 Ry

     total magnetization       =     0.00 Bohr mag/cell
     absolute magnetization    =     0.00 Bohr mag/cell

     convergence has been achieved in  10 iterations

     Forces acting on atoms (cartesian axes, Ry/au):

     atom    1 type  1   force =     0.00000000    0.00000000    0.00000000
     The non-local contrib.  to forces
     atom    1 type  1   force =    -0.00000000   -0.00000000   -0.00000000
     The ionic contribution  to forces
     atom    1 type  1   force =    -0.00000000   -0.00000000   -0.00000000
     The local contribution  to forces
     atom    1 type  1   force =     0.00000000    0.00000000    0.00000000
     The core correction contribution to forces
     atom    1 type  1   force =     0.00000000    0.00000000    0.00000000
     The Hubbard contrib.    to forces
     atom    1 type  1   force =     0.00000000    0.00000000    0.00000000
     The SCF correction term to forces
     atom    1 type  1   force =     0.00000000    0.00000000    0.00000000

     Total force =     0.000000     Total SCF correction =     0.000000


     Computing stress (Cartesian axis) and pressure

          total   stress  (Ry/bohr**3)                   (kbar)     P=       -0.06
  -0.00000040  -0.00000000  -0.00000000           -0.06       -0.00       -0.00
   0.00000000  -0.00000040  -0.00000000            0.00       -0.06       -0.00
  -0.00000000  -0.00000000  -0.00000040           -0.00       -0.00       -0.06

     Energy error            =      8.4E-07 Ry
     Gradient error          =      0.0E+00 Ry/Bohr
     Cell gradient error     =      5.9E-02 kbar

     bfgs converged in   4 scf cycles and   2 bfgs steps
     (criteria: energy <  1.0E-04 Ry, force <  1.0E-03 Ry/Bohr, cell <  5.0E-01 kbar)

     End of BFGS Geometry Optimization

     Final enthalpy           =     -66.8818899264 Ry

     File /home/gridsan/epan1/labutil/lab3_samples/problem3/Lab3/Au_a_4.0_ecut_40_nk_5/pwscf.bfgs deleted, as requested
Begin final coordinates
     new unit-cell volume =    111.40339 a.u.^3 (    16.50828 Ang^3 )
     density =     19.81252 g/cm^3

CELL_PARAMETERS (angstrom)
  -0.000000000   2.020957929   2.020957929
   2.020957929  -0.000000000   2.020957929
   2.020957929   2.020957929  -0.000000000

ATOMIC_POSITIONS (angstrom)
Au            0.0000000000        0.0000000000        0.0000000000
End final coordinates



     Writing config-only to output data dir /home/gridsan/epan1/labutil/lab3_samples/problem3/Lab3/Au_a_4.0_ecut_40_nk_5/pwscf.save/

     Final scf calculation at the relaxed structure.
     The G-vectors are recalculated for the final unit cell
     Results may differ from those at the preceding step.

     Parallelization info
     --------------------
     sticks:   dense  smooth     PW     G-vecs:    dense   smooth      PW
     Min          81      39     13                 1355      479      90
     Max          82      40     14                 1358      484      91
     Sum         649     313    109                10849     3839     725

     Using Slab Decomposition



     bravais-lattice index     =            0
     lattice parameter (alat)  =       5.3450  a.u.
     unit-cell volume          =     111.4034 (a.u.)^3
     number of atoms/cell      =            1
     number of atomic types    =            1
     number of electrons       =        11.00
     number of Kohn-Sham states=           10
     kinetic-energy cutoff     =      40.0000  Ry
     charge density cutoff     =     320.0000  Ry
     scf convergence threshold =      1.0E-09
     mixing beta               =       0.5000
     number of iterations used =            8  plain     mixing
     press convergence thresh. =      5.0E-01
     Exchange-correlation=  SLA  PZ   NOGX NOGC
                           (   1   1   0   0   0   0   0)

     celldm(1)=   5.344953  celldm(2)=   0.000000  celldm(3)=   0.000000
     celldm(4)=   0.000000  celldm(5)=   0.000000  celldm(6)=   0.000000

     crystal axes: (cart. coord. in units of alat)
               a(1) = (  -0.000000   0.714517   0.714517 )  
               a(2) = (   0.714517  -0.000000   0.714517 )  
               a(3) = (   0.714517   0.714517  -0.000000 )  

     reciprocal axes: (cart. coord. in units 2 pi/alat)
               b(1) = ( -0.699774  0.699774  0.699774 )  
               b(2) = (  0.699774 -0.699774  0.699774 )  
               b(3) = (  0.699774  0.699774 -0.699774 )  


     PseudoPot. # 1 for Au read from file:
     /home/gridsan/epan1/labutil/lab3_samples/pseudopotentials/Au.pz-d-rrkjus.UPF
     MD5 check sum: 424ffd4ac9c90487cbadcd287136c95b
     Pseudo is Ultrasoft, Zval = 11.0
     Generated by new atomic code, or converted to UPF format
     Using radial grid of 1279 points,  3 beta functions with: 
                l(1) =   2
                l(2) =   2
                l(3) =   1
     Q(r) pseudized with 0 coefficients 


     atomic species   valence    mass     pseudopotential
        Au            11.00   196.96657     Au( 1.00)

     Starting magnetic structure 
     atomic species   magnetization
        Au           0.000

     48 Sym. Ops., with inversion, found



   Cartesian axes

     site n.     atom                  positions (alat units)
         1           Au  tau(   1) = (   0.0000000   0.0000000   0.0000000  )

     number of k points=    10  Methfessel-Paxton smearing, width (Ry)=  0.0200
                       cart. coord. in units 2pi/alat
        k(    1) = (   0.0000000   0.0000000   0.0000000), wk =   0.0080000
        k(    2) = (   0.1399548   0.1399548  -0.1399548), wk =   0.0640000
        k(    3) = (   0.2799096   0.2799096  -0.2799096), wk =   0.0640000
        k(    4) = (   0.2799096   0.0000000   0.0000000), wk =   0.0480000
        k(    5) = (   0.4198643   0.1399548  -0.1399548), wk =   0.1920000
        k(    6) = (  -0.1399548  -0.4198643   0.4198643), wk =   0.1920000
        k(    7) = (   0.0000000  -0.2799096   0.2799096), wk =   0.0960000
        k(    8) = (   0.5598191   0.0000000   0.0000000), wk =   0.0480000
        k(    9) = (   0.0000000  -0.5598191   0.5598191), wk =   0.0960000
        k(   10) = (  -0.1399548  -0.4198643   0.6997739), wk =   0.1920000

     Dense  grid:    10849 G-vectors     FFT dimensions: (  32,  32,  32)

     Smooth grid:     3839 G-vectors     FFT dimensions: (  24,  24,  24)

     Estimated max dynamical RAM per process >       4.97 MB

     Estimated total dynamical RAM >      39.79 MB
     Generating pointlists ...

     Initial potential from superposition of free atoms

     starting charge      10.9999, renormalised to      11.0000
     Starting wfcs are    9 randomized atomic wfcs +    1 random wfcs

     total cpu time spent up to now is        5.6 secs

     Self-consistent Calculation

     iteration #  1     ecut=    40.00 Ry     beta= 0.50
     Davidson diagonalization with overlap
     ethr =  1.00E-06,  avg # of iterations = 11.8

     total cpu time spent up to now is        5.8 secs

     total energy              =     -66.86305862 Ry
     estimated scf accuracy    <       0.07851363 Ry

     total magnetization       =     0.00 Bohr mag/cell
     absolute magnetization    =     0.00 Bohr mag/cell

     iteration #  2     ecut=    40.00 Ry     beta= 0.50
     Davidson diagonalization with overlap
     ethr =  7.14E-04,  avg # of iterations =  2.0

     total cpu time spent up to now is        5.9 secs

     total energy              =     -66.88145549 Ry
     estimated scf accuracy    <       0.00258695 Ry

     total magnetization       =     0.00 Bohr mag/cell
     absolute magnetization    =     0.00 Bohr mag/cell

     iteration #  3     ecut=    40.00 Ry     beta= 0.50
     Davidson diagonalization with overlap
     ethr =  2.35E-05,  avg # of iterations =  1.5

     total cpu time spent up to now is        6.0 secs

     total energy              =     -66.88191913 Ry
     estimated scf accuracy    <       0.00012375 Ry

     total magnetization       =     0.00 Bohr mag/cell
     absolute magnetization    =     0.00 Bohr mag/cell

     iteration #  4     ecut=    40.00 Ry     beta= 0.50
     Davidson diagonalization with overlap
     ethr =  1.13E-06,  avg # of iterations =  1.6

     total cpu time spent up to now is        6.1 secs

     total energy              =     -66.88192088 Ry
     estimated scf accuracy    <       0.00000071 Ry

     total magnetization       =     0.00 Bohr mag/cell
     absolute magnetization    =     0.00 Bohr mag/cell

     iteration #  5     ecut=    40.00 Ry     beta= 0.50
     Davidson diagonalization with overlap
     ethr =  6.45E-09,  avg # of iterations =  1.6

     total cpu time spent up to now is        6.2 secs

     total energy              =     -66.88192091 Ry
     estimated scf accuracy    <       0.00000002 Ry

     total magnetization       =     0.00 Bohr mag/cell
     absolute magnetization    =     0.00 Bohr mag/cell

     iteration #  6     ecut=    40.00 Ry     beta= 0.50
     Davidson diagonalization with overlap
     ethr =  1.77E-10,  avg # of iterations =  1.8

     Magnetic moment per site  (integrated on atomic sphere of radius R)
     atom   1 (R=0.413)  charge=  9.2592  magn=  0.0000

     total cpu time spent up to now is        6.3 secs

     End of self-consistent calculation

 ------ SPIN UP ------------


          k = 0.0000 0.0000 0.0000 (   531 PWs)   bands (ev):

     5.9913  11.4560  11.4560  11.4560  13.0630  13.0630  32.7243  36.3872
    36.3872  36.3872

          k = 0.1400 0.1400-0.1400 (   483 PWs)   bands (ev):

     7.3091  11.2014  11.7595  11.7595  13.0653  13.0653  29.8279  33.7176
    36.9665  36.9665

          k = 0.2799 0.2799-0.2799 (   477 PWs)   bands (ev):

     8.6503  11.4930  11.4930  13.5208  14.0935  14.0935  21.7691  32.1482
    35.0315  35.0315

          k = 0.2799 0.0000 0.0000 (   480 PWs)   bands (ev):

     7.7707  10.6149  12.2609  12.3206  12.3206  13.4672  33.0905  33.0905
    33.4117  34.2867

          k = 0.4199 0.1400-0.1400 (   475 PWs)   bands (ev):

     9.3400  10.6136  11.4972  12.4686  14.2573  14.8388  24.8149  31.2004
    31.2271  33.9313

          k =-0.1400-0.4199 0.4199 (   471 PWs)   bands (ev):

     9.5935  10.9177  12.0724  12.1714  14.0330  17.9145  20.3429  28.3788
    32.7792  33.4007

          k = 0.0000-0.2799 0.2799 (   475 PWs)   bands (ev):

     9.0748  10.7931  11.5550  12.3903  12.5650  14.7370  27.0928  29.1707
    34.8215  37.6688

          k = 0.5598 0.0000 0.0000 (   468 PWs)   bands (ev):

     9.0757   9.4582  14.1688  14.2441  14.2441  14.9683  25.2031  27.7208
    27.7208  33.3778

          k = 0.0000-0.5598 0.5598 (   474 PWs)   bands (ev):

     9.4020   9.9070  12.8464  13.6399  14.3864  20.0546  20.9717  24.3646
    28.5113  34.5790

          k =-0.1400-0.4199 0.6998 (   481 PWs)   bands (ev):

    10.1783  10.4469  11.1751  13.1934  14.2299  18.3554  23.4923  24.8341
    27.9287  38.3761

 ------ SPIN DOWN ----------


          k = 0.0000 0.0000 0.0000 (   531 PWs)   bands (ev):

     5.9913  11.4560  11.4560  11.4560  13.0630  13.0630  32.7243  36.3872
    36.3872  36.3872

          k = 0.1400 0.1400-0.1400 (   483 PWs)   bands (ev):

     7.3091  11.2014  11.7595  11.7595  13.0653  13.0653  29.8279  33.7176
    36.9665  36.9665

          k = 0.2799 0.2799-0.2799 (   477 PWs)   bands (ev):

     8.6503  11.4930  11.4930  13.5208  14.0935  14.0935  21.7691  32.1482
    35.0315  35.0315

          k = 0.2799 0.0000 0.0000 (   480 PWs)   bands (ev):

     7.7707  10.6149  12.2609  12.3206  12.3206  13.4672  33.0905  33.0905
    33.4117  34.2867

          k = 0.4199 0.1400-0.1400 (   475 PWs)   bands (ev):

     9.3400  10.6136  11.4972  12.4686  14.2573  14.8388  24.8149  31.2004
    31.2271  33.9313

          k =-0.1400-0.4199 0.4199 (   471 PWs)   bands (ev):

     9.5935  10.9177  12.0724  12.1714  14.0330  17.9145  20.3429  28.3788
    32.7792  33.4007

          k = 0.0000-0.2799 0.2799 (   475 PWs)   bands (ev):

     9.0748  10.7931  11.5550  12.3903  12.5650  14.7370  27.0928  29.1707
    34.8215  37.6686

          k = 0.5598 0.0000 0.0000 (   468 PWs)   bands (ev):

     9.0757   9.4582  14.1688  14.2441  14.2441  14.9683  25.2031  27.7208
    27.7208  33.3778

          k = 0.0000-0.5598 0.5598 (   474 PWs)   bands (ev):

     9.4020   9.9070  12.8464  13.6399  14.3864  20.0546  20.9717  24.3646
    28.5113  34.5790

          k =-0.1400-0.4199 0.6998 (   481 PWs)   bands (ev):

    10.1783  10.4469  11.1751  13.1934  14.2299  18.3554  23.4923  24.8341
    27.9287  38.3761

     the Fermi energy is    15.0282 ev

!    total energy              =     -66.88192092 Ry
     estimated scf accuracy    <          8.1E-10 Ry
     smearing contrib. (-TS)   =       0.00000072 Ry
     internal energy E=F+TS    =     -66.88192163 Ry

     The total energy is F=E-TS. E is the sum of the following terms:
     one-electron contribution =       9.10385730 Ry
     hartree contribution      =       7.11495673 Ry
     xc contribution           =     -10.46915259 Ry
     ewald contribution        =     -72.63158308 Ry

     total magnetization       =     0.00 Bohr mag/cell
     absolute magnetization    =     0.00 Bohr mag/cell

     convergence has been achieved in   6 iterations

     Forces acting on atoms (cartesian axes, Ry/au):

     atom    1 type  1   force =     0.00000000    0.00000000    0.00000000
     The non-local contrib.  to forces
     atom    1 type  1   force =     0.00000000    0.00000000    0.00000000
     The ionic contribution  to forces
     atom    1 type  1   force =    -0.00000000   -0.00000000   -0.00000000
     The local contribution  to forces
     atom    1 type  1   force =     0.00000000    0.00000000    0.00000000
     The core correction contribution to forces
     atom    1 type  1   force =     0.00000000    0.00000000    0.00000000
     The Hubbard contrib.    to forces
     atom    1 type  1   force =     0.00000000    0.00000000    0.00000000
     The SCF correction term to forces
     atom    1 type  1   force =     0.00000000    0.00000000    0.00000000

     Total force =     0.000000     Total SCF correction =     0.000000


     Computing stress (Cartesian axis) and pressure

          total   stress  (Ry/bohr**3)                   (kbar)     P=        0.10
   0.00000070   0.00000000   0.00000000            0.10        0.00        0.00
   0.00000000   0.00000070   0.00000000            0.00        0.10        0.00
   0.00000000   0.00000000   0.00000070            0.00        0.00        0.10


     init_run     :      0.52s CPU      0.50s WALL (       2 calls)
     electrons    :      4.61s CPU      4.53s WALL (       6 calls)
     update_pot   :      0.22s CPU      0.21s WALL (       3 calls)
     forces       :      0.27s CPU      0.22s WALL (       6 calls)
     stress       :      0.62s CPU      0.54s WALL (       6 calls)

     Called by init_run:
     wfcinit      :      0.03s CPU      0.04s WALL (       2 calls)
     potinit      :      0.21s CPU      0.19s WALL (       3 calls)
     hinit0       :      0.31s CPU      0.29s WALL (       2 calls)

     Called by electrons:
     c_bands      :      3.47s CPU      3.54s WALL (      48 calls)
     sum_band     :      0.80s CPU      0.71s WALL (      48 calls)
     v_of_rho     :      0.10s CPU      0.08s WALL (      54 calls)
     newd         :      0.16s CPU      0.13s WALL (      54 calls)
     mix_rho      :      0.04s CPU      0.03s WALL (      48 calls)

     Called by c_bands:
     init_us_2    :      0.07s CPU      0.07s WALL (    2200 calls)
     init_us_2:cp :      0.07s CPU      0.06s WALL (    2200 calls)
     cegterg      :      2.99s CPU      2.84s WALL (     960 calls)

     Called by *egterg:
     cdiaghg      :      0.50s CPU      0.48s WALL (    2648 calls)
     h_psi        :      2.07s CPU      1.97s WALL (    2768 calls)
     s_psi        :      0.02s CPU      0.02s WALL (    2768 calls)
     g_psi        :      0.01s CPU      0.01s WALL (    1768 calls)

     Called by h_psi:
     h_psi:calbec :      0.13s CPU      0.12s WALL (    2768 calls)
     vloc_psi     :      1.90s CPU      1.80s WALL (    2768 calls)
     add_vuspsi   :      0.03s CPU      0.02s WALL (    2768 calls)

     General routines
     calbec       :      0.20s CPU      0.18s WALL (    4328 calls)
     fft          :      0.15s CPU      0.14s WALL (     602 calls)
     ffts         :      0.13s CPU      0.13s WALL (     204 calls)
     fftw         :      2.01s CPU      1.91s WALL (   55920 calls)
     interpolate  :      0.13s CPU      0.13s WALL (     108 calls)

     Parallel routines

     PWSCF        :      6.52s CPU      6.43s WALL


   This run was terminated on:  11: 6:19   3Nov2023            

=------------------------------------------------------------------------------=
   JOB DONE.
=------------------------------------------------------------------------------=
