
     Program PWSCF v.7.2 starts on  2Nov2023 at 17:43: 3 

     This program is part of the open-source Quantum ESPRESSO suite
     for quantum simulation of materials; please cite
         "P. Giannozzi et al., J. Phys.:Condens. Matter 21 395502 (2009);
         "P. Giannozzi et al., J. Phys.:Condens. Matter 29 465901 (2017);
         "P. Giannozzi et al., J. Chem. Phys. 152 154105 (2020);
          URL http://www.quantum-espresso.org", 
     in publications or presentations arising from this work. More details at
     http://www.quantum-espresso.org/quote

     Parallel version (MPI), running on     2 processors

     MPI processes distributed on     2 nodes
     187206 MiB available memory on the printing compute node when the environment starts

     Waiting for input...
     Reading input from standard input
Warning: card &CELL ignored
Warning: card / ignored

     Current dimensions of program PWSCF are:
     Max number of different atomic species (ntypx) = 10
     Max number of k-points (npk) =  40000
     Max angular momentum in pseudopotentials (lmaxx) =  4
     file O.pz-rrkjus.UPF: wavefunction(s)  2S renormalized
     Message from routine setup:
     using ibrav=0 with symmetry is DISCOURAGED, use correct ibrav instead

     R & G space division:  proc/nbgrp/npool/nimage =       2
     Subspace diagonalization in iterative solution of the eigenvalue problem:
     a serial algorithm will be used


     Parallelization info
     --------------------
     sticks:   dense  smooth     PW     G-vecs:    dense   smooth      PW
     Min         516     254     74                12418     4366     709
     Max         517     255     75                12419     4367     710
     Sum        1033     509    149                24837     8733    1419

     Using Slab Decomposition



     bravais-lattice index     =            0
     lattice parameter (alat)  =       7.3321  a.u.
     unit-cell volume          =     394.1775 (a.u.)^3
     number of atoms/cell      =            5
     number of atomic types    =            3
     number of electrons       =        44.00
     number of Kohn-Sham states=           22
     kinetic-energy cutoff     =      30.0000  Ry
     charge density cutoff     =     240.0000  Ry
     scf convergence threshold =      1.0E-07
     mixing beta               =       0.7000
     number of iterations used =            8  plain     mixing
     Exchange-correlation= SLA  PZ   NOGX NOGC
                           (   1   1   0   0   0   0   0)

     celldm(1)=   7.332137  celldm(2)=   0.000000  celldm(3)=   0.000000
     celldm(4)=   0.000000  celldm(5)=   0.000000  celldm(6)=   0.000000

     crystal axes: (cart. coord. in units of alat)
               a(1) = (   1.000000   0.000000   0.000000 )  
               a(2) = (   0.000000   1.000000   0.000000 )  
               a(3) = (   0.000000   0.000000   1.000000 )  

     reciprocal axes: (cart. coord. in units 2 pi/alat)
               b(1) = (  1.000000  0.000000  0.000000 )  
               b(2) = (  0.000000  1.000000  0.000000 )  
               b(3) = (  0.000000  0.000000  1.000000 )  


     PseudoPot. # 1 for O  read from file:
     /home/gridsan/epan1/labutil/lab3_samples/pseudopotentials/O.pz-rrkjus.UPF
     MD5 check sum: 24fb942a68ef5d262e498166c462ef4a
     Pseudo is Ultrasoft, Zval =  6.0
     Generated by new atomic code, or converted to UPF format
     Using radial grid of 1269 points,  4 beta functions with: 
                l(1) =   0
                l(2) =   0
                l(3) =   1
                l(4) =   1
     Q(r) pseudized with 0 coefficients 


     PseudoPot. # 2 for Pb read from file:
     /home/gridsan/epan1/labutil/lab3_samples/pseudopotentials/Pb.pz-d-van.UPF
     MD5 check sum: 4e1e5920686a026ae26139ac417581ff
     Pseudo is Ultrasoft, Zval = 14.0
     Generated by new atomic code, or converted to UPF format
     Using radial grid of  899 points,  6 beta functions with: 
                l(1) =   0
                l(2) =   0
                l(3) =   1
                l(4) =   1
                l(5) =   2
                l(6) =   2
     Q(r) pseudized with  8 coefficients,  rinner =    1.000   1.000   1.000
                                                       1.000   1.000

     PseudoPot. # 3 for Ti read from file:
     /home/gridsan/epan1/labutil/lab3_samples/pseudopotentials/Ti.pz-sp-van_ak.UPF
     MD5 check sum: 545d0e6e05332b8871a8093f427cb0ca
     Pseudo is Ultrasoft, Zval = 12.0
     Generated by new atomic code, or converted to UPF format
     Using radial grid of  851 points,  6 beta functions with: 
                l(1) =   0
                l(2) =   0
                l(3) =   1
                l(4) =   1
                l(5) =   2
                l(6) =   2
     Q(r) pseudized with  8 coefficients,  rinner =    1.000   1.000   1.000
                                                       1.000   1.000

     atomic species   valence    mass     pseudopotential
        O              6.00    15.99900     O ( 1.00)
        Pb            14.00   207.20000     Pb( 1.00)
        Ti            12.00    47.86700     Ti( 1.00)

     48 Sym. Ops., with inversion, found



   Cartesian axes

     site n.     atom                  positions (alat units)
         1           Pb  tau(   1) = (   0.0000000   0.0000000   0.0000000  )
         2           Ti  tau(   2) = (   0.5000000   0.5000000   0.5000000  )
         3           O   tau(   3) = (   0.0000000   0.5000000   0.5000000  )
         4           O   tau(   4) = (   0.5000000   0.0000000   0.5000000  )
         5           O   tau(   5) = (   0.5000000   0.5000000   0.0000000  )

     number of k points=     4
                       cart. coord. in units 2pi/alat
        k(    1) = (   0.1250000   0.1250000   0.1250000), wk =   0.2500000
        k(    2) = (   0.1250000   0.1250000   0.3750000), wk =   0.7500000
        k(    3) = (   0.1250000   0.3750000   0.3750000), wk =   0.7500000
        k(    4) = (   0.3750000   0.3750000   0.3750000), wk =   0.2500000

     Dense  grid:    24837 G-vectors     FFT dimensions: (  40,  40,  40)

     Smooth grid:     8733 G-vectors     FFT dimensions: (  25,  25,  25)

     Estimated max dynamical RAM per process >      51.29 MB

     Estimated total dynamical RAM >     102.59 MB

     Initial potential from superposition of free atoms

     starting charge      42.9982, renormalised to      44.0000
     Starting wfcs are   31 randomized atomic wfcs

     total cpu time spent up to now is        1.0 secs

     Self-consistent Calculation

     iteration #  1     ecut=    30.00 Ry     beta= 0.70
     Davidson diagonalization with overlap
     ethr =  1.00E-02,  avg # of iterations =  2.0

     total cpu time spent up to now is        1.2 secs

     total energy              =    -332.61407868 Ry
     estimated scf accuracy    <       1.10291749 Ry

     iteration #  2     ecut=    30.00 Ry     beta= 0.70
     Davidson diagonalization with overlap
     ethr =  2.51E-03,  avg # of iterations =  6.8

     total cpu time spent up to now is        1.5 secs

     total energy              =    -332.32825501 Ry
     estimated scf accuracy    <       4.49216503 Ry

     iteration #  3     ecut=    30.00 Ry     beta= 0.70
     Davidson diagonalization with overlap
     ethr =  2.51E-03,  avg # of iterations =  6.0

     total cpu time spent up to now is        1.8 secs

     total energy              =    -333.15826082 Ry
     estimated scf accuracy    <       0.24393420 Ry

     iteration #  4     ecut=    30.00 Ry     beta= 0.70
     Davidson diagonalization with overlap
     ethr =  5.54E-04,  avg # of iterations =  2.2

     total cpu time spent up to now is        2.1 secs

     total energy              =    -333.15255218 Ry
     estimated scf accuracy    <       0.07026628 Ry

     iteration #  5     ecut=    30.00 Ry     beta= 0.70
     Davidson diagonalization with overlap
     ethr =  1.60E-04,  avg # of iterations =  5.5

     total cpu time spent up to now is        2.3 secs

     total energy              =    -333.18267677 Ry
     estimated scf accuracy    <       0.02530407 Ry

     iteration #  6     ecut=    30.00 Ry     beta= 0.70
     Davidson diagonalization with overlap
     ethr =  5.75E-05,  avg # of iterations =  3.0

     total cpu time spent up to now is        2.6 secs

     total energy              =    -333.18219050 Ry
     estimated scf accuracy    <       0.00727405 Ry

     iteration #  7     ecut=    30.00 Ry     beta= 0.70
     Davidson diagonalization with overlap
     ethr =  1.65E-05,  avg # of iterations =  4.2

     total cpu time spent up to now is        2.8 secs

     total energy              =    -333.18455764 Ry
     estimated scf accuracy    <       0.00032638 Ry

     iteration #  8     ecut=    30.00 Ry     beta= 0.70
     Davidson diagonalization with overlap
     ethr =  7.42E-07,  avg # of iterations =  3.5

     total cpu time spent up to now is        3.1 secs

     total energy              =    -333.18451024 Ry
     estimated scf accuracy    <       0.00035776 Ry

     iteration #  9     ecut=    30.00 Ry     beta= 0.70
     Davidson diagonalization with overlap
     ethr =  7.42E-07,  avg # of iterations =  2.8

     total cpu time spent up to now is        3.3 secs

     total energy              =    -333.18448549 Ry
     estimated scf accuracy    <       0.00010026 Ry

     iteration # 10     ecut=    30.00 Ry     beta= 0.70
     Davidson diagonalization with overlap
     ethr =  2.28E-07,  avg # of iterations =  4.8

     total cpu time spent up to now is        3.6 secs

     total energy              =    -333.18453549 Ry
     estimated scf accuracy    <       0.00003352 Ry

     iteration # 11     ecut=    30.00 Ry     beta= 0.70
     Davidson diagonalization with overlap
     ethr =  7.62E-08,  avg # of iterations =  1.0

     total cpu time spent up to now is        3.8 secs

     total energy              =    -333.18452921 Ry
     estimated scf accuracy    <       0.00002605 Ry

     iteration # 12     ecut=    30.00 Ry     beta= 0.70
     Davidson diagonalization with overlap
     ethr =  5.92E-08,  avg # of iterations =  2.2

     total cpu time spent up to now is        4.0 secs

     total energy              =    -333.18452884 Ry
     estimated scf accuracy    <       0.00000620 Ry

     iteration # 13     ecut=    30.00 Ry     beta= 0.70
     Davidson diagonalization with overlap
     ethr =  1.41E-08,  avg # of iterations =  5.0

     total cpu time spent up to now is        4.3 secs

     total energy              =    -333.18453118 Ry
     estimated scf accuracy    <       0.00000142 Ry

     iteration # 14     ecut=    30.00 Ry     beta= 0.70
     Davidson diagonalization with overlap
     ethr =  3.22E-09,  avg # of iterations =  2.5

     total cpu time spent up to now is        4.5 secs

     total energy              =    -333.18453107 Ry
     estimated scf accuracy    <       0.00000044 Ry

     iteration # 15     ecut=    30.00 Ry     beta= 0.70
     Davidson diagonalization with overlap
     ethr =  1.00E-09,  avg # of iterations =  5.5

     total cpu time spent up to now is        4.8 secs

     total energy              =    -333.18453128 Ry
     estimated scf accuracy    <       0.00000026 Ry

     iteration # 16     ecut=    30.00 Ry     beta= 0.70
     Davidson diagonalization with overlap
     ethr =  5.96E-10,  avg # of iterations =  2.5

     total cpu time spent up to now is        5.0 secs

     End of self-consistent calculation

          k = 0.1250 0.1250 0.1250 (  1096 PWs)   bands (ev):

   -44.7376 -21.3424 -21.3411 -21.3411  -6.3714  -5.3023  -5.3023  -4.0220
    -4.0220  -4.0083  -3.8409  -3.8409   4.6081   7.2643   7.2643   8.0306
     9.1010   9.1010   9.8536   9.9213   9.9213  10.0514

          k = 0.1250 0.1250 0.3750 (  1095 PWs)   bands (ev):

   -44.7364 -21.3981 -21.3397 -21.3388  -5.9644  -5.1828  -5.1314  -4.0827
    -4.0171  -4.0048  -3.9389  -3.8103   3.8801   6.7947   7.3025   7.8071
     8.4048   8.7037   9.3404   9.9048  10.0658  10.8090

          k = 0.1250 0.3750 0.3750 (  1093 PWs)   bands (ev):

   -44.7352 -21.3952 -21.3944 -21.3373  -5.7507  -5.0541  -4.9853  -4.0563
    -4.0131  -3.9591  -3.8708  -3.7213   3.5145   6.7667   6.7975   7.1484
     7.4569   8.6256   9.4059   9.4396   9.9874  10.6825

          k = 0.3750 0.3750 0.3750 (  1082 PWs)   bands (ev):

   -44.7339 -21.3924 -21.3920 -21.3920  -5.3515  -5.1803  -5.1803  -3.9689
    -3.9689  -3.6799  -3.6131  -3.6131   4.1317   5.9169   5.9169   6.6675
     6.9865   6.9865   7.9328  10.6373  10.6373  10.7137

     highest occupied level (ev):    10.8090

!    total energy              =    -333.18453123 Ry
     estimated scf accuracy    <       0.00000007 Ry

     The total energy is the sum of the following terms:
     one-electron contribution =     -76.93326104 Ry
     hartree contribution      =      66.34642472 Ry
     xc contribution           =     -49.63253943 Ry
     ewald contribution        =    -272.96515547 Ry

     convergence has been achieved in  16 iterations

     Forces acting on atoms (cartesian axes, Ry/au):

     atom    1 type  2   force =     0.00000000    0.00000000    0.00000000
     atom    2 type  3   force =     0.00000000    0.00000000    0.00000000
     atom    3 type  1   force =     0.00000000    0.00000000    0.00000000
     atom    4 type  1   force =     0.00000000    0.00000000    0.00000000
     atom    5 type  1   force =     0.00000000    0.00000000    0.00000000
     The non-local contrib.  to forces
     atom    1 type  2   force =     0.00000000    0.00000000    0.00000000
     atom    2 type  3   force =     0.00000000    0.00000000    0.00000000
     atom    3 type  1   force =     0.00000000    0.00000000    0.00000000
     atom    4 type  1   force =     0.00000000    0.00000000    0.00000000
     atom    5 type  1   force =     0.00000000    0.00000000    0.00000000
     The ionic contribution  to forces
     atom    1 type  2   force =     0.00000000    0.00000000    0.00000000
     atom    2 type  3   force =     0.00000000    0.00000000    0.00000000
     atom    3 type  1   force =     0.00000000   -0.00000000   -0.00000000
     atom    4 type  1   force =    -0.00000000    0.00000000   -0.00000000
     atom    5 type  1   force =    -0.00000000   -0.00000000    0.00000000
     The local contribution  to forces
     atom    1 type  2   force =     0.00000000   -0.00000000    0.00000000
     atom    2 type  3   force =    -0.00000000   -0.00000000   -0.00000000
     atom    3 type  1   force =     0.00000000   -0.00000000   -0.00000000
     atom    4 type  1   force =    -0.00000000    0.00000000   -0.00000000
     atom    5 type  1   force =    -0.00000000   -0.00000000    0.00000000
     The core correction contribution to forces
     atom    1 type  2   force =     0.00000000    0.00000000    0.00000000
     atom    2 type  3   force =     0.00000000    0.00000000    0.00000000
     atom    3 type  1   force =     0.00000000    0.00000000    0.00000000
     atom    4 type  1   force =     0.00000000    0.00000000    0.00000000
     atom    5 type  1   force =     0.00000000    0.00000000    0.00000000
     The Hubbard contrib.    to forces
     atom    1 type  2   force =     0.00000000    0.00000000    0.00000000
     atom    2 type  3   force =     0.00000000    0.00000000    0.00000000
     atom    3 type  1   force =     0.00000000    0.00000000    0.00000000
     atom    4 type  1   force =     0.00000000    0.00000000    0.00000000
     atom    5 type  1   force =     0.00000000    0.00000000    0.00000000
     The SCF correction term to forces
     atom    1 type  2   force =    -0.00000000    0.00000000   -0.00000000
     atom    2 type  3   force =    -0.00000000    0.00000000    0.00000000
     atom    3 type  1   force =     0.00000000   -0.00000000    0.00000000
     atom    4 type  1   force =     0.00000000   -0.00000000   -0.00000000
     atom    5 type  1   force =     0.00000000    0.00000000    0.00000000

     Total force =     0.000000     Total SCF correction =     0.000000


     Computing stress (Cartesian axis) and pressure

          total   stress  (Ry/bohr**3)                   (kbar)     P=      -22.86
  -0.00015538   0.00000000   0.00000000          -22.86        0.00        0.00
   0.00000000  -0.00015538   0.00000000            0.00      -22.86        0.00
   0.00000000   0.00000000  -0.00015538            0.00        0.00      -22.86


     init_run     :      0.71s CPU      0.68s WALL (       1 calls)
     electrons    :      5.00s CPU      3.99s WALL (       1 calls)
     forces       :      0.14s CPU      0.10s WALL (       1 calls)
     stress       :      0.97s CPU      0.81s WALL (       1 calls)

     Called by init_run:
     wfcinit      :      0.06s CPU      0.05s WALL (       1 calls)
     potinit      :      0.04s CPU      0.05s WALL (       1 calls)
     hinit0       :      0.46s CPU      0.46s WALL (       1 calls)

     Called by electrons:
     c_bands      :      2.16s CPU      1.67s WALL (      16 calls)
     sum_band     :      1.60s CPU      1.36s WALL (      16 calls)
     v_of_rho     :      0.06s CPU      0.05s WALL (      17 calls)
     newd         :      1.17s CPU      0.90s WALL (      17 calls)
     mix_rho      :      0.05s CPU      0.04s WALL (      16 calls)

     Called by c_bands:
     init_us_2    :      0.08s CPU      0.06s WALL (     140 calls)
     init_us_2:cp :      0.08s CPU      0.06s WALL (     140 calls)
     cegterg      :      1.98s CPU      1.51s WALL (      64 calls)

     Called by *egterg:
     cdiaghg      :      0.33s CPU      0.25s WALL (     302 calls)
     h_psi        :      1.38s CPU      1.07s WALL (     306 calls)
     s_psi        :      0.06s CPU      0.04s WALL (     306 calls)
     g_psi        :      0.01s CPU      0.01s WALL (     238 calls)

     Called by h_psi:
     h_psi:calbec :      0.08s CPU      0.06s WALL (     306 calls)
     vloc_psi     :      1.24s CPU      0.95s WALL (     306 calls)
     add_vuspsi   :      0.06s CPU      0.05s WALL (     306 calls)

     General routines
     calbec       :      0.11s CPU      0.09s WALL (     390 calls)
     fft          :      0.25s CPU      0.23s WALL (     105 calls)
     ffts         :      0.04s CPU      0.04s WALL (      33 calls)
     fftw         :      1.18s CPU      0.92s WALL (    9172 calls)
     interpolate  :      0.05s CPU      0.05s WALL (      17 calls)

     Parallel routines

     PWSCF        :      7.12s CPU      5.93s WALL


   This run was terminated on:  17:43: 9   2Nov2023            

=------------------------------------------------------------------------------=
   JOB DONE.
=------------------------------------------------------------------------------=
