
     Program PWSCF v.7.2 starts on  2Nov2023 at 17:42:58 

     This program is part of the open-source Quantum ESPRESSO suite
     for quantum simulation of materials; please cite
         "P. Giannozzi et al., J. Phys.:Condens. Matter 21 395502 (2009);
         "P. Giannozzi et al., J. Phys.:Condens. Matter 29 465901 (2017);
         "P. Giannozzi et al., J. Chem. Phys. 152 154105 (2020);
          URL http://www.quantum-espresso.org", 
     in publications or presentations arising from this work. More details at
     http://www.quantum-espresso.org/quote

     Parallel version (MPI), running on     2 processors

     MPI processes distributed on     2 nodes
     187208 MiB available memory on the printing compute node when the environment starts

     Waiting for input...
     Reading input from standard input
Warning: card &CELL ignored
Warning: card / ignored

     Current dimensions of program PWSCF are:
     Max number of different atomic species (ntypx) = 10
     Max number of k-points (npk) =  40000
     Max angular momentum in pseudopotentials (lmaxx) =  4
     file O.pz-rrkjus.UPF: wavefunction(s)  2S renormalized
     Message from routine setup:
     using ibrav=0 with symmetry is DISCOURAGED, use correct ibrav instead

     R & G space division:  proc/nbgrp/npool/nimage =       2
     Subspace diagonalization in iterative solution of the eigenvalue problem:
     a serial algorithm will be used


     Parallelization info
     --------------------
     sticks:   dense  smooth     PW     G-vecs:    dense   smooth      PW
     Min         502     252     74                12150     4300     709
     Max         503     253     75                12153     4301     710
     Sum        1005     505    149                24303     8601    1419

     Using Slab Decomposition



     bravais-lattice index     =            0
     lattice parameter (alat)  =       7.2943  a.u.
     unit-cell volume          =     388.1133 (a.u.)^3
     number of atoms/cell      =            5
     number of atomic types    =            3
     number of electrons       =        44.00
     number of Kohn-Sham states=           22
     kinetic-energy cutoff     =      30.0000  Ry
     charge density cutoff     =     240.0000  Ry
     scf convergence threshold =      1.0E-07
     mixing beta               =       0.7000
     number of iterations used =            8  plain     mixing
     Exchange-correlation= SLA  PZ   NOGX NOGC
                           (   1   1   0   0   0   0   0)

     celldm(1)=   7.294343  celldm(2)=   0.000000  celldm(3)=   0.000000
     celldm(4)=   0.000000  celldm(5)=   0.000000  celldm(6)=   0.000000

     crystal axes: (cart. coord. in units of alat)
               a(1) = (   1.000000   0.000000   0.000000 )  
               a(2) = (   0.000000   1.000000   0.000000 )  
               a(3) = (   0.000000   0.000000   1.000000 )  

     reciprocal axes: (cart. coord. in units 2 pi/alat)
               b(1) = (  1.000000  0.000000  0.000000 )  
               b(2) = (  0.000000  1.000000  0.000000 )  
               b(3) = (  0.000000  0.000000  1.000000 )  


     PseudoPot. # 1 for O  read from file:
     /home/gridsan/epan1/labutil/lab3_samples/pseudopotentials/O.pz-rrkjus.UPF
     MD5 check sum: 24fb942a68ef5d262e498166c462ef4a
     Pseudo is Ultrasoft, Zval =  6.0
     Generated by new atomic code, or converted to UPF format
     Using radial grid of 1269 points,  4 beta functions with: 
                l(1) =   0
                l(2) =   0
                l(3) =   1
                l(4) =   1
     Q(r) pseudized with 0 coefficients 


     PseudoPot. # 2 for Pb read from file:
     /home/gridsan/epan1/labutil/lab3_samples/pseudopotentials/Pb.pz-d-van.UPF
     MD5 check sum: 4e1e5920686a026ae26139ac417581ff
     Pseudo is Ultrasoft, Zval = 14.0
     Generated by new atomic code, or converted to UPF format
     Using radial grid of  899 points,  6 beta functions with: 
                l(1) =   0
                l(2) =   0
                l(3) =   1
                l(4) =   1
                l(5) =   2
                l(6) =   2
     Q(r) pseudized with  8 coefficients,  rinner =    1.000   1.000   1.000
                                                       1.000   1.000

     PseudoPot. # 3 for Ti read from file:
     /home/gridsan/epan1/labutil/lab3_samples/pseudopotentials/Ti.pz-sp-van_ak.UPF
     MD5 check sum: 545d0e6e05332b8871a8093f427cb0ca
     Pseudo is Ultrasoft, Zval = 12.0
     Generated by new atomic code, or converted to UPF format
     Using radial grid of  851 points,  6 beta functions with: 
                l(1) =   0
                l(2) =   0
                l(3) =   1
                l(4) =   1
                l(5) =   2
                l(6) =   2
     Q(r) pseudized with  8 coefficients,  rinner =    1.000   1.000   1.000
                                                       1.000   1.000

     atomic species   valence    mass     pseudopotential
        O              6.00    15.99900     O ( 1.00)
        Pb            14.00   207.20000     Pb( 1.00)
        Ti            12.00    47.86700     Ti( 1.00)

     48 Sym. Ops., with inversion, found



   Cartesian axes

     site n.     atom                  positions (alat units)
         1           Pb  tau(   1) = (   0.0000000   0.0000000   0.0000000  )
         2           Ti  tau(   2) = (   0.5000000   0.5000000   0.5000000  )
         3           O   tau(   3) = (   0.0000000   0.5000000   0.5000000  )
         4           O   tau(   4) = (   0.5000000   0.0000000   0.5000000  )
         5           O   tau(   5) = (   0.5000000   0.5000000   0.0000000  )

     number of k points=     4
                       cart. coord. in units 2pi/alat
        k(    1) = (   0.1250000   0.1250000   0.1250000), wk =   0.2500000
        k(    2) = (   0.1250000   0.1250000   0.3750000), wk =   0.7500000
        k(    3) = (   0.1250000   0.3750000   0.3750000), wk =   0.7500000
        k(    4) = (   0.3750000   0.3750000   0.3750000), wk =   0.2500000

     Dense  grid:    24303 G-vectors     FFT dimensions: (  36,  36,  36)

     Smooth grid:     8601 G-vectors     FFT dimensions: (  25,  25,  25)

     Estimated max dynamical RAM per process >      49.74 MB

     Estimated total dynamical RAM >      99.48 MB

     Initial potential from superposition of free atoms

     starting charge      42.9982, renormalised to      44.0000
     Starting wfcs are   31 randomized atomic wfcs

     total cpu time spent up to now is        1.0 secs

     Self-consistent Calculation

     iteration #  1     ecut=    30.00 Ry     beta= 0.70
     Davidson diagonalization with overlap
     ethr =  1.00E-02,  avg # of iterations =  2.0

     total cpu time spent up to now is        1.2 secs

     total energy              =    -332.61490813 Ry
     estimated scf accuracy    <       1.10228517 Ry

     iteration #  2     ecut=    30.00 Ry     beta= 0.70
     Davidson diagonalization with overlap
     ethr =  2.51E-03,  avg # of iterations =  6.5

     total cpu time spent up to now is        1.5 secs

     total energy              =    -332.37488269 Ry
     estimated scf accuracy    <       4.18144448 Ry

     iteration #  3     ecut=    30.00 Ry     beta= 0.70
     Davidson diagonalization with overlap
     ethr =  2.51E-03,  avg # of iterations =  5.5

     total cpu time spent up to now is        1.7 secs

     total energy              =    -333.15924350 Ry
     estimated scf accuracy    <       0.21441932 Ry

     iteration #  4     ecut=    30.00 Ry     beta= 0.70
     Davidson diagonalization with overlap
     ethr =  4.87E-04,  avg # of iterations =  2.0

     total cpu time spent up to now is        1.9 secs

     total energy              =    -333.15700307 Ry
     estimated scf accuracy    <       0.05789402 Ry

     iteration #  5     ecut=    30.00 Ry     beta= 0.70
     Davidson diagonalization with overlap
     ethr =  1.32E-04,  avg # of iterations =  5.2

     total cpu time spent up to now is        2.2 secs

     total energy              =    -333.18277554 Ry
     estimated scf accuracy    <       0.02021705 Ry

     iteration #  6     ecut=    30.00 Ry     beta= 0.70
     Davidson diagonalization with overlap
     ethr =  4.59E-05,  avg # of iterations =  2.5

     total cpu time spent up to now is        2.4 secs

     total energy              =    -333.18187316 Ry
     estimated scf accuracy    <       0.00638056 Ry

     iteration #  7     ecut=    30.00 Ry     beta= 0.70
     Davidson diagonalization with overlap
     ethr =  1.45E-05,  avg # of iterations =  4.8

     total cpu time spent up to now is        2.6 secs

     total energy              =    -333.18414266 Ry
     estimated scf accuracy    <       0.00060075 Ry

     iteration #  8     ecut=    30.00 Ry     beta= 0.70
     Davidson diagonalization with overlap
     ethr =  1.37E-06,  avg # of iterations =  1.8

     total cpu time spent up to now is        2.8 secs

     total energy              =    -333.18402303 Ry
     estimated scf accuracy    <       0.00046696 Ry

     iteration #  9     ecut=    30.00 Ry     beta= 0.70
     Davidson diagonalization with overlap
     ethr =  1.06E-06,  avg # of iterations =  4.2

     total cpu time spent up to now is        3.0 secs

     total energy              =    -333.18405081 Ry
     estimated scf accuracy    <       0.00006032 Ry

     iteration # 10     ecut=    30.00 Ry     beta= 0.70
     Davidson diagonalization with overlap
     ethr =  1.37E-07,  avg # of iterations =  4.8

     total cpu time spent up to now is        3.3 secs

     total energy              =    -333.18408556 Ry
     estimated scf accuracy    <       0.00001813 Ry

     iteration # 11     ecut=    30.00 Ry     beta= 0.70
     Davidson diagonalization with overlap
     ethr =  4.12E-08,  avg # of iterations =  1.0

     total cpu time spent up to now is        3.5 secs

     total energy              =    -333.18407989 Ry
     estimated scf accuracy    <       0.00001359 Ry

     iteration # 12     ecut=    30.00 Ry     beta= 0.70
     Davidson diagonalization with overlap
     ethr =  3.09E-08,  avg # of iterations =  5.0

     total cpu time spent up to now is        3.7 secs

     total energy              =    -333.18408372 Ry
     estimated scf accuracy    <       0.00000124 Ry

     iteration # 13     ecut=    30.00 Ry     beta= 0.70
     Davidson diagonalization with overlap
     ethr =  2.82E-09,  avg # of iterations =  3.0

     total cpu time spent up to now is        3.9 secs

     total energy              =    -333.18408317 Ry
     estimated scf accuracy    <       0.00000119 Ry

     iteration # 14     ecut=    30.00 Ry     beta= 0.70
     Davidson diagonalization with overlap
     ethr =  2.70E-09,  avg # of iterations =  4.8

     total cpu time spent up to now is        4.1 secs

     total energy              =    -333.18408355 Ry
     estimated scf accuracy    <       0.00000044 Ry

     iteration # 15     ecut=    30.00 Ry     beta= 0.70
     Davidson diagonalization with overlap
     ethr =  9.98E-10,  avg # of iterations =  3.5

     total cpu time spent up to now is        4.4 secs

     End of self-consistent calculation

          k = 0.1250 0.1250 0.1250 (  1084 PWs)   bands (ev):

   -44.4205 -21.0399 -21.0386 -21.0386  -6.1927  -5.0944  -5.0944  -3.7364
    -3.7364  -3.7219  -3.5532  -3.5532   4.8590   7.4679   7.4679   8.2892
     9.3218   9.3218  10.0756  10.1629  10.1629  10.3085

          k = 0.1250 0.1250 0.3750 (  1079 PWs)   bands (ev):

   -44.4191 -21.0999 -21.0366 -21.0362  -5.7729  -4.9722  -4.9098  -3.8009
    -3.7316  -3.7194  -3.6539  -3.5190   4.1033   7.0024   7.4884   8.0261
     8.6389   8.9181   9.5856  10.1308  10.3058  11.1013

          k = 0.1250 0.3750 0.3750 (  1077 PWs)   bands (ev):

   -44.4177 -21.0970 -21.0957 -21.0342  -5.5512  -4.8292  -4.7570  -3.7731
    -3.7279  -3.6737  -3.5811  -3.4297   3.7142   6.9843   6.9899   7.3364
     7.6496   8.8724   9.6459   9.6627  10.2671  10.9260

          k = 0.3750 0.3750 0.3750 (  1070 PWs)   bands (ev):

   -44.4164 -21.0940 -21.0933 -21.0933  -5.1309  -4.9539  -4.9539  -3.6800
    -3.6800  -3.3869  -3.3187  -3.3187   4.3373   6.0752   6.0752   6.8962
     7.1870   7.1870   8.1894  10.8808  10.8808  10.9553

     highest occupied level (ev):    11.1013

!    total energy              =    -333.18408357 Ry
     estimated scf accuracy    <       0.00000003 Ry

     The total energy is the sum of the following terms:
     one-electron contribution =     -74.87689277 Ry
     hartree contribution      =      65.76449665 Ry
     xc contribution           =     -49.69220475 Ry
     ewald contribution        =    -274.37948270 Ry

     convergence has been achieved in  15 iterations

     Forces acting on atoms (cartesian axes, Ry/au):

     atom    1 type  2   force =     0.00000000    0.00000000    0.00000000
     atom    2 type  3   force =     0.00000000    0.00000000    0.00000000
     atom    3 type  1   force =     0.00000000    0.00000000    0.00000000
     atom    4 type  1   force =     0.00000000    0.00000000    0.00000000
     atom    5 type  1   force =     0.00000000    0.00000000    0.00000000
     The non-local contrib.  to forces
     atom    1 type  2   force =     0.00000000    0.00000000    0.00000000
     atom    2 type  3   force =     0.00000000    0.00000000    0.00000000
     atom    3 type  1   force =     0.00000000    0.00000000    0.00000000
     atom    4 type  1   force =     0.00000000    0.00000000    0.00000000
     atom    5 type  1   force =     0.00000000    0.00000000    0.00000000
     The ionic contribution  to forces
     atom    1 type  2   force =    -0.00000000   -0.00000000   -0.00000000
     atom    2 type  3   force =     0.00000000    0.00000000    0.00000000
     atom    3 type  1   force =    -0.00000000    0.00000000    0.00000000
     atom    4 type  1   force =     0.00000000   -0.00000000    0.00000000
     atom    5 type  1   force =     0.00000000    0.00000000   -0.00000000
     The local contribution  to forces
     atom    1 type  2   force =     0.00000000    0.00000000    0.00000000
     atom    2 type  3   force =     0.00000000    0.00000000    0.00000000
     atom    3 type  1   force =     0.00000000    0.00000000    0.00000000
     atom    4 type  1   force =     0.00000000   -0.00000000    0.00000000
     atom    5 type  1   force =     0.00000000    0.00000000    0.00000000
     The core correction contribution to forces
     atom    1 type  2   force =     0.00000000    0.00000000    0.00000000
     atom    2 type  3   force =     0.00000000    0.00000000    0.00000000
     atom    3 type  1   force =     0.00000000    0.00000000    0.00000000
     atom    4 type  1   force =     0.00000000    0.00000000    0.00000000
     atom    5 type  1   force =     0.00000000    0.00000000    0.00000000
     The Hubbard contrib.    to forces
     atom    1 type  2   force =     0.00000000    0.00000000    0.00000000
     atom    2 type  3   force =     0.00000000    0.00000000    0.00000000
     atom    3 type  1   force =     0.00000000    0.00000000    0.00000000
     atom    4 type  1   force =     0.00000000    0.00000000    0.00000000
     atom    5 type  1   force =     0.00000000    0.00000000    0.00000000
     The SCF correction term to forces
     atom    1 type  2   force =     0.00000000   -0.00000000    0.00000000
     atom    2 type  3   force =    -0.00000000    0.00000000   -0.00000000
     atom    3 type  1   force =    -0.00000000   -0.00000000    0.00000000
     atom    4 type  1   force =     0.00000000    0.00000000    0.00000000
     atom    5 type  1   force =     0.00000000    0.00000000    0.00000000

     Total force =     0.000000     Total SCF correction =     0.000000


     Computing stress (Cartesian axis) and pressure

          total   stress  (Ry/bohr**3)                   (kbar)     P=        9.94
   0.00006754   0.00000000   0.00000000            9.94        0.00        0.00
   0.00000000   0.00006754   0.00000000            0.00        9.94        0.00
   0.00000000   0.00000000   0.00006754            0.00        0.00        9.94


     init_run     :      0.65s CPU      0.65s WALL (       1 calls)
     electrons    :      4.44s CPU      3.37s WALL (       1 calls)
     forces       :      0.13s CPU      0.09s WALL (       1 calls)
     stress       :      0.92s CPU      0.77s WALL (       1 calls)

     Called by init_run:
     wfcinit      :      0.07s CPU      0.05s WALL (       1 calls)
     potinit      :      0.04s CPU      0.04s WALL (       1 calls)
     hinit0       :      0.44s CPU      0.44s WALL (       1 calls)

     Called by electrons:
     c_bands      :      2.05s CPU      1.56s WALL (      15 calls)
     sum_band     :      1.47s CPU      1.08s WALL (      15 calls)
     v_of_rho     :      0.05s CPU      0.04s WALL (      16 calls)
     newd         :      0.86s CPU      0.69s WALL (      16 calls)
     mix_rho      :      0.03s CPU      0.03s WALL (      15 calls)

     Called by c_bands:
     init_us_2    :      0.08s CPU      0.06s WALL (     132 calls)
     init_us_2:cp :      0.08s CPU      0.06s WALL (     132 calls)
     cegterg      :      1.87s CPU      1.42s WALL (      60 calls)

     Called by *egterg:
     cdiaghg      :      0.31s CPU      0.24s WALL (     286 calls)
     h_psi        :      1.33s CPU      1.00s WALL (     290 calls)
     s_psi        :      0.05s CPU      0.04s WALL (     290 calls)
     g_psi        :      0.01s CPU      0.01s WALL (     226 calls)

     Called by h_psi:
     h_psi:calbec :      0.08s CPU      0.06s WALL (     290 calls)
     vloc_psi     :      1.19s CPU      0.89s WALL (     290 calls)
     add_vuspsi   :      0.06s CPU      0.04s WALL (     290 calls)

     General routines
     calbec       :      0.11s CPU      0.08s WALL (     370 calls)
     fft          :      0.21s CPU      0.20s WALL (      99 calls)
     ffts         :      0.04s CPU      0.04s WALL (      31 calls)
     fftw         :      1.16s CPU      0.87s WALL (    8706 calls)
     interpolate  :      0.05s CPU      0.04s WALL (      16 calls)

     Parallel routines

     PWSCF        :      6.46s CPU      5.22s WALL


   This run was terminated on:  17:43: 3   2Nov2023            

=------------------------------------------------------------------------------=
   JOB DONE.
=------------------------------------------------------------------------------=
