Header of the LAMMPS data file 

4 atoms 
1 atom types

0.0 4.234343434343434  xlo xhi
0.0 4.234343434343434  ylo yhi
0.0 4.234343434343434  zlo zhi

Masses 

1  107.8682

Atoms # atomic 

1 1 0.00000 0.00000 0.00000 
2 1 0.00000 2.11717 2.11717 
3 1 2.11717 0.00000 2.11717 
4 1 2.11717 2.11717 0.00000 
