
     Program PWSCF v.7.2 starts on 27Oct2023 at 12:34:53 

     This program is part of the open-source Quantum ESPRESSO suite
     for quantum simulation of materials; please cite
         "P. Giannozzi et al., J. Phys.:Condens. Matter 21 395502 (2009);
         "P. Giannozzi et al., J. Phys.:Condens. Matter 29 465901 (2017);
         "P. Giannozzi et al., J. Chem. Phys. 152 154105 (2020);
          URL http://www.quantum-espresso.org", 
     in publications or presentations arising from this work. More details at
     http://www.quantum-espresso.org/quote

     Parallel version (MPI), running on     2 processors

     MPI processes distributed on     1 nodes
     40987 MiB available memory on the printing compute node when the environment starts

     Waiting for input...
     Reading input from standard input
Warning: card &CELL ignored
Warning: card / ignored

     Current dimensions of program PWSCF are:
     Max number of different atomic species (ntypx) = 10
     Max number of k-points (npk) =  40000
     Max angular momentum in pseudopotentials (lmaxx) =  4
     file Fe.pbe-nd-rrkjus.UPF: wavefunction(s)  4S renormalized
     Message from routine setup:
     using ibrav=0 with symmetry is DISCOURAGED, use correct ibrav instead

     R & G space division:  proc/nbgrp/npool/nimage =       2
     Subspace diagonalization in iterative solution of the eigenvalue problem:
     a serial algorithm will be used


     Parallelization info
     --------------------
     sticks:   dense  smooth     PW     G-vecs:    dense   smooth      PW
     Min         258     129     42                 8048     2848     546
     Max         259     136     43                 8053     2849     553
     Sum         517     265     85                16101     5697    1099

     Using Slab Decomposition



     bravais-lattice index     =            0
     lattice parameter (alat)  =       5.6692  a.u.
     unit-cell volume          =     257.6768 (a.u.)^3
     number of atoms/cell      =            2
     number of atomic types    =            1
     number of electrons       =        16.00
     number of Kohn-Sham states=           12
     kinetic-energy cutoff     =      30.0000  Ry
     charge density cutoff     =     240.0000  Ry
     scf convergence threshold =      1.0E-07
     mixing beta               =       0.5000
     number of iterations used =            8  plain     mixing
     Exchange-correlation=  SLA  PW   PBE  PBE
                           (   1   4   3   4   0   0   0)

     celldm(1)=   5.669178  celldm(2)=   0.000000  celldm(3)=   0.000000
     celldm(4)=   0.000000  celldm(5)=   0.000000  celldm(6)=   0.000000

     crystal axes: (cart. coord. in units of alat)
               a(1) = (   1.000000   0.000000   0.000000 )  
               a(2) = (  -0.500000   0.866025   0.000000 )  
               a(3) = (   0.000000   0.000000   1.632993 )  

     reciprocal axes: (cart. coord. in units 2 pi/alat)
               b(1) = (  1.000000  0.577350 -0.000000 )  
               b(2) = (  0.000000  1.154701  0.000000 )  
               b(3) = (  0.000000 -0.000000  0.612372 )  


     PseudoPot. # 1 for Fe read from file:
     /home/gridsan/epan1/labutil/lab3_samples/pseudopotentials/Fe.pbe-nd-rrkjus.UPF
     MD5 check sum: 398036227a04b607635f6f5e8dfd8242
     Pseudo is Ultrasoft + core correction, Zval =  8.0
     Generated by new atomic code, or converted to UPF format
     Using radial grid of  957 points,  6 beta functions with: 
                l(1) =   0
                l(2) =   0
                l(3) =   1
                l(4) =   1
                l(5) =   2
                l(6) =   2
     Q(r) pseudized with 0 coefficients 


     atomic species   valence    mass     pseudopotential
        Fe             8.00    55.84500     Fe( 1.00)

     Starting magnetic structure 
     atomic species   magnetization
        Fe           0.700

     24 Sym. Ops., with inversion, found (12 have fractional translation)



   Cartesian axes

     site n.     atom                  positions (alat units)
         1           Fe  tau(   1) = (   0.0000000   0.0000000   0.0000000  )
         2           Fe  tau(   2) = (   0.0000000   0.5773500   0.8164967  )

     number of k points=     6  Methfessel-Paxton smearing, width (Ry)=  0.0200
                       cart. coord. in units 2pi/alat
        k(    1) = (   0.0000000   0.0000000   0.0000000), wk =   0.0370370
        k(    2) = (   0.0000000   0.0000000   0.2041241), wk =   0.0740741
        k(    3) = (   0.0000000   0.3849002   0.0000000), wk =   0.2222222
        k(    4) = (   0.0000000   0.3849002   0.2041241), wk =   0.4444444
        k(    5) = (   0.3333333   0.5773503   0.0000000), wk =   0.0740741
        k(    6) = (   0.3333333   0.5773503   0.2041241), wk =   0.1481481

     Dense  grid:    16101 G-vectors     FFT dimensions: (  27,  27,  48)

     Smooth grid:     5697 G-vectors     FFT dimensions: (  24,  24,  36)

     Estimated max dynamical RAM per process >      34.81 MB

     Estimated total dynamical RAM >      69.62 MB

     Check: negative core charge=   -0.000003
     Generating pointlists ...
     new r_m :   0.4125 (alat units)  2.3385 (a.u.) for type    1

     Initial potential from superposition of free atoms

     starting charge      15.9987, renormalised to      16.0000
     Starting wfcs are   12 randomized atomic wfcs

     total cpu time spent up to now is        1.2 secs

     Self-consistent Calculation

     iteration #  1     ecut=    30.00 Ry     beta= 0.50
     Davidson diagonalization with overlap
     ethr =  1.00E-02,  avg # of iterations =  3.2

     total cpu time spent up to now is        1.9 secs

     total energy              =    -111.22057532 Ry
     estimated scf accuracy    <       0.60251548 Ry

     total magnetization       =     7.04 Bohr mag/cell
     absolute magnetization    =     7.05 Bohr mag/cell

     iteration #  2     ecut=    30.00 Ry     beta= 0.50
     Davidson diagonalization with overlap
     ethr =  3.77E-03,  avg # of iterations =  2.5

     total cpu time spent up to now is        2.5 secs

     total energy              =    -111.43249888 Ry
     estimated scf accuracy    <       0.10709581 Ry

     total magnetization       =     6.61 Bohr mag/cell
     absolute magnetization    =     6.62 Bohr mag/cell

     iteration #  3     ecut=    30.00 Ry     beta= 0.50
     Davidson diagonalization with overlap
     ethr =  6.69E-04,  avg # of iterations =  2.2

     total cpu time spent up to now is        3.0 secs

     total energy              =    -111.46487537 Ry
     estimated scf accuracy    <       0.00806697 Ry

     total magnetization       =     6.59 Bohr mag/cell
     absolute magnetization    =     6.70 Bohr mag/cell

     iteration #  4     ecut=    30.00 Ry     beta= 0.50
     Davidson diagonalization with overlap
     ethr =  5.04E-05,  avg # of iterations =  3.4

     total cpu time spent up to now is        3.7 secs

     total energy              =    -111.46562251 Ry
     estimated scf accuracy    <       0.00638148 Ry

     total magnetization       =     6.62 Bohr mag/cell
     absolute magnetization    =     6.83 Bohr mag/cell

     iteration #  5     ecut=    30.00 Ry     beta= 0.50
     Davidson diagonalization with overlap
     ethr =  3.99E-05,  avg # of iterations =  4.0

     total cpu time spent up to now is        4.3 secs

     total energy              =    -111.46961747 Ry
     estimated scf accuracy    <       0.00762266 Ry

     total magnetization       =     6.42 Bohr mag/cell
     absolute magnetization    =     6.67 Bohr mag/cell

     iteration #  6     ecut=    30.00 Ry     beta= 0.50
     Davidson diagonalization with overlap
     ethr =  3.99E-05,  avg # of iterations =  1.7

     total cpu time spent up to now is        4.8 secs

     total energy              =    -111.46992493 Ry
     estimated scf accuracy    <       0.00407166 Ry

     total magnetization       =     6.42 Bohr mag/cell
     absolute magnetization    =     6.70 Bohr mag/cell

     iteration #  7     ecut=    30.00 Ry     beta= 0.50
     Davidson diagonalization with overlap
     ethr =  2.54E-05,  avg # of iterations =  1.0

     total cpu time spent up to now is        5.4 secs

     total energy              =    -111.47001013 Ry
     estimated scf accuracy    <       0.00456399 Ry

     total magnetization       =     6.42 Bohr mag/cell
     absolute magnetization    =     6.70 Bohr mag/cell

     iteration #  8     ecut=    30.00 Ry     beta= 0.50
     Davidson diagonalization with overlap
     ethr =  2.54E-05,  avg # of iterations =  1.0

     total cpu time spent up to now is        5.9 secs

     total energy              =    -111.47042555 Ry
     estimated scf accuracy    <       0.00464184 Ry

     total magnetization       =     6.41 Bohr mag/cell
     absolute magnetization    =     6.70 Bohr mag/cell

     iteration #  9     ecut=    30.00 Ry     beta= 0.50
     Davidson diagonalization with overlap
     ethr =  2.54E-05,  avg # of iterations =  1.6

     total cpu time spent up to now is        6.4 secs

     total energy              =    -111.47004203 Ry
     estimated scf accuracy    <       0.00517952 Ry

     total magnetization       =     6.31 Bohr mag/cell
     absolute magnetization    =     6.64 Bohr mag/cell

     iteration # 10     ecut=    30.00 Ry     beta= 0.50
     Davidson diagonalization with overlap
     ethr =  2.54E-05,  avg # of iterations =  1.0

     total cpu time spent up to now is        6.9 secs

     total energy              =    -111.46983982 Ry
     estimated scf accuracy    <       0.00169798 Ry

     total magnetization       =     6.32 Bohr mag/cell
     absolute magnetization    =     6.67 Bohr mag/cell

     iteration # 11     ecut=    30.00 Ry     beta= 0.50
     Davidson diagonalization with overlap
     ethr =  1.06E-05,  avg # of iterations =  1.7

     total cpu time spent up to now is        7.4 secs

     total energy              =    -111.47010439 Ry
     estimated scf accuracy    <       0.00011272 Ry

     total magnetization       =     6.41 Bohr mag/cell
     absolute magnetization    =     6.74 Bohr mag/cell

     iteration # 12     ecut=    30.00 Ry     beta= 0.50
     Davidson diagonalization with overlap
     ethr =  7.05E-07,  avg # of iterations =  2.8

     total cpu time spent up to now is        8.0 secs

     total energy              =    -111.47012222 Ry
     estimated scf accuracy    <       0.00003668 Ry

     total magnetization       =     6.45 Bohr mag/cell
     absolute magnetization    =     6.76 Bohr mag/cell

     iteration # 13     ecut=    30.00 Ry     beta= 0.50
     Davidson diagonalization with overlap
     ethr =  2.29E-07,  avg # of iterations =  3.8

     total cpu time spent up to now is        8.6 secs

     total energy              =    -111.47014083 Ry
     estimated scf accuracy    <       0.00005411 Ry

     total magnetization       =     6.46 Bohr mag/cell
     absolute magnetization    =     6.77 Bohr mag/cell

     iteration # 14     ecut=    30.00 Ry     beta= 0.50
     Davidson diagonalization with overlap
     ethr =  2.29E-07,  avg # of iterations =  1.0

     total cpu time spent up to now is        9.2 secs

     total energy              =    -111.47013880 Ry
     estimated scf accuracy    <       0.00002830 Ry

     total magnetization       =     6.46 Bohr mag/cell
     absolute magnetization    =     6.77 Bohr mag/cell

     iteration # 15     ecut=    30.00 Ry     beta= 0.50
     Davidson diagonalization with overlap
     ethr =  1.77E-07,  avg # of iterations =  1.0

     total cpu time spent up to now is        9.7 secs

     total energy              =    -111.47014417 Ry
     estimated scf accuracy    <       0.00003077 Ry

     total magnetization       =     6.46 Bohr mag/cell
     absolute magnetization    =     6.77 Bohr mag/cell

     iteration # 16     ecut=    30.00 Ry     beta= 0.50
     Davidson diagonalization with overlap
     ethr =  1.77E-07,  avg # of iterations =  1.0

     total cpu time spent up to now is       10.2 secs

     total energy              =    -111.47015640 Ry
     estimated scf accuracy    <       0.00008444 Ry

     total magnetization       =     6.49 Bohr mag/cell
     absolute magnetization    =     6.78 Bohr mag/cell

     iteration # 17     ecut=    30.00 Ry     beta= 0.50
     Davidson diagonalization with overlap
     ethr =  1.77E-07,  avg # of iterations =  1.0

     total cpu time spent up to now is       10.8 secs

     total energy              =    -111.47015304 Ry
     estimated scf accuracy    <       0.00008371 Ry

     total magnetization       =     6.50 Bohr mag/cell
     absolute magnetization    =     6.79 Bohr mag/cell

     iteration # 18     ecut=    30.00 Ry     beta= 0.50
     Davidson diagonalization with overlap
     ethr =  1.77E-07,  avg # of iterations =  1.1

     total cpu time spent up to now is       11.3 secs

     total energy              =    -111.47012624 Ry
     estimated scf accuracy    <       0.00007446 Ry

     total magnetization       =     6.51 Bohr mag/cell
     absolute magnetization    =     6.79 Bohr mag/cell

     iteration # 19     ecut=    30.00 Ry     beta= 0.50
     Davidson diagonalization with overlap
     ethr =  1.77E-07,  avg # of iterations =  2.9

     total cpu time spent up to now is       12.0 secs

     total energy              =    -111.47014559 Ry
     estimated scf accuracy    <       0.00000020 Ry

     total magnetization       =     6.48 Bohr mag/cell
     absolute magnetization    =     6.77 Bohr mag/cell

     iteration # 20     ecut=    30.00 Ry     beta= 0.50
     Davidson diagonalization with overlap
     ethr =  1.25E-09,  avg # of iterations =  6.8

     total cpu time spent up to now is       13.0 secs

     total energy              =    -111.47014639 Ry
     estimated scf accuracy    <       0.00000168 Ry

     total magnetization       =     6.47 Bohr mag/cell
     absolute magnetization    =     6.77 Bohr mag/cell

     iteration # 21     ecut=    30.00 Ry     beta= 0.50
     Davidson diagonalization with overlap
     ethr =  1.25E-09,  avg # of iterations =  2.7

     total cpu time spent up to now is       13.6 secs

     total energy              =    -111.47014642 Ry
     estimated scf accuracy    <       0.00000053 Ry

     total magnetization       =     6.47 Bohr mag/cell
     absolute magnetization    =     6.77 Bohr mag/cell

     iteration # 22     ecut=    30.00 Ry     beta= 0.50
     Davidson diagonalization with overlap
     ethr =  1.25E-09,  avg # of iterations =  2.7

     Magnetic moment per site  (integrated on atomic sphere of radius R)
     atom   1 (R=0.412)  charge=  6.8893  magn=  3.3043
     atom   2 (R=0.412)  charge=  6.8893  magn=  3.3043

     total cpu time spent up to now is       14.3 secs

     End of self-consistent calculation

 ------ SPIN UP ------------


          k = 0.0000 0.0000 0.0000 (   701 PWs)   bands (ev):

     0.4902   2.9772   3.9652   3.9652   4.0887   4.0887   4.1533   4.2147
     4.2147   4.6973   4.6973   6.8791

          k = 0.0000 0.0000 0.2041 (   718 PWs)   bands (ev):

     1.2058   2.6870   3.9072   3.9072   3.9902   3.9902   4.0822   4.4259
     4.4259   4.6016   4.6460   4.6460

          k = 0.0000 0.3849 0.0000 (   710 PWs)   bands (ev):

     2.6223   3.2499   3.3968   3.9441   3.9917   4.0869   4.2034   4.5905
     4.6485   4.7705   4.9228  10.5348

          k = 0.0000 0.3849 0.2041 (   719 PWs)   bands (ev):

     2.7998   3.1893   3.5267   3.6777   4.1042   4.3292   4.4540   4.6362
     4.7270   4.7478   4.9171   7.0097

          k = 0.3333 0.5774 0.0000 (   711 PWs)   bands (ev):

     3.2480   3.5721   3.5721   3.6848   3.8568   3.8568   4.2835   4.6845
     4.8505   4.8505   9.3299   9.3300

          k = 0.3333 0.5774 0.2041 (   723 PWs)   bands (ev):

     3.4377   3.4960   3.4960   3.6844   3.9279   3.9279   4.2441   4.3983
     4.9163   4.9163   9.8262   9.8262

 ------ SPIN DOWN ----------


          k = 0.0000 0.0000 0.0000 (   701 PWs)   bands (ev):

     0.7260   4.8162   6.9379   7.1401   7.2997   7.2997   7.4915   7.4915
     7.9414   7.9414   8.5904   8.5904

          k = 0.0000 0.0000 0.2041 (   718 PWs)   bands (ev):

     1.4559   3.3988   6.6676   6.9520   7.2604   7.2604   7.3695   7.3695
     8.1958   8.1958   8.5077   8.5077

          k = 0.0000 0.3849 0.0000 (   710 PWs)   bands (ev):

     3.1679   5.8751   6.1629   6.4988   7.1698   7.4592   7.5277   8.0424
     8.1631   8.2397   8.7045  11.7466

          k = 0.0000 0.3849 0.2041 (   719 PWs)   bands (ev):

     3.7565   5.1370   6.3025   6.6379   7.0069   7.3049   7.7139   8.0824
     8.2598   8.2624   8.5059   9.1912

          k = 0.3333 0.5774 0.0000 (   711 PWs)   bands (ev):

     5.8177   5.8177   6.0546   6.3093   7.1619   7.1619   7.5931   8.2287
     8.2287   8.5767  10.7211  10.7740

          k = 0.3333 0.5774 0.2041 (   723 PWs)   bands (ev):

     6.1163   6.1163   6.1782   6.3218   6.8013   6.8013   7.6493   8.0965
     8.3474   8.3474  11.0855  11.0855

     the Fermi energy is     7.1074 ev

!    total energy              =    -111.47014644 Ry
     estimated scf accuracy    <       0.00000006 Ry
     smearing contrib. (-TS)   =      -0.00104871 Ry
     internal energy E=F+TS    =    -111.46909773 Ry

     The total energy is F=E-TS. E is the sum of the following terms:
     one-electron contribution =      -4.50019012 Ry
     hartree contribution      =      18.79697109 Ry
     xc contribution           =     -52.57045682 Ry
     ewald contribution        =     -73.19542189 Ry

     total magnetization       =     6.47 Bohr mag/cell
     absolute magnetization    =     6.77 Bohr mag/cell

     convergence has been achieved in  22 iterations

     Forces acting on atoms (cartesian axes, Ry/au):

     atom    1 type  1   force =     0.00000000   -0.00000000    0.00000000
     atom    2 type  1   force =     0.00000000   -0.00000000    0.00000000
     The non-local contrib.  to forces
     atom    1 type  1   force =     0.00000000    0.00000000    0.00000000
     atom    2 type  1   force =     0.00000000   -0.00000000    0.00000000
     The ionic contribution  to forces
     atom    1 type  1   force =     0.00000000   -0.00000043    0.00000276
     atom    2 type  1   force =    -0.00000000    0.00000043   -0.00000276
     The local contribution  to forces
     atom    1 type  1   force =     0.00000176    0.00000305    0.00000237
     atom    2 type  1   force =     0.00000176    0.00005045   -0.00001264
     The core correction contribution to forces
     atom    1 type  1   force =     0.00000032    0.00000054    0.00000022
     atom    2 type  1   force =     0.00000032    0.00000776   -0.00000206
     The Hubbard contrib.    to forces
     atom    1 type  1   force =     0.00000000    0.00000000    0.00000000
     atom    2 type  1   force =     0.00000000    0.00000000    0.00000000
     The SCF correction term to forces
     atom    1 type  1   force =     0.00000000   -0.00000000    0.00000000
     atom    2 type  1   force =     0.00000000    0.00000000   -0.00000000

     Total force =     0.000000     Total SCF correction =     0.000000


     Computing stress (Cartesian axis) and pressure

          total   stress  (Ry/bohr**3)                   (kbar)     P=     -244.55
  -0.00183545   0.00000000   0.00000000         -270.00        0.00        0.00
   0.00000000  -0.00183545   0.00000000            0.00     -270.00        0.00
   0.00000000   0.00000000  -0.00131639            0.00        0.00     -193.65


     init_run     :      0.82s CPU      0.85s WALL (       1 calls)
     electrons    :     18.30s CPU     13.05s WALL (       1 calls)
     forces       :      0.29s CPU      0.19s WALL (       1 calls)
     stress       :      1.08s CPU      0.80s WALL (       1 calls)

     Called by init_run:
     wfcinit      :      0.21s CPU      0.16s WALL (       1 calls)
     potinit      :      0.20s CPU      0.23s WALL (       1 calls)
     hinit0       :      0.33s CPU      0.36s WALL (       1 calls)

     Called by electrons:
     c_bands      :     10.53s CPU      7.55s WALL (      22 calls)
     sum_band     :      4.51s CPU      3.12s WALL (      22 calls)
     v_of_rho     :      1.67s CPU      1.24s WALL (      23 calls)
     newd         :      1.30s CPU      0.89s WALL (      23 calls)
     mix_rho      :      0.18s CPU      0.18s WALL (      22 calls)

     Called by c_bands:
     init_us_2    :      0.30s CPU      0.21s WALL (     564 calls)
     init_us_2:cp :      0.29s CPU      0.21s WALL (     564 calls)
     cegterg      :      9.87s CPU      7.04s WALL (     264 calls)

     Called by *egterg:
     cdiaghg      :      0.60s CPU      0.42s WALL (     863 calls)
     h_psi        :      8.71s CPU      6.18s WALL (     875 calls)
     s_psi        :      0.11s CPU      0.07s WALL (     875 calls)
     g_psi        :      0.04s CPU      0.03s WALL (     599 calls)

     Called by h_psi:
     h_psi:calbec :      0.26s CPU      0.19s WALL (     875 calls)
     vloc_psi     :      8.28s CPU      5.86s WALL (     875 calls)
     add_vuspsi   :      0.12s CPU      0.09s WALL (     875 calls)

     General routines
     calbec       :      0.37s CPU      0.27s WALL (    1199 calls)
     fft          :      0.80s CPU      0.68s WALL (     613 calls)
     ffts         :      0.23s CPU      0.21s WALL (      90 calls)
     fftw         :      8.81s CPU      6.22s WALL (   18878 calls)
     interpolate  :      0.25s CPU      0.24s WALL (      46 calls)

     Parallel routines

     PWSCF        :     20.68s CPU     15.27s WALL


   This run was terminated on:  12:35: 8  27Oct2023            

=------------------------------------------------------------------------------=
   JOB DONE.
=------------------------------------------------------------------------------=
