
     Program PWSCF v.7.2 starts on  3Nov2023 at 10:56:59 

     This program is part of the open-source Quantum ESPRESSO suite
     for quantum simulation of materials; please cite
         "P. Giannozzi et al., J. Phys.:Condens. Matter 21 395502 (2009);
         "P. Giannozzi et al., J. Phys.:Condens. Matter 29 465901 (2017);
         "P. Giannozzi et al., J. Chem. Phys. 152 154105 (2020);
          URL http://www.quantum-espresso.org", 
     in publications or presentations arising from this work. More details at
     http://www.quantum-espresso.org/quote

     Parallel version (MPI), running on     8 processors

     MPI processes distributed on     8 nodes
     185886 MiB available memory on the printing compute node when the environment starts

     Waiting for input...
     Reading input from standard input

     Current dimensions of program PWSCF are:
     Max number of different atomic species (ntypx) = 10
     Max number of k-points (npk) =  40000
     Max angular momentum in pseudopotentials (lmaxx) =  4
     file Cu.pz-d-rrkjus.UPF: wavefunction(s)  3D renormalized
     Message from routine setup:
     using ibrav=0 with symmetry is DISCOURAGED, use correct ibrav instead

     R & G space division:  proc/nbgrp/npool/nimage =       8
     Subspace diagonalization in iterative solution of the eigenvalue problem:
     a serial algorithm will be used


     Parallelization info
     --------------------
     sticks:   dense  smooth     PW     G-vecs:    dense   smooth      PW
     Min          59      30     10                  858      305      65
     Max          60      31     11                  861      308      68
     Sum         475     241     85                 6879     2445     531

     Using Slab Decomposition



     bravais-lattice index     =            0
     lattice parameter (alat)  =       4.6768  a.u.
     unit-cell volume          =      72.3337 (a.u.)^3
     number of atoms/cell      =            1
     number of atomic types    =            1
     number of electrons       =        11.00
     number of Kohn-Sham states=           10
     kinetic-energy cutoff     =      40.0000  Ry
     charge density cutoff     =     320.0000  Ry
     scf convergence threshold =      1.0E-07
     mixing beta               =       0.5000
     number of iterations used =            8  plain     mixing
     energy convergence thresh.=      1.0E-04
     force convergence thresh. =      1.0E-03
     press convergence thresh. =      5.0E-01
     Exchange-correlation=  SLA  PZ   NOGX NOGC
                           (   1   1   0   0   0   0   0)
     nstep                     =           50


     celldm(1)=   4.676834  celldm(2)=   0.000000  celldm(3)=   0.000000
     celldm(4)=   0.000000  celldm(5)=   0.000000  celldm(6)=   0.000000

     crystal axes: (cart. coord. in units of alat)
               a(1) = (   0.000000   0.707107   0.707107 )  
               a(2) = (   0.707107   0.000000   0.707107 )  
               a(3) = (   0.707107   0.707107   0.000000 )  

     reciprocal axes: (cart. coord. in units 2 pi/alat)
               b(1) = ( -0.707107  0.707107  0.707107 )  
               b(2) = (  0.707107 -0.707107  0.707107 )  
               b(3) = (  0.707107  0.707107 -0.707107 )  


     PseudoPot. # 1 for Cu read from file:
     /home/gridsan/epan1/labutil/lab3_samples/pseudopotentials/Cu.pz-d-rrkjus.UPF
     MD5 check sum: fd38ae683e239c95a66f426e1f8e5fc7
     Pseudo is Ultrasoft, Zval = 11.0
     Generated by new atomic code, or converted to UPF format
     Using radial grid of  899 points,  3 beta functions with: 
                l(1) =   2
                l(2) =   2
                l(3) =   1
     Q(r) pseudized with 0 coefficients 


     atomic species   valence    mass     pseudopotential
        Cu            11.00    63.54600     Cu( 1.00)

     Starting magnetic structure 
     atomic species   magnetization
        Cu           0.700

     48 Sym. Ops., with inversion, found



   Cartesian axes

     site n.     atom                  positions (alat units)
         1           Cu  tau(   1) = (   0.0000000   0.0000000   0.0000000  )

     number of k points=   104  Methfessel-Paxton smearing, width (Ry)=  0.0200

     Number of k-points >= 100: set verbosity='high' to print them.

     Dense  grid:     6879 G-vectors     FFT dimensions: (  27,  27,  27)

     Smooth grid:     2445 G-vectors     FFT dimensions: (  20,  20,  20)

     Estimated max dynamical RAM per process >       4.57 MB

     Estimated total dynamical RAM >      36.58 MB
     Generating pointlists ...
     new r_m :   0.4125 (alat units)  1.9292 (a.u.) for type    1

     Initial potential from superposition of free atoms

     starting charge      10.9997, renormalised to      11.0000
     Starting wfcs are    6 randomized atomic wfcs +    4 random wfcs

     total cpu time spent up to now is        0.4 secs

     Self-consistent Calculation

     iteration #  1     ecut=    40.00 Ry     beta= 0.50
     Davidson diagonalization with overlap
     ethr =  1.00E-02,  avg # of iterations =  6.0

     total cpu time spent up to now is        1.5 secs

     total energy              =     -86.97299683 Ry
     estimated scf accuracy    <       1.45340174 Ry

     total magnetization       =     1.73 Bohr mag/cell
     absolute magnetization    =     1.87 Bohr mag/cell

     iteration #  2     ecut=    40.00 Ry     beta= 0.50
     Davidson diagonalization with overlap
     ethr =  1.00E-02,  avg # of iterations =  1.5

     total cpu time spent up to now is        2.0 secs

     total energy              =     -87.61773362 Ry
     estimated scf accuracy    <       0.72269511 Ry

     total magnetization       =     0.34 Bohr mag/cell
     absolute magnetization    =     0.51 Bohr mag/cell

     iteration #  3     ecut=    40.00 Ry     beta= 0.50
     Davidson diagonalization with overlap
     ethr =  6.57E-03,  avg # of iterations =  1.0

     negative rho (up, down):  0.000E+00 2.174E-07

     total cpu time spent up to now is        2.5 secs

     total energy              =     -87.79674896 Ry
     estimated scf accuracy    <       0.21114330 Ry

     total magnetization       =     0.33 Bohr mag/cell
     absolute magnetization    =     0.51 Bohr mag/cell

     iteration #  4     ecut=    40.00 Ry     beta= 0.50
     Davidson diagonalization with overlap
     ethr =  1.92E-03,  avg # of iterations =  1.5

     total cpu time spent up to now is        3.0 secs

     total energy              =     -87.83069832 Ry
     estimated scf accuracy    <       0.03988906 Ry

     total magnetization       =    -0.03 Bohr mag/cell
     absolute magnetization    =     0.05 Bohr mag/cell

     iteration #  5     ecut=    40.00 Ry     beta= 0.50
     Davidson diagonalization with overlap
     ethr =  3.63E-04,  avg # of iterations =  1.3

     total cpu time spent up to now is        3.5 secs

     total energy              =     -87.84145241 Ry
     estimated scf accuracy    <       0.00189465 Ry

     total magnetization       =    -0.03 Bohr mag/cell
     absolute magnetization    =     0.03 Bohr mag/cell

     iteration #  6     ecut=    40.00 Ry     beta= 0.50
     Davidson diagonalization with overlap
     ethr =  1.72E-05,  avg # of iterations =  1.6

     total cpu time spent up to now is        4.0 secs

     total energy              =     -87.84238142 Ry
     estimated scf accuracy    <       0.00035702 Ry

     total magnetization       =     0.02 Bohr mag/cell
     absolute magnetization    =     0.04 Bohr mag/cell

     iteration #  7     ecut=    40.00 Ry     beta= 0.50
     Davidson diagonalization with overlap
     ethr =  3.25E-06,  avg # of iterations =  1.4

     total cpu time spent up to now is        4.5 secs

     total energy              =     -87.84247211 Ry
     estimated scf accuracy    <       0.00001524 Ry

     total magnetization       =     0.00 Bohr mag/cell
     absolute magnetization    =     0.00 Bohr mag/cell

     iteration #  8     ecut=    40.00 Ry     beta= 0.50
     Davidson diagonalization with overlap
     ethr =  1.39E-07,  avg # of iterations =  1.5

     total cpu time spent up to now is        5.0 secs

     total energy              =     -87.84247752 Ry
     estimated scf accuracy    <       0.00000316 Ry

     total magnetization       =     0.00 Bohr mag/cell
     absolute magnetization    =     0.00 Bohr mag/cell

     iteration #  9     ecut=    40.00 Ry     beta= 0.50
     Davidson diagonalization with overlap
     ethr =  2.87E-08,  avg # of iterations =  1.2

     Magnetic moment per site  (integrated on atomic sphere of radius R)
     atom   1 (R=0.412)  charge=  9.7771  magn=  0.0001

     total cpu time spent up to now is        5.5 secs

     End of self-consistent calculation

     Number of k-points >= 100: set verbosity='high' to print the bands.

     the Fermi energy is    15.5569 ev

!    total energy              =     -87.84247816 Ry
     estimated scf accuracy    <       0.00000004 Ry
     smearing contrib. (-TS)   =       0.00006734 Ry
     internal energy E=F+TS    =     -87.84254549 Ry

     The total energy is F=E-TS. E is the sum of the following terms:
     one-electron contribution =      -8.04594243 Ry
     hartree contribution      =      18.16895858 Ry
     xc contribution           =     -14.08820522 Ry
     ewald contribution        =     -83.87735643 Ry

     total magnetization       =     0.00 Bohr mag/cell
     absolute magnetization    =     0.00 Bohr mag/cell

     convergence has been achieved in   9 iterations

     Forces acting on atoms (cartesian axes, Ry/au):

     atom    1 type  1   force =     0.00000000    0.00000000    0.00000000
     The non-local contrib.  to forces
     atom    1 type  1   force =    -0.00000000   -0.00000000    0.00000000
     The ionic contribution  to forces
     atom    1 type  1   force =    -0.00000000   -0.00000000   -0.00000000
     The local contribution  to forces
     atom    1 type  1   force =    -0.00000000   -0.00000000   -0.00000000
     The core correction contribution to forces
     atom    1 type  1   force =     0.00000000    0.00000000    0.00000000
     The Hubbard contrib.    to forces
     atom    1 type  1   force =     0.00000000    0.00000000    0.00000000
     The SCF correction term to forces
     atom    1 type  1   force =    -0.00000000   -0.00000000    0.00000000

     Total force =     0.000000     Total SCF correction =     0.000000


     Computing stress (Cartesian axis) and pressure

          total   stress  (Ry/bohr**3)                   (kbar)     P=       89.08
   0.00060558   0.00000000   0.00000000           89.08        0.00        0.00
   0.00000000   0.00060558   0.00000000            0.00       89.08        0.00
   0.00000000   0.00000000   0.00060558            0.00        0.00       89.08


     BFGS Geometry Optimization
     Energy error            =      0.0E+00 Ry
     Gradient error          =      0.0E+00 Ry/Bohr
     Cell gradient error     =      8.9E+01 kbar

     number of scf cycles    =   1
     number of bfgs steps    =   0

     enthalpy           new  =     -87.8424781563 Ry

     new trust radius        =       0.0257522021 bohr
     new conv_thr            =       0.0000001000 Ry

     new unit-cell volume =     75.66901 a.u.^3 (    11.21299 Ang^3 )
     density =      9.41057 g/cm^3

CELL_PARAMETERS (angstrom)
   0.000000000   1.776494276   1.776494276
   1.776494276   0.000000000   1.776494276
   1.776494276   1.776494276   0.000000000

ATOMIC_POSITIONS (angstrom)
Cu            0.0000000000        0.0000000000        0.0000000000



     Writing config-only to output data dir /home/gridsan/epan1/labutil/lab3_samples/problem3/Lab3/Cu_a_3.5_ecut_40_nk_14/pwscf.save/
     NEW-OLD atomic charge density approx. for the potential
     extrapolated charge   11.48484, renormalised to   11.00000
     Generating pointlists ...

     total cpu time spent up to now is        5.8 secs

     Self-consistent Calculation

     iteration #  1     ecut=    40.00 Ry     beta= 0.50
     Davidson diagonalization with overlap
     ethr =  1.00E-06,  avg # of iterations =  4.4

     total cpu time spent up to now is        6.8 secs

     total energy              =     -87.65769285 Ry
     estimated scf accuracy    <       0.17720938 Ry

     total magnetization       =     0.00 Bohr mag/cell
     absolute magnetization    =     0.00 Bohr mag/cell

     iteration #  2     ecut=    40.00 Ry     beta= 0.50
     Davidson diagonalization with overlap
     ethr =  1.61E-03,  avg # of iterations =  2.0

     total cpu time spent up to now is        7.4 secs

     total energy              =     -87.84769373 Ry
     estimated scf accuracy    <       0.26894036 Ry

     total magnetization       =    -0.00 Bohr mag/cell
     absolute magnetization    =     0.00 Bohr mag/cell

     iteration #  3     ecut=    40.00 Ry     beta= 0.50
     Davidson diagonalization with overlap
     ethr =  1.61E-03,  avg # of iterations =  1.0

     total cpu time spent up to now is        8.0 secs

     total energy              =     -87.84556521 Ry
     estimated scf accuracy    <       0.05976603 Ry

     total magnetization       =     0.00 Bohr mag/cell
     absolute magnetization    =     0.00 Bohr mag/cell

     iteration #  4     ecut=    40.00 Ry     beta= 0.50
     Davidson diagonalization with overlap
     ethr =  5.43E-04,  avg # of iterations =  1.0

     total cpu time spent up to now is        8.5 secs

     total energy              =     -87.84367861 Ry
     estimated scf accuracy    <       0.01591868 Ry

     total magnetization       =     0.00 Bohr mag/cell
     absolute magnetization    =     0.00 Bohr mag/cell

     iteration #  5     ecut=    40.00 Ry     beta= 0.50
     Davidson diagonalization with overlap
     ethr =  1.45E-04,  avg # of iterations =  1.0

     total cpu time spent up to now is        9.0 secs

     total energy              =     -87.84308313 Ry
     estimated scf accuracy    <       0.00367973 Ry

     total magnetization       =     0.00 Bohr mag/cell
     absolute magnetization    =     0.00 Bohr mag/cell

     iteration #  6     ecut=    40.00 Ry     beta= 0.50
     Davidson diagonalization with overlap
     ethr =  3.35E-05,  avg # of iterations =  1.0

     total cpu time spent up to now is        9.5 secs

     total energy              =     -87.84327455 Ry
     estimated scf accuracy    <       0.00026731 Ry

     total magnetization       =     0.00 Bohr mag/cell
     absolute magnetization    =     0.00 Bohr mag/cell

     iteration #  7     ecut=    40.00 Ry     beta= 0.50
     Davidson diagonalization with overlap
     ethr =  2.43E-06,  avg # of iterations =  2.1

     total cpu time spent up to now is       10.2 secs

     total energy              =     -87.84337153 Ry
     estimated scf accuracy    <       0.00009316 Ry

     total magnetization       =     0.00 Bohr mag/cell
     absolute magnetization    =     0.00 Bohr mag/cell

     iteration #  8     ecut=    40.00 Ry     beta= 0.50
     Davidson diagonalization with overlap
     ethr =  8.47E-07,  avg # of iterations =  1.0

     total cpu time spent up to now is       11.0 secs

     total energy              =     -87.84337477 Ry
     estimated scf accuracy    <       0.00001037 Ry

     total magnetization       =     0.00 Bohr mag/cell
     absolute magnetization    =     0.00 Bohr mag/cell

     iteration #  9     ecut=    40.00 Ry     beta= 0.50
     Davidson diagonalization with overlap
     ethr =  9.43E-08,  avg # of iterations =  1.0

     Magnetic moment per site  (integrated on atomic sphere of radius R)
     atom   1 (R=0.412)  charge=  9.7300  magn=  0.0000

     total cpu time spent up to now is       11.6 secs

     End of self-consistent calculation

     Number of k-points >= 100: set verbosity='high' to print the bands.

     the Fermi energy is    14.6225 ev

!    total energy              =     -87.84337654 Ry
     estimated scf accuracy    <       0.00000004 Ry
     smearing contrib. (-TS)   =       0.00008173 Ry
     internal energy E=F+TS    =     -87.84345827 Ry

     The total energy is F=E-TS. E is the sum of the following terms:
     one-electron contribution =      -9.94997444 Ry
     hartree contribution      =      18.79329161 Ry
     xc contribution           =     -14.06034891 Ry
     ewald contribution        =     -82.62642652 Ry

     total magnetization       =     0.00 Bohr mag/cell
     absolute magnetization    =     0.00 Bohr mag/cell

     convergence has been achieved in   9 iterations

     Forces acting on atoms (cartesian axes, Ry/au):

     atom    1 type  1   force =     0.00000000    0.00000000    0.00000000
     The non-local contrib.  to forces
     atom    1 type  1   force =    -0.00000000    0.00000000   -0.00000000
     The ionic contribution  to forces
     atom    1 type  1   force =    -0.00000000   -0.00000000   -0.00000000
     The local contribution  to forces
     atom    1 type  1   force =     0.00000000    0.00000000   -0.00000000
     The core correction contribution to forces
     atom    1 type  1   force =     0.00000000    0.00000000    0.00000000
     The Hubbard contrib.    to forces
     atom    1 type  1   force =     0.00000000    0.00000000    0.00000000
     The SCF correction term to forces
     atom    1 type  1   force =    -0.00000000   -0.00000000    0.00000000

     Total force =     0.000000     Total SCF correction =     0.000000


     Computing stress (Cartesian axis) and pressure

          total   stress  (Ry/bohr**3)                   (kbar)     P=       -6.48
  -0.00004407   0.00000000  -0.00000000           -6.48        0.00       -0.00
   0.00000000  -0.00004407   0.00000000            0.00       -6.48        0.00
  -0.00000000   0.00000000  -0.00004407           -0.00        0.00       -6.48

     Energy error            =      9.0E-04 Ry
     Gradient error          =      0.0E+00 Ry/Bohr
     Cell gradient error     =      6.5E+00 kbar

     number of scf cycles    =   2
     number of bfgs steps    =   1

     enthalpy           old  =     -87.8424781563 Ry
     enthalpy           new  =     -87.8433765390 Ry

     CASE: enthalpy          _new < enthalpy          _old

     new trust radius        =       0.0018100290 bohr
     new conv_thr            =       0.0000000010 Ry

     new unit-cell volume =     75.43308 a.u.^3 (    11.17803 Ang^3 )
     density =      9.44000 g/cm^3

CELL_PARAMETERS (angstrom)
   0.000000000   1.774646027   1.774646027
   1.774646027   0.000000000   1.774646027
   1.774646027   1.774646027   0.000000000

ATOMIC_POSITIONS (angstrom)
Cu            0.0000000000        0.0000000000        0.0000000000



     Writing config-only to output data dir /home/gridsan/epan1/labutil/lab3_samples/problem3/Lab3/Cu_a_3.5_ecut_40_nk_14/pwscf.save/
     NEW-OLD atomic charge density approx. for the potential
     extrapolated charge   10.96560, renormalised to   11.00000
     Generating pointlists ...

     total cpu time spent up to now is       12.0 secs

     Self-consistent Calculation

     iteration #  1     ecut=    40.00 Ry     beta= 0.50
     Davidson diagonalization with overlap
     ethr =  1.00E-06,  avg # of iterations =  2.0

     total cpu time spent up to now is       12.7 secs

     total energy              =     -87.84258778 Ry
     estimated scf accuracy    <       0.00074976 Ry

     total magnetization       =     0.00 Bohr mag/cell
     absolute magnetization    =     0.00 Bohr mag/cell

     iteration #  2     ecut=    40.00 Ry     beta= 0.50
     Davidson diagonalization with overlap
     ethr =  6.82E-06,  avg # of iterations =  2.0

     total cpu time spent up to now is       13.4 secs

     total energy              =     -87.84335486 Ry
     estimated scf accuracy    <       0.00126656 Ry

     total magnetization       =     0.00 Bohr mag/cell
     absolute magnetization    =     0.00 Bohr mag/cell

     iteration #  3     ecut=    40.00 Ry     beta= 0.50
     Davidson diagonalization with overlap
     ethr =  6.82E-06,  avg # of iterations =  1.0

     total cpu time spent up to now is       13.9 secs

     total energy              =     -87.84341410 Ry
     estimated scf accuracy    <       0.00021623 Ry

     total magnetization       =     0.00 Bohr mag/cell
     absolute magnetization    =     0.00 Bohr mag/cell

     iteration #  4     ecut=    40.00 Ry     beta= 0.50
     Davidson diagonalization with overlap
     ethr =  1.97E-06,  avg # of iterations =  1.0

     total cpu time spent up to now is       14.4 secs

     total energy              =     -87.84335377 Ry
     estimated scf accuracy    <       0.00014186 Ry

     total magnetization       =     0.00 Bohr mag/cell
     absolute magnetization    =     0.00 Bohr mag/cell

     iteration #  5     ecut=    40.00 Ry     beta= 0.50
     Davidson diagonalization with overlap
     ethr =  1.29E-06,  avg # of iterations =  1.0

     total cpu time spent up to now is       14.9 secs

     total energy              =     -87.84337144 Ry
     estimated scf accuracy    <       0.00000288 Ry

     total magnetization       =     0.00 Bohr mag/cell
     absolute magnetization    =     0.00 Bohr mag/cell

     iteration #  6     ecut=    40.00 Ry     beta= 0.50
     Davidson diagonalization with overlap
     ethr =  2.62E-08,  avg # of iterations =  2.0

     total cpu time spent up to now is       15.5 secs

     total energy              =     -87.84337207 Ry
     estimated scf accuracy    <       0.00000519 Ry

     total magnetization       =     0.00 Bohr mag/cell
     absolute magnetization    =     0.00 Bohr mag/cell

     iteration #  7     ecut=    40.00 Ry     beta= 0.50
     Davidson diagonalization with overlap
     ethr =  2.62E-08,  avg # of iterations =  1.4

     total cpu time spent up to now is       16.1 secs

     total energy              =     -87.84337301 Ry
     estimated scf accuracy    <          4.7E-09 Ry

     total magnetization       =     0.00 Bohr mag/cell
     absolute magnetization    =     0.00 Bohr mag/cell

     iteration #  8     ecut=    40.00 Ry     beta= 0.50
     Davidson diagonalization with overlap
     ethr =  4.25E-11,  avg # of iterations =  2.6

     total cpu time spent up to now is       16.8 secs

     total energy              =     -87.84337301 Ry
     estimated scf accuracy    <          5.1E-09 Ry

     total magnetization       =     0.00 Bohr mag/cell
     absolute magnetization    =     0.00 Bohr mag/cell

     iteration #  9     ecut=    40.00 Ry     beta= 0.50
     Davidson diagonalization with overlap
     ethr =  4.25E-11,  avg # of iterations =  1.0

     Magnetic moment per site  (integrated on atomic sphere of radius R)
     atom   1 (R=0.412)  charge=  9.7333  magn=  0.0000

     total cpu time spent up to now is       17.3 secs

     End of self-consistent calculation

     Number of k-points >= 100: set verbosity='high' to print the bands.

     the Fermi energy is    14.6853 ev

!    total energy              =     -87.84337301 Ry
     estimated scf accuracy    <          1.7E-10 Ry
     smearing contrib. (-TS)   =       0.00008112 Ry
     internal energy E=F+TS    =     -87.84345413 Ry

     The total energy is F=E-TS. E is the sum of the following terms:
     one-electron contribution =      -9.81932030 Ry
     hartree contribution      =      18.75073264 Ry
     xc contribution           =     -14.06238664 Ry
     ewald contribution        =     -82.71247983 Ry

     total magnetization       =     0.00 Bohr mag/cell
     absolute magnetization    =     0.00 Bohr mag/cell

     convergence has been achieved in   9 iterations

     Forces acting on atoms (cartesian axes, Ry/au):

     atom    1 type  1   force =     0.00000000    0.00000000    0.00000000
     The non-local contrib.  to forces
     atom    1 type  1   force =     0.00000000    0.00000000    0.00000000
     The ionic contribution  to forces
     atom    1 type  1   force =    -0.00000000   -0.00000000   -0.00000000
     The local contribution  to forces
     atom    1 type  1   force =    -0.00000000   -0.00000000   -0.00000000
     The core correction contribution to forces
     atom    1 type  1   force =     0.00000000    0.00000000    0.00000000
     The Hubbard contrib.    to forces
     atom    1 type  1   force =     0.00000000    0.00000000    0.00000000
     The SCF correction term to forces
     atom    1 type  1   force =    -0.00000000   -0.00000000    0.00000000

     Total force =     0.000000     Total SCF correction =     0.000000


     Computing stress (Cartesian axis) and pressure

          total   stress  (Ry/bohr**3)                   (kbar)     P=        3.48
   0.00002363  -0.00000000  -0.00000000            3.48       -0.00       -0.00
  -0.00000000   0.00002363   0.00000000           -0.00        3.48        0.00
  -0.00000000   0.00000000   0.00002363           -0.00        0.00        3.48

     Energy error            =      3.5E-06 Ry
     Gradient error          =      0.0E+00 Ry/Bohr
     Cell gradient error     =      3.5E+00 kbar

     number of scf cycles    =   3
     number of bfgs steps    =   2

     enthalpy           old  =     -87.8433765390 Ry
     enthalpy           new  =     -87.8433730075 Ry

     CASE: enthalpy          _new > enthalpy          _old

     new trust radius        =       0.0006753828 bohr
     new conv_thr            =       0.0000000010 Ry

     new unit-cell volume =     75.58087 a.u.^3 (    11.19993 Ang^3 )
     density =      9.42154 g/cm^3

CELL_PARAMETERS (angstrom)
   0.000000000   1.775804273   1.775804273
   1.775804273   0.000000000   1.775804273
   1.775804273   1.775804273   0.000000000

ATOMIC_POSITIONS (angstrom)
Cu            0.0000000000        0.0000000000        0.0000000000



     Writing config-only to output data dir /home/gridsan/epan1/labutil/lab3_samples/problem3/Lab3/Cu_a_3.5_ecut_40_nk_14/pwscf.save/
     NEW-OLD atomic charge density approx. for the potential
     extrapolated charge   11.02151, renormalised to   11.00000
     Generating pointlists ...

     total cpu time spent up to now is       17.5 secs

     Self-consistent Calculation

     iteration #  1     ecut=    40.00 Ry     beta= 0.50
     Davidson diagonalization with overlap
     ethr =  1.00E-06,  avg # of iterations =  2.0

     total cpu time spent up to now is       18.2 secs

     total energy              =     -87.84306432 Ry
     estimated scf accuracy    <       0.00029678 Ry

     total magnetization       =     0.00 Bohr mag/cell
     absolute magnetization    =     0.00 Bohr mag/cell

     iteration #  2     ecut=    40.00 Ry     beta= 0.50
     Davidson diagonalization with overlap
     ethr =  2.70E-06,  avg # of iterations =  2.0

     total cpu time spent up to now is       18.9 secs

     total energy              =     -87.84337204 Ry
     estimated scf accuracy    <       0.00050370 Ry

     total magnetization       =     0.00 Bohr mag/cell
     absolute magnetization    =     0.00 Bohr mag/cell

     iteration #  3     ecut=    40.00 Ry     beta= 0.50
     Davidson diagonalization with overlap
     ethr =  2.70E-06,  avg # of iterations =  1.0

     total cpu time spent up to now is       19.4 secs

     total energy              =     -87.84339316 Ry
     estimated scf accuracy    <       0.00008938 Ry

     total magnetization       =     0.00 Bohr mag/cell
     absolute magnetization    =     0.00 Bohr mag/cell

     iteration #  4     ecut=    40.00 Ry     beta= 0.50
     Davidson diagonalization with overlap
     ethr =  8.13E-07,  avg # of iterations =  1.0

     total cpu time spent up to now is       19.9 secs

     total energy              =     -87.84336652 Ry
     estimated scf accuracy    <       0.00005520 Ry

     total magnetization       =     0.00 Bohr mag/cell
     absolute magnetization    =     0.00 Bohr mag/cell

     iteration #  5     ecut=    40.00 Ry     beta= 0.50
     Davidson diagonalization with overlap
     ethr =  5.02E-07,  avg # of iterations =  1.0

     total cpu time spent up to now is       20.4 secs

     total energy              =     -87.84337577 Ry
     estimated scf accuracy    <       0.00000019 Ry

     total magnetization       =     0.00 Bohr mag/cell
     absolute magnetization    =     0.00 Bohr mag/cell

     iteration #  6     ecut=    40.00 Ry     beta= 0.50
     Davidson diagonalization with overlap
     ethr =  1.69E-09,  avg # of iterations =  2.0

     total cpu time spent up to now is       21.0 secs

     total energy              =     -87.84337557 Ry
     estimated scf accuracy    <       0.00000134 Ry

     total magnetization       =    -0.00 Bohr mag/cell
     absolute magnetization    =     0.00 Bohr mag/cell

     iteration #  7     ecut=    40.00 Ry     beta= 0.50
     Davidson diagonalization with overlap
     ethr =  1.69E-09,  avg # of iterations =  2.0

     total cpu time spent up to now is       21.7 secs

     total energy              =     -87.84337589 Ry
     estimated scf accuracy    <       0.00000003 Ry

     total magnetization       =    -0.00 Bohr mag/cell
     absolute magnetization    =     0.00 Bohr mag/cell

     iteration #  8     ecut=    40.00 Ry     beta= 0.50
     Davidson diagonalization with overlap
     ethr =  2.54E-10,  avg # of iterations =  1.5

     total cpu time spent up to now is       22.4 secs

     total energy              =     -87.84337590 Ry
     estimated scf accuracy    <          5.1E-09 Ry

     total magnetization       =     0.00 Bohr mag/cell
     absolute magnetization    =     0.00 Bohr mag/cell

     iteration #  9     ecut=    40.00 Ry     beta= 0.50
     Davidson diagonalization with overlap
     ethr =  4.65E-11,  avg # of iterations =  1.0

     Magnetic moment per site  (integrated on atomic sphere of radius R)
     atom   1 (R=0.412)  charge=  9.7313  magn=  0.0000

     total cpu time spent up to now is       23.1 secs

     End of self-consistent calculation

     Number of k-points >= 100: set verbosity='high' to print the bands.

     the Fermi energy is    14.6456 ev

!    total energy              =     -87.84337590 Ry
     estimated scf accuracy    <          7.0E-10 Ry
     smearing contrib. (-TS)   =       0.00008155 Ry
     internal energy E=F+TS    =     -87.84345744 Ry

     The total energy is F=E-TS. E is the sum of the following terms:
     one-electron contribution =      -9.90157728 Ry
     hartree contribution      =      18.77784883 Ry
     xc contribution           =     -14.06119732 Ry
     ewald contribution        =     -82.65853167 Ry

     total magnetization       =     0.00 Bohr mag/cell
     absolute magnetization    =     0.00 Bohr mag/cell

     convergence has been achieved in   9 iterations

     Forces acting on atoms (cartesian axes, Ry/au):

     atom    1 type  1   force =     0.00000000    0.00000000    0.00000000
     The non-local contrib.  to forces
     atom    1 type  1   force =     0.00000000   -0.00000000    0.00000000
     The ionic contribution  to forces
     atom    1 type  1   force =    -0.00000000   -0.00000000   -0.00000000
     The local contribution  to forces
     atom    1 type  1   force =    -0.00000000   -0.00000000   -0.00000000
     The core correction contribution to forces
     atom    1 type  1   force =     0.00000000    0.00000000    0.00000000
     The Hubbard contrib.    to forces
     atom    1 type  1   force =     0.00000000    0.00000000    0.00000000
     The SCF correction term to forces
     atom    1 type  1   force =    -0.00000000   -0.00000000   -0.00000000

     Total force =     0.000000     Total SCF correction =     0.000000


     Computing stress (Cartesian axis) and pressure

          total   stress  (Ry/bohr**3)                   (kbar)     P=       -0.84
  -0.00000572   0.00000000   0.00000000           -0.84        0.00        0.00
   0.00000000  -0.00000572  -0.00000000            0.00       -0.84       -0.00
   0.00000000  -0.00000000  -0.00000572            0.00       -0.00       -0.84

     Energy error            =      6.4E-07 Ry
     Gradient error          =      0.0E+00 Ry/Bohr
     Cell gradient error     =      8.4E-01 kbar

     number of scf cycles    =   4
     number of bfgs steps    =   2

     enthalpy           old  =     -87.8433765390 Ry
     enthalpy           new  =     -87.8433758950 Ry

     CASE: enthalpy          _new > enthalpy          _old

     new trust radius        =       0.0002897778 bohr
     new conv_thr            =       0.0000000010 Ry

     new unit-cell volume =     75.63120 a.u.^3 (    11.20739 Ang^3 )
     density =      9.41527 g/cm^3

CELL_PARAMETERS (angstrom)
   0.000000000   1.776198322   1.776198322
   1.776198322   0.000000000   1.776198322
   1.776198322   1.776198322   0.000000000

ATOMIC_POSITIONS (angstrom)
Cu            0.0000000000        0.0000000000        0.0000000000



     Writing config-only to output data dir /home/gridsan/epan1/labutil/lab3_samples/problem3/Lab3/Cu_a_3.5_ecut_40_nk_14/pwscf.save/
     NEW-OLD atomic charge density approx. for the potential
     extrapolated charge   11.00732, renormalised to   11.00000
     Generating pointlists ...

     total cpu time spent up to now is       23.8 secs

     Self-consistent Calculation

     iteration #  1     ecut=    40.00 Ry     beta= 0.50
     Davidson diagonalization with overlap
     ethr =  1.00E-06,  avg # of iterations =  2.0

     total cpu time spent up to now is       24.5 secs

     total energy              =     -87.84334139 Ry
     estimated scf accuracy    <       0.00003352 Ry

     total magnetization       =     0.00 Bohr mag/cell
     absolute magnetization    =     0.00 Bohr mag/cell

     iteration #  2     ecut=    40.00 Ry     beta= 0.50
     Davidson diagonalization with overlap
     ethr =  3.05E-07,  avg # of iterations =  2.0

     total cpu time spent up to now is       25.1 secs

     total energy              =     -87.84337644 Ry
     estimated scf accuracy    <       0.00005787 Ry

     total magnetization       =     0.00 Bohr mag/cell
     absolute magnetization    =     0.00 Bohr mag/cell

     iteration #  3     ecut=    40.00 Ry     beta= 0.50
     Davidson diagonalization with overlap
     ethr =  3.05E-07,  avg # of iterations =  1.0

     total cpu time spent up to now is       25.6 secs

     total energy              =     -87.84337897 Ry
     estimated scf accuracy    <       0.00001030 Ry

     total magnetization       =     0.00 Bohr mag/cell
     absolute magnetization    =     0.00 Bohr mag/cell

     iteration #  4     ecut=    40.00 Ry     beta= 0.50
     Davidson diagonalization with overlap
     ethr =  9.37E-08,  avg # of iterations =  1.0

     total cpu time spent up to now is       26.1 secs

     total energy              =     -87.84337595 Ry
     estimated scf accuracy    <       0.00000669 Ry

     total magnetization       =     0.00 Bohr mag/cell
     absolute magnetization    =     0.00 Bohr mag/cell

     iteration #  5     ecut=    40.00 Ry     beta= 0.50
     Davidson diagonalization with overlap
     ethr =  6.08E-08,  avg # of iterations =  1.0

     total cpu time spent up to now is       26.6 secs

     total energy              =     -87.84337700 Ry
     estimated scf accuracy    <       0.00000004 Ry

     total magnetization       =     0.00 Bohr mag/cell
     absolute magnetization    =     0.00 Bohr mag/cell

     iteration #  6     ecut=    40.00 Ry     beta= 0.50
     Davidson diagonalization with overlap
     ethr =  3.70E-10,  avg # of iterations =  2.0

     total cpu time spent up to now is       27.3 secs

     total energy              =     -87.84337699 Ry
     estimated scf accuracy    <       0.00000019 Ry

     total magnetization       =    -0.00 Bohr mag/cell
     absolute magnetization    =     0.00 Bohr mag/cell

     iteration #  7     ecut=    40.00 Ry     beta= 0.50
     Davidson diagonalization with overlap
     ethr =  3.70E-10,  avg # of iterations =  2.0

     total cpu time spent up to now is       27.9 secs

     total energy              =     -87.84337703 Ry
     estimated scf accuracy    <          1.9E-09 Ry

     total magnetization       =    -0.00 Bohr mag/cell
     absolute magnetization    =     0.00 Bohr mag/cell

     iteration #  8     ecut=    40.00 Ry     beta= 0.50
     Davidson diagonalization with overlap
     ethr =  1.69E-11,  avg # of iterations =  1.8

     Magnetic moment per site  (integrated on atomic sphere of radius R)
     atom   1 (R=0.412)  charge=  9.7306  magn=  0.0000

     total cpu time spent up to now is       28.5 secs

     End of self-consistent calculation

     Number of k-points >= 100: set verbosity='high' to print the bands.

     the Fermi energy is    14.6321 ev

!    total energy              =     -87.84337703 Ry
     estimated scf accuracy    <          7.1E-10 Ry
     smearing contrib. (-TS)   =       0.00008170 Ry
     internal energy E=F+TS    =     -87.84345872 Ry

     The total energy is F=E-TS. E is the sum of the following terms:
     one-electron contribution =      -9.92960148 Ry
     hartree contribution      =      18.78714647 Ry
     xc contribution           =     -14.06080981 Ry
     ewald contribution        =     -82.64019391 Ry

     total magnetization       =    -0.00 Bohr mag/cell
     absolute magnetization    =     0.00 Bohr mag/cell

     convergence has been achieved in   8 iterations

     Forces acting on atoms (cartesian axes, Ry/au):

     atom    1 type  1   force =     0.00000000    0.00000000    0.00000000
     The non-local contrib.  to forces
     atom    1 type  1   force =     0.00000000    0.00000000   -0.00000000
     The ionic contribution  to forces
     atom    1 type  1   force =    -0.00000000   -0.00000000   -0.00000000
     The local contribution  to forces
     atom    1 type  1   force =    -0.00000000   -0.00000000    0.00000000
     The core correction contribution to forces
     atom    1 type  1   force =     0.00000000    0.00000000    0.00000000
     The Hubbard contrib.    to forces
     atom    1 type  1   force =     0.00000000    0.00000000    0.00000000
     The SCF correction term to forces
     atom    1 type  1   force =     0.00000000   -0.00000000   -0.00000000

     Total force =     0.000000     Total SCF correction =     0.000000


     Computing stress (Cartesian axis) and pressure

          total   stress  (Ry/bohr**3)                   (kbar)     P=       -2.00
  -0.00001359  -0.00000000   0.00000000           -2.00       -0.00        0.00
  -0.00000000  -0.00001359  -0.00000000           -0.00       -2.00       -0.00
   0.00000000  -0.00000000  -0.00001359            0.00       -0.00       -2.00

     Energy error            =      4.9E-07 Ry
     Gradient error          =      0.0E+00 Ry/Bohr
     Cell gradient error     =      2.0E+00 kbar

     number of scf cycles    =   5
     number of bfgs steps    =   2

     enthalpy           old  =     -87.8433765390 Ry
     enthalpy           new  =     -87.8433770283 Ry

     CASE: enthalpy          _new < enthalpy          _old

     new trust radius        =       0.0001291634 bohr
     new conv_thr            =       0.0000000010 Ry

     new unit-cell volume =     75.61435 a.u.^3 (    11.20489 Ang^3 )
     density =      9.41737 g/cm^3

CELL_PARAMETERS (angstrom)
   0.000000000   1.776066420   1.776066420
   1.776066420   0.000000000   1.776066420
   1.776066420   1.776066420   0.000000000

ATOMIC_POSITIONS (angstrom)
Cu            0.0000000000        0.0000000000        0.0000000000



     Writing config-only to output data dir /home/gridsan/epan1/labutil/lab3_samples/problem3/Lab3/Cu_a_3.5_ecut_40_nk_14/pwscf.save/
     NEW-OLD atomic charge density approx. for the potential
     extrapolated charge   10.99755, renormalised to   11.00000
     Generating pointlists ...

     total cpu time spent up to now is       28.8 secs

     Self-consistent Calculation

     iteration #  1     ecut=    40.00 Ry     beta= 0.50
     Davidson diagonalization with overlap
     ethr =  1.00E-06,  avg # of iterations =  2.0

     Threshold (ethr) on eigenvalues was too large:
     Diagonalizing with lowered threshold

     Davidson diagonalization with overlap
     ethr =  3.61E-08,  avg # of iterations =  1.0

     total cpu time spent up to now is       30.0 secs

     total energy              =     -87.84337302 Ry
     estimated scf accuracy    <       0.00000400 Ry

     total magnetization       =     0.00 Bohr mag/cell
     absolute magnetization    =     0.00 Bohr mag/cell

     iteration #  2     ecut=    40.00 Ry     beta= 0.50
     Davidson diagonalization with overlap
     ethr =  3.63E-08,  avg # of iterations =  2.0

     total cpu time spent up to now is       30.6 secs

     total energy              =     -87.84337707 Ry
     estimated scf accuracy    <       0.00000661 Ry

     total magnetization       =    -0.00 Bohr mag/cell
     absolute magnetization    =     0.00 Bohr mag/cell

     iteration #  3     ecut=    40.00 Ry     beta= 0.50
     Davidson diagonalization with overlap
     ethr =  3.63E-08,  avg # of iterations =  1.0

     total cpu time spent up to now is       31.1 secs

     total energy              =     -87.84337739 Ry
     estimated scf accuracy    <       0.00000113 Ry

     total magnetization       =     0.00 Bohr mag/cell
     absolute magnetization    =     0.00 Bohr mag/cell

     iteration #  4     ecut=    40.00 Ry     beta= 0.50
     Davidson diagonalization with overlap
     ethr =  1.03E-08,  avg # of iterations =  1.0

     total cpu time spent up to now is       31.6 secs

     total energy              =     -87.84337705 Ry
     estimated scf accuracy    <       0.00000077 Ry

     total magnetization       =     0.00 Bohr mag/cell
     absolute magnetization    =     0.00 Bohr mag/cell

     iteration #  5     ecut=    40.00 Ry     beta= 0.50
     Davidson diagonalization with overlap
     ethr =  7.03E-09,  avg # of iterations =  1.0

     total cpu time spent up to now is       32.1 secs

     total energy              =     -87.84337716 Ry
     estimated scf accuracy    <       0.00000001 Ry

     total magnetization       =     0.00 Bohr mag/cell
     absolute magnetization    =     0.00 Bohr mag/cell

     iteration #  6     ecut=    40.00 Ry     beta= 0.50
     Davidson diagonalization with overlap
     ethr =  9.82E-11,  avg # of iterations =  2.0

     total cpu time spent up to now is       32.8 secs

     total energy              =     -87.84337716 Ry
     estimated scf accuracy    <       0.00000003 Ry

     total magnetization       =     0.00 Bohr mag/cell
     absolute magnetization    =     0.00 Bohr mag/cell

     iteration #  7     ecut=    40.00 Ry     beta= 0.50
     Davidson diagonalization with overlap
     ethr =  9.82E-11,  avg # of iterations =  1.9

     Magnetic moment per site  (integrated on atomic sphere of radius R)
     atom   1 (R=0.412)  charge=  9.7308  magn=  0.0000

     total cpu time spent up to now is       33.4 secs

     End of self-consistent calculation

     Number of k-points >= 100: set verbosity='high' to print the bands.

     the Fermi energy is    14.6366 ev

!    total energy              =     -87.84337717 Ry
     estimated scf accuracy    <          4.6E-12 Ry
     smearing contrib. (-TS)   =       0.00008166 Ry
     internal energy E=F+TS    =     -87.84345882 Ry

     The total energy is F=E-TS. E is the sum of the following terms:
     one-electron contribution =      -9.92032962 Ry
     hartree contribution      =      18.78416970 Ry
     xc contribution           =     -14.06096761 Ry
     ewald contribution        =     -82.64633129 Ry

     total magnetization       =     0.00 Bohr mag/cell
     absolute magnetization    =     0.00 Bohr mag/cell

     convergence has been achieved in   7 iterations

     Forces acting on atoms (cartesian axes, Ry/au):

     atom    1 type  1   force =     0.00000000    0.00000000    0.00000000
     The non-local contrib.  to forces
     atom    1 type  1   force =     0.00000000    0.00000000    0.00000000
     The ionic contribution  to forces
     atom    1 type  1   force =    -0.00000000   -0.00000000   -0.00000000
     The local contribution  to forces
     atom    1 type  1   force =    -0.00000000   -0.00000000   -0.00000000
     The core correction contribution to forces
     atom    1 type  1   force =     0.00000000    0.00000000    0.00000000
     The Hubbard contrib.    to forces
     atom    1 type  1   force =     0.00000000    0.00000000    0.00000000
     The SCF correction term to forces
     atom    1 type  1   force =    -0.00000000   -0.00000000    0.00000000

     Total force =     0.000000     Total SCF correction =     0.000000


     Computing stress (Cartesian axis) and pressure

          total   stress  (Ry/bohr**3)                   (kbar)     P=       -1.04
  -0.00000710  -0.00000000  -0.00000000           -1.04       -0.00       -0.00
  -0.00000000  -0.00000710   0.00000000           -0.00       -1.04        0.00
   0.00000000  -0.00000000  -0.00000710            0.00       -0.00       -1.04

     Energy error            =      1.4E-07 Ry
     Gradient error          =      0.0E+00 Ry/Bohr
     Cell gradient error     =      1.0E+00 kbar

     number of scf cycles    =   6
     number of bfgs steps    =   3

     enthalpy           old  =     -87.8433770283 Ry
     enthalpy           new  =     -87.8433771656 Ry

     CASE: enthalpy          _new < enthalpy          _old

     new trust radius        =       0.0001412158 bohr
     new conv_thr            =       0.0000000010 Ry

     new unit-cell volume =     75.59593 a.u.^3 (    11.20216 Ang^3 )
     density =      9.41967 g/cm^3

CELL_PARAMETERS (angstrom)
   0.000000000   1.775922205   1.775922205
   1.775922205   0.000000000   1.775922205
   1.775922205   1.775922205   0.000000000

ATOMIC_POSITIONS (angstrom)
Cu            0.0000000000        0.0000000000        0.0000000000



     Writing config-only to output data dir /home/gridsan/epan1/labutil/lab3_samples/problem3/Lab3/Cu_a_3.5_ecut_40_nk_14/pwscf.save/
     NEW-OLD atomic charge density approx. for the potential
     extrapolated charge   10.99732, renormalised to   11.00000
     Generating pointlists ...

     total cpu time spent up to now is       33.6 secs

     Self-consistent Calculation

     iteration #  1     ecut=    40.00 Ry     beta= 0.50
     Davidson diagonalization with overlap
     ethr =  1.00E-06,  avg # of iterations =  2.0

     Threshold (ethr) on eigenvalues was too large:
     Diagonalizing with lowered threshold

     Davidson diagonalization with overlap
     ethr =  4.14E-08,  avg # of iterations =  1.0

     total cpu time spent up to now is       35.2 secs

     total energy              =     -87.84337244 Ry
     estimated scf accuracy    <       0.00000457 Ry

     total magnetization       =     0.00 Bohr mag/cell
     absolute magnetization    =     0.00 Bohr mag/cell

     iteration #  2     ecut=    40.00 Ry     beta= 0.50
     Davidson diagonalization with overlap
     ethr =  4.16E-08,  avg # of iterations =  2.0

     total cpu time spent up to now is       35.9 secs

     total energy              =     -87.84337717 Ry
     estimated scf accuracy    <       0.00000780 Ry

     total magnetization       =     0.00 Bohr mag/cell
     absolute magnetization    =     0.00 Bohr mag/cell

     iteration #  3     ecut=    40.00 Ry     beta= 0.50
     Davidson diagonalization with overlap
     ethr =  4.16E-08,  avg # of iterations =  1.0

     total cpu time spent up to now is       36.4 secs

     total energy              =     -87.84337755 Ry
     estimated scf accuracy    <       0.00000137 Ry

     total magnetization       =     0.00 Bohr mag/cell
     absolute magnetization    =     0.00 Bohr mag/cell

     iteration #  4     ecut=    40.00 Ry     beta= 0.50
     Davidson diagonalization with overlap
     ethr =  1.24E-08,  avg # of iterations =  1.0

     total cpu time spent up to now is       36.9 secs

     total energy              =     -87.84337713 Ry
     estimated scf accuracy    <       0.00000096 Ry

     total magnetization       =     0.00 Bohr mag/cell
     absolute magnetization    =     0.00 Bohr mag/cell

     iteration #  5     ecut=    40.00 Ry     beta= 0.50
     Davidson diagonalization with overlap
     ethr =  8.71E-09,  avg # of iterations =  1.0

     total cpu time spent up to now is       37.4 secs

     total energy              =     -87.84337726 Ry
     estimated scf accuracy    <       0.00000001 Ry

     total magnetization       =     0.00 Bohr mag/cell
     absolute magnetization    =     0.00 Bohr mag/cell

     iteration #  6     ecut=    40.00 Ry     beta= 0.50
     Davidson diagonalization with overlap
     ethr =  1.28E-10,  avg # of iterations =  2.0

     total cpu time spent up to now is       38.0 secs

     total energy              =     -87.84337726 Ry
     estimated scf accuracy    <       0.00000003 Ry

     total magnetization       =     0.00 Bohr mag/cell
     absolute magnetization    =     0.00 Bohr mag/cell

     iteration #  7     ecut=    40.00 Ry     beta= 0.50
     Davidson diagonalization with overlap
     ethr =  1.28E-10,  avg # of iterations =  1.8

     Magnetic moment per site  (integrated on atomic sphere of radius R)
     atom   1 (R=0.412)  charge=  9.7311  magn=  0.0000

     total cpu time spent up to now is       38.6 secs

     End of self-consistent calculation

     Number of k-points >= 100: set verbosity='high' to print the bands.

     the Fermi energy is    14.6415 ev

!    total energy              =     -87.84337726 Ry
     estimated scf accuracy    <          2.1E-11 Ry
     smearing contrib. (-TS)   =       0.00008160 Ry
     internal energy E=F+TS    =     -87.84345887 Ry

     The total energy is F=E-TS. E is the sum of the following terms:
     one-electron contribution =      -9.91006260 Ry
     hartree contribution      =      18.78075355 Ry
     xc contribution           =     -14.06110718 Ry
     ewald contribution        =     -82.65304264 Ry

     total magnetization       =     0.00 Bohr mag/cell
     absolute magnetization    =     0.00 Bohr mag/cell

     convergence has been achieved in   7 iterations

     Forces acting on atoms (cartesian axes, Ry/au):

     atom    1 type  1   force =     0.00000000    0.00000000    0.00000000
     The non-local contrib.  to forces
     atom    1 type  1   force =     0.00000000    0.00000000    0.00000000
     The ionic contribution  to forces
     atom    1 type  1   force =    -0.00000000   -0.00000000   -0.00000000
     The local contribution  to forces
     atom    1 type  1   force =    -0.00000000   -0.00000000   -0.00000000
     The core correction contribution to forces
     atom    1 type  1   force =     0.00000000    0.00000000    0.00000000
     The Hubbard contrib.    to forces
     atom    1 type  1   force =     0.00000000    0.00000000    0.00000000
     The SCF correction term to forces
     atom    1 type  1   force =     0.00000000   -0.00000000    0.00000000

     Total force =     0.000000     Total SCF correction =     0.000000


     Computing stress (Cartesian axis) and pressure

          total   stress  (Ry/bohr**3)                   (kbar)     P=       -0.68
  -0.00000461  -0.00000000  -0.00000000           -0.68       -0.00       -0.00
  -0.00000000  -0.00000461  -0.00000000           -0.00       -0.68       -0.00
  -0.00000000  -0.00000000  -0.00000461           -0.00       -0.00       -0.68

     Energy error            =      9.9E-08 Ry
     Gradient error          =      0.0E+00 Ry/Bohr
     Cell gradient error     =      6.8E-01 kbar

     number of scf cycles    =   7
     number of bfgs steps    =   4

     enthalpy           old  =     -87.8433771656 Ry
     enthalpy           new  =     -87.8433772647 Ry

     CASE: enthalpy          _new < enthalpy          _old

     new trust radius        =       0.0001553311 bohr
     new conv_thr            =       0.0000000010 Ry

     new unit-cell volume =     75.57567 a.u.^3 (    11.19916 Ang^3 )
     density =      9.42219 g/cm^3

CELL_PARAMETERS (angstrom)
   0.000000000   1.775763569   1.775763569
   1.775763569   0.000000000   1.775763569
   1.775763569   1.775763569   0.000000000

ATOMIC_POSITIONS (angstrom)
Cu            0.0000000000        0.0000000000        0.0000000000



     Writing config-only to output data dir /home/gridsan/epan1/labutil/lab3_samples/problem3/Lab3/Cu_a_3.5_ecut_40_nk_14/pwscf.save/
     NEW-OLD atomic charge density approx. for the potential
     extrapolated charge   10.99705, renormalised to   11.00000
     Generating pointlists ...

     total cpu time spent up to now is       39.2 secs

     Self-consistent Calculation

     iteration #  1     ecut=    40.00 Ry     beta= 0.50
     Davidson diagonalization with overlap
     ethr =  1.00E-06,  avg # of iterations =  2.0

     Threshold (ethr) on eigenvalues was too large:
     Diagonalizing with lowered threshold

     Davidson diagonalization with overlap
     ethr =  5.02E-08,  avg # of iterations =  1.0

     total cpu time spent up to now is       40.3 secs

     total energy              =     -87.84336864 Ry
     estimated scf accuracy    <       0.00000555 Ry

     total magnetization       =     0.00 Bohr mag/cell
     absolute magnetization    =     0.00 Bohr mag/cell

     iteration #  2     ecut=    40.00 Ry     beta= 0.50
     Davidson diagonalization with overlap
     ethr =  5.05E-08,  avg # of iterations =  2.0

     total cpu time spent up to now is       41.0 secs

     total energy              =     -87.84337438 Ry
     estimated scf accuracy    <       0.00000944 Ry

     total magnetization       =     0.00 Bohr mag/cell
     absolute magnetization    =     0.00 Bohr mag/cell

     iteration #  3     ecut=    40.00 Ry     beta= 0.50
     Davidson diagonalization with overlap
     ethr =  5.05E-08,  avg # of iterations =  1.0

     total cpu time spent up to now is       41.5 secs

     total energy              =     -87.84337483 Ry
     estimated scf accuracy    <       0.00000165 Ry

     total magnetization       =     0.00 Bohr mag/cell
     absolute magnetization    =     0.00 Bohr mag/cell

     iteration #  4     ecut=    40.00 Ry     beta= 0.50
     Davidson diagonalization with overlap
     ethr =  1.50E-08,  avg # of iterations =  1.0

     total cpu time spent up to now is       42.0 secs

     total energy              =     -87.84337432 Ry
     estimated scf accuracy    <       0.00000116 Ry

     total magnetization       =     0.00 Bohr mag/cell
     absolute magnetization    =     0.00 Bohr mag/cell

     iteration #  5     ecut=    40.00 Ry     beta= 0.50
     Davidson diagonalization with overlap
     ethr =  1.06E-08,  avg # of iterations =  1.0

     total cpu time spent up to now is       42.5 secs

     total energy              =     -87.84337448 Ry
     estimated scf accuracy    <       0.00000002 Ry

     total magnetization       =     0.00 Bohr mag/cell
     absolute magnetization    =     0.00 Bohr mag/cell

     iteration #  6     ecut=    40.00 Ry     beta= 0.50
     Davidson diagonalization with overlap
     ethr =  1.58E-10,  avg # of iterations =  2.0

     total cpu time spent up to now is       43.1 secs

     total energy              =     -87.84337448 Ry
     estimated scf accuracy    <       0.00000004 Ry

     total magnetization       =     0.00 Bohr mag/cell
     absolute magnetization    =     0.00 Bohr mag/cell

     iteration #  7     ecut=    40.00 Ry     beta= 0.50
     Davidson diagonalization with overlap
     ethr =  1.58E-10,  avg # of iterations =  1.8

     Magnetic moment per site  (integrated on atomic sphere of radius R)
     atom   1 (R=0.412)  charge=  9.7313  magn=  0.0000

     total cpu time spent up to now is       43.7 secs

     End of self-consistent calculation

     Number of k-points >= 100: set verbosity='high' to print the bands.

     the Fermi energy is    14.6469 ev

!    total energy              =     -87.84337449 Ry
     estimated scf accuracy    <          1.2E-11 Ry
     smearing contrib. (-TS)   =       0.00008154 Ry
     internal energy E=F+TS    =     -87.84345604 Ry

     The total energy is F=E-TS. E is the sum of the following terms:
     one-electron contribution =      -9.89878407 Ry
     hartree contribution      =      18.77701672 Ry
     xc contribution           =     -14.06126230 Ry
     ewald contribution        =     -82.66042639 Ry

     total magnetization       =     0.00 Bohr mag/cell
     absolute magnetization    =     0.00 Bohr mag/cell

     convergence has been achieved in   7 iterations

     Forces acting on atoms (cartesian axes, Ry/au):

     atom    1 type  1   force =     0.00000000    0.00000000    0.00000000
     The non-local contrib.  to forces
     atom    1 type  1   force =     0.00000000   -0.00000000   -0.00000000
     The ionic contribution  to forces
     atom    1 type  1   force =    -0.00000000   -0.00000000   -0.00000000
     The local contribution  to forces
     atom    1 type  1   force =    -0.00000000   -0.00000000   -0.00000000
     The core correction contribution to forces
     atom    1 type  1   force =     0.00000000    0.00000000    0.00000000
     The Hubbard contrib.    to forces
     atom    1 type  1   force =     0.00000000    0.00000000    0.00000000
     The SCF correction term to forces
     atom    1 type  1   force =    -0.00000000   -0.00000000   -0.00000000

     Total force =     0.000000     Total SCF correction =     0.000000


     Computing stress (Cartesian axis) and pressure

          total   stress  (Ry/bohr**3)                   (kbar)     P=       -0.18
  -0.00000122  -0.00000000  -0.00000000           -0.18       -0.00       -0.00
  -0.00000000  -0.00000122   0.00000000           -0.00       -0.18        0.00
  -0.00000000  -0.00000000  -0.00000122           -0.00       -0.00       -0.18

     Energy error            =      2.8E-06 Ry
     Gradient error          =      0.0E+00 Ry/Bohr
     Cell gradient error     =      1.8E-01 kbar
Begin final coordinates
     new unit-cell volume =     75.57567 a.u.^3 (    11.19916 Ang^3 )
     density =      9.42219 g/cm^3

CELL_PARAMETERS (angstrom)
   0.000000000   1.775763569   1.775763569
   1.775763569   0.000000000   1.775763569
   1.775763569   1.775763569   0.000000000

ATOMIC_POSITIONS (angstrom)
Cu            0.0000000000        0.0000000000        0.0000000000
End final coordinates



     Writing config-only to output data dir /home/gridsan/epan1/labutil/lab3_samples/problem3/Lab3/Cu_a_3.5_ecut_40_nk_14/pwscf.save/

     lsda relaxation :  a final configuration with zero
                        absolute magnetization has been found

     the program is checking if it is really the minimum energy structure
     by performing a new scf iteration without any "electronic" history

     Initial potential from superposition of free atoms

     starting charge      10.9997, renormalised to      11.0000

     total cpu time spent up to now is       44.0 secs

     Self-consistent Calculation

     iteration #  1     ecut=    40.00 Ry     beta= 0.50
     Davidson diagonalization with overlap
     ethr =  1.00E-06,  avg # of iterations =  4.2

     total cpu time spent up to now is       45.0 secs

     total energy              =     -86.92810324 Ry
     estimated scf accuracy    <       1.49912281 Ry

     total magnetization       =     1.82 Bohr mag/cell
     absolute magnetization    =     1.94 Bohr mag/cell

     iteration #  2     ecut=    40.00 Ry     beta= 0.50
     Davidson diagonalization with overlap
     ethr =  1.00E-02,  avg # of iterations =  1.5

     total cpu time spent up to now is       45.6 secs

     total energy              =     -87.60941547 Ry
     estimated scf accuracy    <       0.80065698 Ry

     total magnetization       =     0.31 Bohr mag/cell
     absolute magnetization    =     0.49 Bohr mag/cell

     iteration #  3     ecut=    40.00 Ry     beta= 0.50
     Davidson diagonalization with overlap
     ethr =  7.28E-03,  avg # of iterations =  1.0

     negative rho (up, down):  0.000E+00 9.025E-07

     total cpu time spent up to now is       46.1 secs

     total energy              =     -87.79351707 Ry
     estimated scf accuracy    <       0.22804712 Ry

     total magnetization       =     0.33 Bohr mag/cell
     absolute magnetization    =     0.52 Bohr mag/cell

     iteration #  4     ecut=    40.00 Ry     beta= 0.50
     Davidson diagonalization with overlap
     ethr =  2.07E-03,  avg # of iterations =  1.5

     negative rho (up, down):  0.000E+00 2.357E-07

     total cpu time spent up to now is       46.7 secs

     total energy              =     -87.82862217 Ry
     estimated scf accuracy    <       0.05220651 Ry

     total magnetization       =    -0.03 Bohr mag/cell
     absolute magnetization    =     0.05 Bohr mag/cell

     iteration #  5     ecut=    40.00 Ry     beta= 0.50
     Davidson diagonalization with overlap
     ethr =  4.75E-04,  avg # of iterations =  1.2

     total cpu time spent up to now is       47.2 secs

     total energy              =     -87.84214489 Ry
     estimated scf accuracy    <       0.00201721 Ry

     total magnetization       =    -0.04 Bohr mag/cell
     absolute magnetization    =     0.04 Bohr mag/cell

     iteration #  6     ecut=    40.00 Ry     beta= 0.50
     Davidson diagonalization with overlap
     ethr =  1.83E-05,  avg # of iterations =  1.4

     total cpu time spent up to now is       47.7 secs

     total energy              =     -87.84325184 Ry
     estimated scf accuracy    <       0.00044764 Ry

     total magnetization       =     0.02 Bohr mag/cell
     absolute magnetization    =     0.04 Bohr mag/cell

     iteration #  7     ecut=    40.00 Ry     beta= 0.50
     Davidson diagonalization with overlap
     ethr =  4.07E-06,  avg # of iterations =  1.1

     total cpu time spent up to now is       48.2 secs

     total energy              =     -87.84336924 Ry
     estimated scf accuracy    <       0.00001447 Ry

     total magnetization       =     0.00 Bohr mag/cell
     absolute magnetization    =     0.01 Bohr mag/cell

     iteration #  8     ecut=    40.00 Ry     beta= 0.50
     Davidson diagonalization with overlap
     ethr =  1.32E-07,  avg # of iterations =  1.5

     total cpu time spent up to now is       48.8 secs

     total energy              =     -87.84337352 Ry
     estimated scf accuracy    <       0.00000431 Ry

     total magnetization       =     0.00 Bohr mag/cell
     absolute magnetization    =     0.00 Bohr mag/cell

     iteration #  9     ecut=    40.00 Ry     beta= 0.50
     Davidson diagonalization with overlap
     ethr =  3.92E-08,  avg # of iterations =  1.2

     total cpu time spent up to now is       49.3 secs

     total energy              =     -87.84337448 Ry
     estimated scf accuracy    <       0.00000002 Ry

     total magnetization       =     0.00 Bohr mag/cell
     absolute magnetization    =     0.00 Bohr mag/cell

     iteration # 10     ecut=    40.00 Ry     beta= 0.50
     Davidson diagonalization with overlap
     ethr =  1.75E-10,  avg # of iterations =  1.9

     total cpu time spent up to now is       50.0 secs

     total energy              =     -87.84337449 Ry
     estimated scf accuracy    <          1.3E-09 Ry

     total magnetization       =     0.00 Bohr mag/cell
     absolute magnetization    =     0.00 Bohr mag/cell

     iteration # 11     ecut=    40.00 Ry     beta= 0.50
     Davidson diagonalization with overlap
     ethr =  1.21E-11,  avg # of iterations =  1.7

     total cpu time spent up to now is       50.5 secs

     total energy              =     -87.84337449 Ry
     estimated scf accuracy    <          1.0E-09 Ry

     total magnetization       =     0.00 Bohr mag/cell
     absolute magnetization    =     0.00 Bohr mag/cell

     iteration # 12     ecut=    40.00 Ry     beta= 0.50
     Davidson diagonalization with overlap
     ethr =  9.28E-12,  avg # of iterations =  1.3

     Magnetic moment per site  (integrated on atomic sphere of radius R)
     atom   1 (R=0.412)  charge=  9.7313  magn=  0.0000

     total cpu time spent up to now is       51.1 secs

     End of self-consistent calculation

     Number of k-points >= 100: set verbosity='high' to print the bands.

     the Fermi energy is    14.6469 ev

!    total energy              =     -87.84337449 Ry
     estimated scf accuracy    <          1.7E-12 Ry
     smearing contrib. (-TS)   =       0.00008155 Ry
     internal energy E=F+TS    =     -87.84345604 Ry

     The total energy is F=E-TS. E is the sum of the following terms:
     one-electron contribution =      -9.89879118 Ry
     hartree contribution      =      18.77702586 Ry
     xc contribution           =     -14.06126433 Ry
     ewald contribution        =     -82.66042639 Ry

     total magnetization       =     0.00 Bohr mag/cell
     absolute magnetization    =     0.00 Bohr mag/cell

     convergence has been achieved in  12 iterations

     Forces acting on atoms (cartesian axes, Ry/au):

     atom    1 type  1   force =     0.00000000    0.00000000    0.00000000
     The non-local contrib.  to forces
     atom    1 type  1   force =    -0.00000000   -0.00000000   -0.00000000
     The ionic contribution  to forces
     atom    1 type  1   force =    -0.00000000   -0.00000000   -0.00000000
     The local contribution  to forces
     atom    1 type  1   force =    -0.00000000   -0.00000000   -0.00000000
     The core correction contribution to forces
     atom    1 type  1   force =     0.00000000    0.00000000    0.00000000
     The Hubbard contrib.    to forces
     atom    1 type  1   force =     0.00000000    0.00000000    0.00000000
     The SCF correction term to forces
     atom    1 type  1   force =     0.00000000    0.00000000    0.00000000

     Total force =     0.000000     Total SCF correction =     0.000000


     Computing stress (Cartesian axis) and pressure

          total   stress  (Ry/bohr**3)                   (kbar)     P=       -0.14
  -0.00000094  -0.00000000  -0.00000000           -0.14       -0.00       -0.00
   0.00000000  -0.00000094  -0.00000000            0.00       -0.14       -0.00
  -0.00000000  -0.00000000  -0.00000094           -0.00       -0.00       -0.14

     Energy error            =      2.8E-06 Ry
     Gradient error          =      0.0E+00 Ry/Bohr
     Cell gradient error     =      1.4E-01 kbar

     bfgs converged in   8 scf cycles and   5 bfgs steps
     (criteria: energy <  1.0E-04 Ry, force <  1.0E-03 Ry/Bohr, cell <  5.0E-01 kbar)

     End of BFGS Geometry Optimization

     Final enthalpy           =     -87.8433744906 Ry

     File /home/gridsan/epan1/labutil/lab3_samples/problem3/Lab3/Cu_a_3.5_ecut_40_nk_14/pwscf.bfgs deleted, as requested
Begin final coordinates
     new unit-cell volume =     75.57567 a.u.^3 (    11.19916 Ang^3 )
     density =      9.42219 g/cm^3

CELL_PARAMETERS (angstrom)
   0.000000000   1.775763569   1.775763569
   1.775763569   0.000000000   1.775763569
   1.775763569   1.775763569   0.000000000

ATOMIC_POSITIONS (angstrom)
Cu            0.0000000000        0.0000000000        0.0000000000
End final coordinates



     Writing config-only to output data dir /home/gridsan/epan1/labutil/lab3_samples/problem3/Lab3/Cu_a_3.5_ecut_40_nk_14/pwscf.save/

     Final scf calculation at the relaxed structure.
     The G-vectors are recalculated for the final unit cell
     Results may differ from those at the preceding step.

     Parallelization info
     --------------------
     sticks:   dense  smooth     PW     G-vecs:    dense   smooth      PW
     Min          62      31     10                  922      329      66
     Max          63      32     11                  926      331      69
     Sum         499     253     85                 7391     2637     537

     Using Slab Decomposition



     bravais-lattice index     =            0
     lattice parameter (alat)  =       4.6768  a.u.
     unit-cell volume          =      75.5757 (a.u.)^3
     number of atoms/cell      =            1
     number of atomic types    =            1
     number of electrons       =        11.00
     number of Kohn-Sham states=           10
     kinetic-energy cutoff     =      40.0000  Ry
     charge density cutoff     =     320.0000  Ry
     scf convergence threshold =      1.0E-09
     mixing beta               =       0.5000
     number of iterations used =            8  plain     mixing
     press convergence thresh. =      5.0E-01
     Exchange-correlation=  SLA  PZ   NOGX NOGC
                           (   1   1   0   0   0   0   0)

     celldm(1)=   4.676834  celldm(2)=   0.000000  celldm(3)=   0.000000
     celldm(4)=   0.000000  celldm(5)=   0.000000  celldm(6)=   0.000000

     crystal axes: (cart. coord. in units of alat)
               a(1) = (   0.000000   0.717517   0.717517 )  
               a(2) = (   0.717517   0.000000   0.717517 )  
               a(3) = (   0.717517   0.717517   0.000000 )  

     reciprocal axes: (cart. coord. in units 2 pi/alat)
               b(1) = ( -0.696848  0.696848  0.696848 )  
               b(2) = (  0.696848 -0.696848  0.696848 )  
               b(3) = (  0.696848  0.696848 -0.696848 )  


     PseudoPot. # 1 for Cu read from file:
     /home/gridsan/epan1/labutil/lab3_samples/pseudopotentials/Cu.pz-d-rrkjus.UPF
     MD5 check sum: fd38ae683e239c95a66f426e1f8e5fc7
     Pseudo is Ultrasoft, Zval = 11.0
     Generated by new atomic code, or converted to UPF format
     Using radial grid of  899 points,  3 beta functions with: 
                l(1) =   2
                l(2) =   2
                l(3) =   1
     Q(r) pseudized with 0 coefficients 


     atomic species   valence    mass     pseudopotential
        Cu            11.00    63.54600     Cu( 1.00)

     Starting magnetic structure 
     atomic species   magnetization
        Cu           0.000

     48 Sym. Ops., with inversion, found



   Cartesian axes

     site n.     atom                  positions (alat units)
         1           Cu  tau(   1) = (   0.0000000   0.0000000   0.0000000  )

     number of k points=   104  Methfessel-Paxton smearing, width (Ry)=  0.0200

     Number of k-points >= 100: set verbosity='high' to print them.

     Dense  grid:     7391 G-vectors     FFT dimensions: (  27,  27,  27)

     Smooth grid:     2637 G-vectors     FFT dimensions: (  20,  20,  20)

     Estimated max dynamical RAM per process >       4.81 MB

     Estimated total dynamical RAM >      38.47 MB
     Generating pointlists ...

     Initial potential from superposition of free atoms

     starting charge      10.9997, renormalised to      11.0000
     Starting wfcs are    6 randomized atomic wfcs +    4 random wfcs

     total cpu time spent up to now is       51.6 secs

     Self-consistent Calculation

     iteration #  1     ecut=    40.00 Ry     beta= 0.50
     Davidson diagonalization with overlap
     c_bands:  1 eigenvalues not converged
     c_bands:  1 eigenvalues not converged
     c_bands:  1 eigenvalues not converged
     c_bands:  1 eigenvalues not converged
     c_bands:  1 eigenvalues not converged
     c_bands:  1 eigenvalues not converged
     c_bands:  1 eigenvalues not converged
     ethr =  1.00E-06,  avg # of iterations = 13.2

     total cpu time spent up to now is       53.7 secs

     total energy              =     -87.76317368 Ry
     estimated scf accuracy    <       0.24324661 Ry

     total magnetization       =     0.00 Bohr mag/cell
     absolute magnetization    =     0.00 Bohr mag/cell

     iteration #  2     ecut=    40.00 Ry     beta= 0.50
     Davidson diagonalization with overlap
     ethr =  2.21E-03,  avg # of iterations =  1.5

     total cpu time spent up to now is       54.2 secs

     total energy              =     -87.83681678 Ry
     estimated scf accuracy    <       0.03802812 Ry

     total magnetization       =     0.00 Bohr mag/cell
     absolute magnetization    =     0.00 Bohr mag/cell

     iteration #  3     ecut=    40.00 Ry     beta= 0.50
     Davidson diagonalization with overlap
     ethr =  3.46E-04,  avg # of iterations =  1.0

     total cpu time spent up to now is       54.7 secs

     total energy              =     -87.84330658 Ry
     estimated scf accuracy    <       0.00020470 Ry

     total magnetization       =     0.00 Bohr mag/cell
     absolute magnetization    =     0.00 Bohr mag/cell

     iteration #  4     ecut=    40.00 Ry     beta= 0.50
     Davidson diagonalization with overlap
     ethr =  1.86E-06,  avg # of iterations =  2.4

     total cpu time spent up to now is       55.4 secs

     total energy              =     -87.84337634 Ry
     estimated scf accuracy    <       0.00006899 Ry

     total magnetization       =     0.00 Bohr mag/cell
     absolute magnetization    =     0.00 Bohr mag/cell

     iteration #  5     ecut=    40.00 Ry     beta= 0.50
     Davidson diagonalization with overlap
     ethr =  6.27E-07,  avg # of iterations =  1.0

     total cpu time spent up to now is       55.9 secs

     total energy              =     -87.84338976 Ry
     estimated scf accuracy    <       0.00000001 Ry

     total magnetization       =     0.00 Bohr mag/cell
     absolute magnetization    =     0.00 Bohr mag/cell

     iteration #  6     ecut=    40.00 Ry     beta= 0.50
     Davidson diagonalization with overlap
     ethr =  1.00E-10,  avg # of iterations =  3.7

     total cpu time spent up to now is       56.7 secs

     total energy              =     -87.84338840 Ry
     estimated scf accuracy    <       0.00000005 Ry

     total magnetization       =     0.00 Bohr mag/cell
     absolute magnetization    =     0.00 Bohr mag/cell

     iteration #  7     ecut=    40.00 Ry     beta= 0.50
     Davidson diagonalization with overlap
     ethr =  1.00E-10,  avg # of iterations =  1.7

     total cpu time spent up to now is       57.3 secs

     total energy              =     -87.84338840 Ry
     estimated scf accuracy    <          3.1E-09 Ry

     total magnetization       =     0.00 Bohr mag/cell
     absolute magnetization    =     0.00 Bohr mag/cell

     iteration #  8     ecut=    40.00 Ry     beta= 0.50
     Davidson diagonalization with overlap
     ethr =  2.84E-11,  avg # of iterations =  1.1

     Magnetic moment per site  (integrated on atomic sphere of radius R)
     atom   1 (R=0.412)  charge=  9.7314  magn=  0.0000

     total cpu time spent up to now is       57.8 secs

     End of self-consistent calculation

     Number of k-points >= 100: set verbosity='high' to print the bands.

     the Fermi energy is    14.6469 ev

!    total energy              =     -87.84338840 Ry
     estimated scf accuracy    <          2.4E-12 Ry
     smearing contrib. (-TS)   =       0.00008156 Ry
     internal energy E=F+TS    =     -87.84346996 Ry

     The total energy is F=E-TS. E is the sum of the following terms:
     one-electron contribution =      -9.89875709 Ry
     hartree contribution      =      18.77694913 Ry
     xc contribution           =     -14.06123562 Ry
     ewald contribution        =     -82.66042639 Ry

     total magnetization       =     0.00 Bohr mag/cell
     absolute magnetization    =     0.00 Bohr mag/cell

     convergence has been achieved in   8 iterations

     Forces acting on atoms (cartesian axes, Ry/au):

     atom    1 type  1   force =     0.00000000    0.00000000    0.00000000
     The non-local contrib.  to forces
     atom    1 type  1   force =    -0.00000000   -0.00000000    0.00000000
     The ionic contribution  to forces
     atom    1 type  1   force =    -0.00000000   -0.00000000   -0.00000000
     The local contribution  to forces
     atom    1 type  1   force =    -0.00000000   -0.00000000   -0.00000000
     The core correction contribution to forces
     atom    1 type  1   force =     0.00000000    0.00000000    0.00000000
     The Hubbard contrib.    to forces
     atom    1 type  1   force =     0.00000000    0.00000000    0.00000000
     The SCF correction term to forces
     atom    1 type  1   force =     0.00000000   -0.00000000   -0.00000000

     Total force =     0.000000     Total SCF correction =     0.000000


     Computing stress (Cartesian axis) and pressure

          total   stress  (Ry/bohr**3)                   (kbar)     P=       -0.02
  -0.00000012   0.00000000   0.00000000           -0.02        0.00        0.00
   0.00000000  -0.00000012   0.00000000            0.00       -0.02        0.00
   0.00000000   0.00000000  -0.00000012            0.00        0.00       -0.02


     init_run     :      0.54s CPU      0.63s WALL (       2 calls)
     electrons    :     51.65s CPU     53.76s WALL (      10 calls)
     update_pot   :      0.29s CPU      0.30s WALL (       7 calls)
     forces       :      0.66s CPU      0.76s WALL (      10 calls)
     stress       :      1.65s CPU      1.68s WALL (      10 calls)

     Called by init_run:
     wfcinit      :      0.25s CPU      0.28s WALL (       2 calls)
     potinit      :      0.15s CPU      0.16s WALL (       3 calls)
     hinit0       :      0.14s CPU      0.15s WALL (       2 calls)

     Called by electrons:
     c_bands      :     44.95s CPU     47.17s WALL (      88 calls)
     sum_band     :      6.07s CPU      5.72s WALL (      88 calls)
     v_of_rho     :      0.22s CPU      0.22s WALL (      95 calls)
     newd         :      0.21s CPU      0.19s WALL (      95 calls)
     mix_rho      :      0.09s CPU      0.10s WALL (      88 calls)

     Called by c_bands:
     init_us_2    :      0.93s CPU      0.91s WALL (   41184 calls)
     init_us_2:cp :      0.87s CPU      0.84s WALL (   41184 calls)
     cegterg      :     38.00s CPU     37.39s WALL (   18304 calls)

     Called by *egterg:
     cdiaghg      :      8.93s CPU      8.77s WALL (   47762 calls)
     h_psi        :     21.88s CPU     21.58s WALL (   50466 calls)
     s_psi        :      0.36s CPU      0.36s WALL (   50466 calls)
     g_psi        :      0.11s CPU      0.10s WALL (   31746 calls)

     Called by h_psi:
     h_psi:calbec :      2.09s CPU      2.05s WALL (   50466 calls)
     vloc_psi     :     19.10s CPU     18.84s WALL (   50466 calls)
     add_vuspsi   :      0.39s CPU      0.39s WALL (   50466 calls)

     General routines
     calbec       :      3.30s CPU      3.20s WALL (   79170 calls)
     fft          :      0.28s CPU      0.27s WALL (    1067 calls)
     ffts         :      0.13s CPU      0.13s WALL (     366 calls)
     fftw         :     19.18s CPU     18.74s WALL ( 1052794 calls)
     interpolate  :      0.15s CPU      0.15s WALL (     190 calls)

     Parallel routines

     PWSCF        :     55.31s CPU     58.04s WALL


   This run was terminated on:  10:57:57   3Nov2023            

=------------------------------------------------------------------------------=
   JOB DONE.
=------------------------------------------------------------------------------=
