LAMMPS (29 Oct 2020)
Reading data file ...
  orthogonal box = (0.0000000 0.0000000 0.0000000) to (53.170000 53.170000 53.170000)
  1 by 1 by 1 MPI processor grid
  reading atoms ...
  8788 atoms
  read_data CPU = 0.006 seconds
Reading eam potential file /home/gridsan/epan1/3320_atomistic_shared/lammps/potentials/Ag_u3.eam with DATE: 2007-06-11
WARNING: No fixes defined, atoms won't move (../verlet.cpp:54)
Neighbor list info ...
  update every 1 steps, delay 10 steps, check yes
  max neighbors/atom: 2000, page size: 100000
  master list distance cutoff = 7.55
  ghost atom cutoff = 7.55
  binsize = 3.775, bins = 15 15 15
  1 neighbor lists, perpetual/occasional/extra = 1 0 0
  (1) pair eam, perpetual
      attributes: half, newton on
      pair build: half/bin/atomonly/newton
      stencil: half/bin/3d/newton
      bin: standard
Setting up Verlet run ...
  Unit style    : metal
  Current step  : 0
  Time step     : 0.001
Per MPI rank memory allocation (min/avg/max) = 7.420 | 7.420 | 7.420 Mbytes
Step PotEng Lx Ly Lz Press Pxx Pyy Pzz 
       0   -25045.799        53.17        53.17        53.17  0.011335172  0.011335172  0.011335172  0.011335172 
Loop time of 0 on 1 procs for 0 steps with 8788 atoms

0.0% CPU use with 1 MPI tasks x no OpenMP threads

MPI task timing breakdown:
Section |  min time  |  avg time  |  max time  |%varavg| %total
---------------------------------------------------------------
Pair    | 0          | 0          | 0          |   0.0 |  0.00
Neigh   | 0          | 0          | 0          |   0.0 |  0.00
Comm    | 0          | 0          | 0          |   0.0 |  0.00
Output  | 0          | 0          | 0          |   0.0 |  0.00
Modify  | 0          | 0          | 0          |   0.0 |  0.00
Other   |            | 0          |            |       |  0.00

Nlocal:        8788.00 ave        8788 max        8788 min
Histogram: 1 0 0 0 0 0 0 0 0 0
Nghost:        9180.00 ave        9180 max        9180 min
Histogram: 1 0 0 0 0 0 0 0 0 0
Neighs:       377884.0 ave      377884 max      377884 min
Histogram: 1 0 0 0 0 0 0 0 0 0

Total # of neighbors = 377884
Ave neighs/atom = 43.000000
Neighbor list builds = 0
Dangerous builds = 0
WARNING: Using 'neigh_modify every 1 delay 0 check yes' setting during minimization (../min.cpp:187)
Setting up cg style minimization ...
  Unit style    : metal
  Current step  : 0
WARNING: Energy due to 1 extra global DOFs will be included in minimizer energies
Per MPI rank memory allocation (min/avg/max) = 9.670 | 9.670 | 9.670 Mbytes
Step PotEng Lx Ly Lz Press Pxx Pyy Pzz 
       0   -25045.799        53.17        53.17        53.17  0.011335172  0.011335172  0.011335172  0.011335172 
       4     -25045.8    53.169989    53.169989    53.169989    0.6001284    0.6001284    0.6001284    0.6001284 
Loop time of 0.08533 on 1 procs for 4 steps with 8788 atoms

100.0% CPU use with 1 MPI tasks x no OpenMP threads

Minimization stats:
  Stopping criterion = energy tolerance
  Energy initial, next-to-last, final = 
     -25045.7985179261  -25045.7997057317  -25045.7997057471
  Force two-norm initial, final = 0.14627227 0.17504963
  Force max component initial, final = 0.003190355 0.16890981
  Final line search alpha, max atom move = 0.080480007 0.013593863
  Iterations, force evaluations = 4 8

MPI task timing breakdown:
Section |  min time  |  avg time  |  max time  |%varavg| %total
---------------------------------------------------------------
Pair    | 0.082159   | 0.082159   | 0.082159   |   0.0 | 96.28
Neigh   | 0          | 0          | 0          |   0.0 |  0.00
Comm    | 0.00032115 | 0.00032115 | 0.00032115 |   0.0 |  0.38
Output  | 0          | 0          | 0          |   0.0 |  0.00
Modify  | 0          | 0          | 0          |   0.0 |  0.00
Other   |            | 0.00285    |            |       |  3.34

Nlocal:        8788.00 ave        8788 max        8788 min
Histogram: 1 0 0 0 0 0 0 0 0 0
Nghost:        9180.00 ave        9180 max        9180 min
Histogram: 1 0 0 0 0 0 0 0 0 0
Neighs:       377884.0 ave      377884 max      377884 min
Histogram: 1 0 0 0 0 0 0 0 0 0

Total # of neighbors = 377884
Ave neighs/atom = 43.000000
Neighbor list builds = 0
Dangerous builds = 0
Total energy (eV) = -25045.7997057471
Number of atoms = 8788
Lattice constant (Angstoms) = 53.1699889772545
Total wall time: 0:00:00
