
     Program PWSCF v.7.2 starts on  2Nov2023 at 13:44:34 

     This program is part of the open-source Quantum ESPRESSO suite
     for quantum simulation of materials; please cite
         "P. Giannozzi et al., J. Phys.:Condens. Matter 21 395502 (2009);
         "P. Giannozzi et al., J. Phys.:Condens. Matter 29 465901 (2017);
         "P. Giannozzi et al., J. Chem. Phys. 152 154105 (2020);
          URL http://www.quantum-espresso.org", 
     in publications or presentations arising from this work. More details at
     http://www.quantum-espresso.org/quote

     Parallel version (MPI), running on     4 processors

     MPI processes distributed on     1 nodes
     45756 MiB available memory on the printing compute node when the environment starts

     Waiting for input...
     Reading input from standard input
Warning: card &CELL ignored
Warning: card / ignored

     Current dimensions of program PWSCF are:
     Max number of different atomic species (ntypx) = 10
     Max number of k-points (npk) =  40000
     Max angular momentum in pseudopotentials (lmaxx) =  4
     file Fe.pbe-nd-rrkjus.UPF: wavefunction(s)  4S renormalized
     Found identity + ( -0.5000  0.0000  0.0000) symmetry
     This is a supercell, fractional translations are disabled
     Message from routine setup:
     using ibrav=0 with symmetry is DISCOURAGED, use correct ibrav instead

     R & G space division:  proc/nbgrp/npool/nimage =       4
     Subspace diagonalization in iterative solution of the eigenvalue problem:
     a serial algorithm will be used


     Parallelization info
     --------------------
     sticks:   dense  smooth     PW     G-vecs:    dense   smooth      PW
     Min         195      99     41                 2448      869     238
     Max         196     100     42                 2449      870     239
     Sum         781     397    167                 9795     3479     955

     Using Slab Decomposition



     bravais-lattice index     =            0
     lattice parameter (alat)  =       9.3257  a.u.
     unit-cell volume          =     156.0865 (a.u.)^3
     number of atoms/cell      =            2
     number of atomic types    =            1
     number of electrons       =        16.00
     number of Kohn-Sham states=           12
     kinetic-energy cutoff     =      30.0000  Ry
     charge density cutoff     =     240.0000  Ry
     scf convergence threshold =      1.0E-07
     mixing beta               =       0.5000
     number of iterations used =            8  plain     mixing
     Exchange-correlation=  SLA  PW   PBE  PBE
                           (   1   4   3   4   0   0   0)

     celldm(1)=   9.325721  celldm(2)=   0.000000  celldm(3)=   0.000000
     celldm(4)=   0.000000  celldm(5)=   0.000000  celldm(6)=   0.000000

     crystal axes: (cart. coord. in units of alat)
               a(1) = (  -0.577350   0.577350   0.577350 )  
               a(2) = (   0.288675  -0.288675   0.288675 )  
               a(3) = (   0.288675   0.288675  -0.288675 )  

     reciprocal axes: (cart. coord. in units 2 pi/alat)
               b(1) = (  0.000000  0.866025  0.866025 )  
               b(2) = (  1.732051  0.000000  1.732051 )  
               b(3) = (  1.732051  1.732051  0.000000 )  


     PseudoPot. # 1 for Fe read from file:
     /home/gridsan/epan1/labutil/lab3_samples/pseudopotentials/Fe.pbe-nd-rrkjus.UPF
     MD5 check sum: 398036227a04b607635f6f5e8dfd8242
     Pseudo is Ultrasoft + core correction, Zval =  8.0
     Generated by new atomic code, or converted to UPF format
     Using radial grid of  957 points,  6 beta functions with: 
                l(1) =   0
                l(2) =   0
                l(3) =   1
                l(4) =   1
                l(5) =   2
                l(6) =   2
     Q(r) pseudized with 0 coefficients 


     atomic species   valence    mass     pseudopotential
        Fe             8.00    55.84500     Fe( 1.00)

     Starting magnetic structure 
     atomic species   magnetization
        Fe           1.000

      8 Sym. Ops., with inversion, found



   Cartesian axes

     site n.     atom                  positions (alat units)
         1           Fe  tau(   1) = (   0.0000000   0.0000000   0.0000000  )
         2           Fe  tau(   2) = (  -0.2886751   0.2886751   0.2886751  )

     number of k points=   186  Methfessel-Paxton smearing, width (Ry)=  0.0200

     Number of k-points >= 100: set verbosity='high' to print them.

     Dense  grid:     9795 G-vectors     FFT dimensions: (  45,  24,  24)

     Smooth grid:     3479 G-vectors     FFT dimensions: (  36,  18,  18)

     Estimated max dynamical RAM per process >      18.69 MB

     Estimated total dynamical RAM >      74.77 MB
     Generating pointlists ...
     new r_m :   0.2062 (alat units)  1.9234 (a.u.) for type    1

     Initial potential from superposition of free atoms

     starting charge      15.9987, renormalised to      16.0000
     Starting wfcs are   12 randomized atomic wfcs

     total cpu time spent up to now is        4.9 secs

     Self-consistent Calculation

     iteration #  1     ecut=    30.00 Ry     beta= 0.50
     Davidson diagonalization with overlap
     ethr =  1.00E-02,  avg # of iterations =  3.8

     total cpu time spent up to now is       20.1 secs

     total energy              =    -111.15632550 Ry
     estimated scf accuracy    <       0.97786747 Ry

     total magnetization       =     6.97 Bohr mag/cell
     absolute magnetization    =     6.98 Bohr mag/cell

     iteration #  2     ecut=    30.00 Ry     beta= 0.50
     Davidson diagonalization with overlap
     ethr =  6.11E-03,  avg # of iterations =  2.0

     total cpu time spent up to now is       30.3 secs

     total energy              =    -111.48767794 Ry
     estimated scf accuracy    <       0.17692626 Ry

     total magnetization       =     6.19 Bohr mag/cell
     absolute magnetization    =     6.21 Bohr mag/cell

     iteration #  3     ecut=    30.00 Ry     beta= 0.50
     Davidson diagonalization with overlap
     ethr =  1.11E-03,  avg # of iterations =  1.1

     total cpu time spent up to now is       40.3 secs

     total energy              =    -111.58162244 Ry
     estimated scf accuracy    <       0.05868197 Ry

     total magnetization       =     5.72 Bohr mag/cell
     absolute magnetization    =     5.86 Bohr mag/cell

     iteration #  4     ecut=    30.00 Ry     beta= 0.50
     Davidson diagonalization with overlap
     ethr =  3.67E-04,  avg # of iterations =  1.4

     total cpu time spent up to now is       51.2 secs

     total energy              =    -111.59045871 Ry
     estimated scf accuracy    <       0.21046087 Ry

     total magnetization       =     4.80 Bohr mag/cell
     absolute magnetization    =     5.15 Bohr mag/cell

     iteration #  5     ecut=    30.00 Ry     beta= 0.50
     Davidson diagonalization with overlap
     ethr =  3.67E-04,  avg # of iterations =  1.0

     total cpu time spent up to now is       61.1 secs

     total energy              =    -111.60026686 Ry
     estimated scf accuracy    <       0.00624435 Ry

     total magnetization       =     4.80 Bohr mag/cell
     absolute magnetization    =     5.17 Bohr mag/cell

     iteration #  6     ecut=    30.00 Ry     beta= 0.50
     Davidson diagonalization with overlap
     ethr =  3.90E-05,  avg # of iterations =  2.5

     total cpu time spent up to now is       74.5 secs

     total energy              =    -111.60269208 Ry
     estimated scf accuracy    <       0.00139386 Ry

     total magnetization       =     4.75 Bohr mag/cell
     absolute magnetization    =     5.10 Bohr mag/cell

     iteration #  7     ecut=    30.00 Ry     beta= 0.50
     Davidson diagonalization with overlap
     ethr =  8.71E-06,  avg # of iterations =  1.9

     total cpu time spent up to now is       86.9 secs

     total energy              =    -111.60328632 Ry
     estimated scf accuracy    <       0.00009877 Ry

     total magnetization       =     4.67 Bohr mag/cell
     absolute magnetization    =     5.00 Bohr mag/cell

     iteration #  8     ecut=    30.00 Ry     beta= 0.50
     Davidson diagonalization with overlap
     ethr =  6.17E-07,  avg # of iterations =  4.4

     total cpu time spent up to now is      104.9 secs

     total energy              =    -111.60330504 Ry
     estimated scf accuracy    <       0.00016586 Ry

     total magnetization       =     4.63 Bohr mag/cell
     absolute magnetization    =     4.96 Bohr mag/cell

     iteration #  9     ecut=    30.00 Ry     beta= 0.50
     Davidson diagonalization with overlap
     ethr =  6.17E-07,  avg # of iterations =  2.6

     total cpu time spent up to now is      118.4 secs

     total energy              =    -111.60341302 Ry
     estimated scf accuracy    <       0.00000880 Ry

     total magnetization       =     4.59 Bohr mag/cell
     absolute magnetization    =     4.91 Bohr mag/cell

     iteration # 10     ecut=    30.00 Ry     beta= 0.50
     Davidson diagonalization with overlap
