Header of the LAMMPS data file 

4 atoms 
1 atom types

0.0 3.926262626262626  xlo xhi
0.0 3.926262626262626  ylo yhi
0.0 3.926262626262626  zlo zhi

Masses 

1  107.8682

Atoms # atomic 

1 1 0.00000 0.00000 0.00000 
2 1 0.00000 1.96313 1.96313 
3 1 1.96313 0.00000 1.96313 
4 1 1.96313 1.96313 0.00000 
