LAMMPS (29 Oct 2020)
Reading data file ...
  orthogonal box = (0.0000000 0.0000000 0.0000000) to (53.170000 53.170000 53.170000)
  1 by 1 by 1 MPI processor grid
  reading atoms ...
  8787 atoms
  read_data CPU = 0.007 seconds
Reading eam potential file /home/gridsan/epan1/3320_atomistic_shared/lammps/potentials/Ag_u3.eam with DATE: 2007-06-11
WARNING: No fixes defined, atoms won't move (../verlet.cpp:54)
Neighbor list info ...
  update every 1 steps, delay 10 steps, check yes
  max neighbors/atom: 2000, page size: 100000
  master list distance cutoff = 7.55
  ghost atom cutoff = 7.55
  binsize = 3.775, bins = 15 15 15
  1 neighbor lists, perpetual/occasional/extra = 1 0 0
  (1) pair eam, perpetual
      attributes: half, newton on
      pair build: half/bin/atomonly/newton
      stencil: half/bin/3d/newton
      bin: standard
Setting up Verlet run ...
  Unit style    : metal
  Current step  : 0
  Time step     : 0.001
Per MPI rank memory allocation (min/avg/max) = 7.420 | 7.420 | 7.420 Mbytes
Step PotEng Lx Ly Lz Press Pxx Pyy Pzz 
       0   -25041.974        53.17        53.17        53.17   -17.063821   -17.063821   -17.063821   -17.063821 
Loop time of 1.19209e-06 on 1 procs for 0 steps with 8787 atoms

83.9% CPU use with 1 MPI tasks x no OpenMP threads

MPI task timing breakdown:
Section |  min time  |  avg time  |  max time  |%varavg| %total
---------------------------------------------------------------
Pair    | 0          | 0          | 0          |   0.0 |  0.00
Neigh   | 0          | 0          | 0          |   0.0 |  0.00
Comm    | 0          | 0          | 0          |   0.0 |  0.00
Output  | 0          | 0          | 0          |   0.0 |  0.00
Modify  | 0          | 0          | 0          |   0.0 |  0.00
Other   |            | 1.192e-06  |            |       |100.00

Nlocal:        8787.00 ave        8787 max        8787 min
Histogram: 1 0 0 0 0 0 0 0 0 0
Nghost:        9173.00 ave        9173 max        9173 min
Histogram: 1 0 0 0 0 0 0 0 0 0
Neighs:       377798.0 ave      377798 max      377798 min
Histogram: 1 0 0 0 0 0 0 0 0 0

Total # of neighbors = 377798
Ave neighs/atom = 42.995106
Neighbor list builds = 0
Dangerous builds = 0
WARNING: Using 'neigh_modify every 1 delay 0 check yes' setting during minimization (../min.cpp:187)
Setting up cg style minimization ...
  Unit style    : metal
  Current step  : 0
WARNING: Energy due to 1 extra global DOFs will be included in minimizer energies
Per MPI rank memory allocation (min/avg/max) = 9.670 | 9.670 | 9.670 Mbytes
Step PotEng Lx Ly Lz Press Pxx Pyy Pzz 
       0   -25041.974        53.17        53.17        53.17   -17.063821   -17.063821   -17.063821   -17.063821 
       7   -25041.981    53.169661    53.169661    53.169661    0.1179104    0.1179104    0.1179104    0.1179104 
Loop time of 0.16414 on 1 procs for 7 steps with 8787 atoms

98.4% CPU use with 1 MPI tasks x no OpenMP threads

Minimization stats:
  Stopping criterion = energy tolerance
  Energy initial, next-to-last, final = 
     -25041.9744537508  -25041.9812245525  -25041.9812249115
  Force two-norm initial, final = 4.8104316 0.15554839
  Force max component initial, final = 4.8027187 0.033186194
  Final line search alpha, max atom move = 0.0080934139 0.00026858961
  Iterations, force evaluations = 7 14

MPI task timing breakdown:
Section |  min time  |  avg time  |  max time  |%varavg| %total
---------------------------------------------------------------
Pair    | 0.15801    | 0.15801    | 0.15801    |   0.0 | 96.26
Neigh   | 0          | 0          | 0          |   0.0 |  0.00
Comm    | 0.00061464 | 0.00061464 | 0.00061464 |   0.0 |  0.37
Output  | 0          | 0          | 0          |   0.0 |  0.00
Modify  | 0          | 0          | 0          |   0.0 |  0.00
Other   |            | 0.005518   |            |       |  3.36

Nlocal:        8787.00 ave        8787 max        8787 min
Histogram: 1 0 0 0 0 0 0 0 0 0
Nghost:        9173.00 ave        9173 max        9173 min
Histogram: 1 0 0 0 0 0 0 0 0 0
Neighs:       377798.0 ave      377798 max      377798 min
Histogram: 1 0 0 0 0 0 0 0 0 0

Total # of neighbors = 377798
Ave neighs/atom = 42.995106
Neighbor list builds = 0
Dangerous builds = 0
Total energy (eV) = -25041.9812249115
Number of atoms = 8787
Lattice constant (Angstoms) = 53.16966077314
Total wall time: 0:00:00
