
     Program PWSCF v.7.2 starts on  3Nov2023 at 14: 4:42 

     This program is part of the open-source Quantum ESPRESSO suite
     for quantum simulation of materials; please cite
         "P. Giannozzi et al., J. Phys.:Condens. Matter 21 395502 (2009);
         "P. Giannozzi et al., J. Phys.:Condens. Matter 29 465901 (2017);
         "P. Giannozzi et al., J. Chem. Phys. 152 154105 (2020);
          URL http://www.quantum-espresso.org", 
     in publications or presentations arising from this work. More details at
     http://www.quantum-espresso.org/quote

     Parallel version (MPI), running on     8 processors

     MPI processes distributed on     8 nodes
     186968 MiB available memory on the printing compute node when the environment starts

     Waiting for input...
     Reading input from standard input

     Current dimensions of program PWSCF are:
     Max number of different atomic species (ntypx) = 10
     Max number of k-points (npk) =  40000
     Max angular momentum in pseudopotentials (lmaxx) =  4
     file Cu.pz-d-rrkjus.UPF: wavefunction(s)  3D renormalized
     Message from routine setup:
     using ibrav=0 with symmetry is DISCOURAGED, use correct ibrav instead

     R & G space division:  proc/nbgrp/npool/nimage =       8
     Subspace diagonalization in iterative solution of the eigenvalue problem:
     a serial algorithm will be used


     Parallelization info
     --------------------
     sticks:   dense  smooth     PW     G-vecs:    dense   smooth      PW
     Min          86      43     14                 2263      801     150
     Max          89      44     15                 2264      804     153
     Sum         697     349    113                18111     6423    1207

     Using Slab Decomposition



     bravais-lattice index     =            0
     lattice parameter (alat)  =       5.2270  a.u.
     unit-cell volume          =     187.0550 (a.u.)^3
     number of atoms/cell      =            2
     number of atomic types    =            2
     number of electrons       =        22.00
     number of Kohn-Sham states=           15
     kinetic-energy cutoff     =      40.0000  Ry
     charge density cutoff     =     320.0000  Ry
     scf convergence threshold =      1.0E-07
     mixing beta               =       0.5000
     number of iterations used =            8  plain     mixing
     energy convergence thresh.=      1.0E-04
     force convergence thresh. =      1.0E-03
     press convergence thresh. =      5.0E-01
     Exchange-correlation=  SLA  PZ   NOGX NOGC
                           (   1   1   0   0   0   0   0)
     nstep                     =           50


     celldm(1)=   5.226982  celldm(2)=   0.000000  celldm(3)=   0.000000
     celldm(4)=   0.000000  celldm(5)=   0.000000  celldm(6)=   0.000000

     crystal axes: (cart. coord. in units of alat)
               a(1) = (   1.000000   0.000000   0.000000 )  
               a(2) = (   0.000000   1.000000   0.000000 )  
               a(3) = (   0.000000   0.000000   1.309834 )  

     reciprocal axes: (cart. coord. in units 2 pi/alat)
               b(1) = (  1.000000  0.000000  0.000000 )  
               b(2) = (  0.000000  1.000000  0.000000 )  
               b(3) = (  0.000000  0.000000  0.763456 )  


     PseudoPot. # 1 for Au read from file:
     /home/gridsan/epan1/labutil/lab3_samples/pseudopotentials/Au.pz-d-rrkjus.UPF
     MD5 check sum: 424ffd4ac9c90487cbadcd287136c95b
     Pseudo is Ultrasoft, Zval = 11.0
     Generated by new atomic code, or converted to UPF format
     Using radial grid of 1279 points,  3 beta functions with: 
                l(1) =   2
                l(2) =   2
                l(3) =   1
     Q(r) pseudized with 0 coefficients 


     PseudoPot. # 2 for Cu read from file:
     /home/gridsan/epan1/labutil/lab3_samples/pseudopotentials/Cu.pz-d-rrkjus.UPF
     MD5 check sum: fd38ae683e239c95a66f426e1f8e5fc7
     Pseudo is Ultrasoft, Zval = 11.0
     Generated by new atomic code, or converted to UPF format
     Using radial grid of  899 points,  3 beta functions with: 
                l(1) =   2
                l(2) =   2
                l(3) =   1
     Q(r) pseudized with 0 coefficients 


     atomic species   valence    mass     pseudopotential
        Au            11.00   196.96657     Au( 1.00)
        Cu            11.00    63.54600     Cu( 1.00)

     Starting magnetic structure 
     atomic species   magnetization
        Au           0.700
        Cu           0.000

     16 Sym. Ops., with inversion, found



   Cartesian axes

     site n.     atom                  positions (alat units)
         1           Cu  tau(   1) = (   0.0000000   0.0000000   0.0000000  )
         2           Au  tau(   2) = (   0.5000000   0.5000000   0.6549168  )

     number of k points=    40  Methfessel-Paxton smearing, width (Ry)=  0.0200
                       cart. coord. in units 2pi/alat
        k(    1) = (   0.0000000   0.0000000   0.0000000), wk =   0.0046296
        k(    2) = (   0.0000000   0.0000000   0.1272426), wk =   0.0092593
        k(    3) = (   0.0000000   0.0000000   0.2544852), wk =   0.0092593
        k(    4) = (   0.0000000   0.0000000  -0.3817278), wk =   0.0046296
        k(    5) = (   0.0000000   0.1666667   0.0000000), wk =   0.0185185
        k(    6) = (   0.0000000   0.1666667   0.1272426), wk =   0.0370370
        k(    7) = (   0.0000000   0.1666667   0.2544852), wk =   0.0370370
        k(    8) = (   0.0000000   0.1666667  -0.3817278), wk =   0.0185185
        k(    9) = (   0.0000000   0.3333333   0.0000000), wk =   0.0185185
        k(   10) = (   0.0000000   0.3333333   0.1272426), wk =   0.0370370
        k(   11) = (   0.0000000   0.3333333   0.2544852), wk =   0.0370370
        k(   12) = (   0.0000000   0.3333333  -0.3817278), wk =   0.0185185
        k(   13) = (   0.0000000  -0.5000000   0.0000000), wk =   0.0092593
        k(   14) = (   0.0000000  -0.5000000   0.1272426), wk =   0.0185185
        k(   15) = (   0.0000000  -0.5000000   0.2544852), wk =   0.0185185
        k(   16) = (   0.0000000  -0.5000000  -0.3817278), wk =   0.0092593
        k(   17) = (   0.1666667   0.1666667   0.0000000), wk =   0.0185185
        k(   18) = (   0.1666667   0.1666667   0.1272426), wk =   0.0370370
        k(   19) = (   0.1666667   0.1666667   0.2544852), wk =   0.0370370
        k(   20) = (   0.1666667   0.1666667  -0.3817278), wk =   0.0185185
        k(   21) = (   0.1666667   0.3333333   0.0000000), wk =   0.0370370
        k(   22) = (   0.1666667   0.3333333   0.1272426), wk =   0.0740741
        k(   23) = (   0.1666667   0.3333333   0.2544852), wk =   0.0740741
        k(   24) = (   0.1666667   0.3333333  -0.3817278), wk =   0.0370370
        k(   25) = (   0.1666667  -0.5000000   0.0000000), wk =   0.0185185
        k(   26) = (   0.1666667  -0.5000000   0.1272426), wk =   0.0370370
        k(   27) = (   0.1666667  -0.5000000   0.2544852), wk =   0.0370370
        k(   28) = (   0.1666667  -0.5000000  -0.3817278), wk =   0.0185185
        k(   29) = (   0.3333333   0.3333333   0.0000000), wk =   0.0185185
        k(   30) = (   0.3333333   0.3333333   0.1272426), wk =   0.0370370
        k(   31) = (   0.3333333   0.3333333   0.2544852), wk =   0.0370370
        k(   32) = (   0.3333333   0.3333333  -0.3817278), wk =   0.0185185
        k(   33) = (   0.3333333  -0.5000000   0.0000000), wk =   0.0185185
        k(   34) = (   0.3333333  -0.5000000   0.1272426), wk =   0.0370370
        k(   35) = (   0.3333333  -0.5000000   0.2544852), wk =   0.0370370
        k(   36) = (   0.3333333  -0.5000000  -0.3817278), wk =   0.0185185
        k(   37) = (  -0.5000000  -0.5000000   0.0000000), wk =   0.0046296
        k(   38) = (  -0.5000000  -0.5000000   0.1272426), wk =   0.0092593
        k(   39) = (  -0.5000000  -0.5000000   0.2544852), wk =   0.0092593
        k(   40) = (  -0.5000000  -0.5000000  -0.3817278), wk =   0.0046296

     Dense  grid:    18111 G-vectors     FFT dimensions: (  30,  30,  40)

     Smooth grid:     6423 G-vectors     FFT dimensions: (  24,  24,  27)

     Estimated max dynamical RAM per process >       9.92 MB

     Estimated total dynamical RAM >      79.35 MB
     Generating pointlists ...
     new r_m :   0.3976 (alat units)  2.0781 (a.u.) for type    1
     new r_m :   0.3976 (alat units)  2.0781 (a.u.) for type    2

     Initial potential from superposition of free atoms

     starting charge      21.9996, renormalised to      22.0000
     Starting wfcs are   15 randomized atomic wfcs

     total cpu time spent up to now is        0.8 secs

     Self-consistent Calculation

     iteration #  1     ecut=    40.00 Ry     beta= 0.50
     Davidson diagonalization with overlap
     ethr =  1.00E-02,  avg # of iterations =  3.7

     total cpu time spent up to now is        1.6 secs

     total energy              =    -154.25682994 Ry
     estimated scf accuracy    <       0.71156659 Ry

     total magnetization       =     1.15 Bohr mag/cell
     absolute magnetization    =     1.47 Bohr mag/cell

     iteration #  2     ecut=    40.00 Ry     beta= 0.50
     Davidson diagonalization with overlap
     ethr =  3.23E-03,  avg # of iterations =  2.0

     total cpu time spent up to now is        2.2 secs

     total energy              =    -154.56533276 Ry
     estimated scf accuracy    <       0.31845543 Ry

     total magnetization       =     0.41 Bohr mag/cell
     absolute magnetization    =     0.54 Bohr mag/cell

     iteration #  3     ecut=    40.00 Ry     beta= 0.50
     Davidson diagonalization with overlap
     ethr =  1.45E-03,  avg # of iterations =  1.6

     total cpu time spent up to now is        2.8 secs

     total energy              =    -154.67072131 Ry
     estimated scf accuracy    <       0.07944181 Ry

     total magnetization       =     0.31 Bohr mag/cell
     absolute magnetization    =     0.51 Bohr mag/cell

     iteration #  4     ecut=    40.00 Ry     beta= 0.50
     Davidson diagonalization with overlap
     ethr =  3.61E-04,  avg # of iterations =  1.9

     total cpu time spent up to now is        3.4 secs

     total energy              =    -154.71559800 Ry
     estimated scf accuracy    <       0.03134607 Ry

     total magnetization       =     0.22 Bohr mag/cell
     absolute magnetization    =     0.34 Bohr mag/cell

     iteration #  5     ecut=    40.00 Ry     beta= 0.50
     Davidson diagonalization with overlap
     ethr =  1.42E-04,  avg # of iterations =  1.6

     total cpu time spent up to now is        4.0 secs

     total energy              =    -154.72520859 Ry
     estimated scf accuracy    <       0.00515172 Ry

     total magnetization       =     0.00 Bohr mag/cell
     absolute magnetization    =     0.06 Bohr mag/cell

     iteration #  6     ecut=    40.00 Ry     beta= 0.50
     Davidson diagonalization with overlap
     ethr =  2.34E-05,  avg # of iterations =  3.2

     total cpu time spent up to now is        4.7 secs

     total energy              =    -154.72661869 Ry
     estimated scf accuracy    <       0.00032209 Ry

     total magnetization       =    -0.01 Bohr mag/cell
     absolute magnetization    =     0.02 Bohr mag/cell

     iteration #  7     ecut=    40.00 Ry     beta= 0.50
     Davidson diagonalization with overlap
     ethr =  1.46E-06,  avg # of iterations =  3.5

     total cpu time spent up to now is        5.4 secs

     total energy              =    -154.72665424 Ry
     estimated scf accuracy    <       0.00004638 Ry

     total magnetization       =     0.00 Bohr mag/cell
     absolute magnetization    =     0.01 Bohr mag/cell

     iteration #  8     ecut=    40.00 Ry     beta= 0.50
     Davidson diagonalization with overlap
     ethr =  2.11E-07,  avg # of iterations =  1.7

     total cpu time spent up to now is        6.0 secs

     total energy              =    -154.72666732 Ry
     estimated scf accuracy    <       0.00000064 Ry

     total magnetization       =     0.00 Bohr mag/cell
     absolute magnetization    =     0.00 Bohr mag/cell

     iteration #  9     ecut=    40.00 Ry     beta= 0.50
     Davidson diagonalization with overlap
     ethr =  2.92E-09,  avg # of iterations =  2.2

     total cpu time spent up to now is        6.6 secs

     total energy              =    -154.72666749 Ry
     estimated scf accuracy    <       0.00000011 Ry

     total magnetization       =     0.00 Bohr mag/cell
     absolute magnetization    =     0.00 Bohr mag/cell

     iteration # 10     ecut=    40.00 Ry     beta= 0.50
     Davidson diagonalization with overlap
     ethr =  4.90E-10,  avg # of iterations =  1.9

     Magnetic moment per site  (integrated on atomic sphere of radius R)
     atom   1 (R=0.398)  charge= 10.0456  magn=  0.0000
     atom   2 (R=0.398)  charge=  8.8271  magn=  0.0000

     total cpu time spent up to now is        7.2 secs

     End of self-consistent calculation

 ------ SPIN UP ------------


          k = 0.0000 0.0000 0.0000 (   821 PWs)   bands (ev):

     5.5576   8.7740   8.9471  11.4976  11.4976  12.6485  12.7167  13.4630
    13.9716  14.2166  14.2166  17.9538  24.2801  26.3413  26.3413

          k = 0.0000 0.0000 0.1272 (   798 PWs)   bands (ev):

     5.9012   8.8407   9.0805  11.5776  11.5776  12.6197  12.7110  13.3613
    13.9025  13.9896  13.9896  16.1794  26.5849  27.0096  27.0096

          k = 0.0000 0.0000 0.2545 (   798 PWs)   bands (ev):

     6.7744   8.9850   9.4193  11.7858  11.7858  12.4152  12.8645  12.9591
    13.5083  13.5083  13.7251  13.7356  28.8089  28.8089  30.6738

          k = 0.0000 0.0000-0.3817 (   814 PWs)   bands (ev):

     7.3856   9.0636   9.7228  11.9375  11.9375  11.9457  12.3065  12.9693
    13.2271  13.2289  13.2289  13.6241  31.1622  31.1623  31.2748

          k = 0.0000 0.1667 0.0000 (   795 PWs)   bands (ev):

     6.2167   9.0555   9.3895  11.1204  11.6636  12.3768  12.8024  13.4278
    13.4597  13.6994  14.0707  19.6125  22.5889  24.7838  27.4325

          k = 0.0000 0.1667 0.1272 (   804 PWs)   bands (ev):

     6.5415   9.1210   9.5139  11.1180  11.6530  12.4437  12.7603  13.1929
    13.3850  13.5080  14.1176  17.6726  23.2727  27.1369  28.0176

          k = 0.0000 0.1667 0.2545 (   804 PWs)   bands (ev):

     7.3648   9.2706   9.7120  11.1895  11.7056  12.3748  12.6298  12.6931
    13.2874  13.4580  14.0136  15.1173  24.7645  28.8894  29.6437

          k = 0.0000 0.1667-0.3817 (   808 PWs)   bands (ev):

     7.9570   9.4853   9.5268  11.7669  11.8042  11.8043  12.1978  12.6592
    13.5906  13.6965  13.7163  13.7713  26.7098  26.7130  32.2034

          k = 0.0000 0.3333 0.0000 (   786 PWs)   bands (ev):

     7.7675   9.6191  10.3371  10.5454  11.7952  12.0873  12.6958  12.7066
    13.3137  13.6866  13.8340  18.4109  22.7592  25.0083  29.7001

          k = 0.0000 0.3333 0.1272 (   797 PWs)   bands (ev):

     7.9393   9.4934  10.3305  10.9253  11.5911  12.0545  12.6592  12.7730
    13.3334  13.7545  13.9201  18.6245  20.2481  26.9476  28.3428

          k = 0.0000 0.3333 0.2545 (   796 PWs)   bands (ev):

     8.2947   9.1102  10.9714  11.3970  11.4213  11.7612  12.6867  12.8768
    13.6198  13.6667  14.1053  16.5841  20.3638  24.4145  31.6425

          k = 0.0000 0.3333-0.3817 (   798 PWs)   bands (ev):

     8.5671   8.8106  11.3621  11.4848  11.5768  11.7222  12.6814  13.0044
    13.9747  14.0315  14.2201  14.4224  21.6819  22.6011  32.6348

          k = 0.0000-0.5000 0.0000 (   806 PWs)   bands (ev):

     8.6960   9.9635  10.1605  11.0674  11.5042  12.4171  12.4735  12.5464
    13.1667  13.3762  14.8702  15.7254  25.6798  25.8703  27.4379

          k = 0.0000-0.5000 0.1272 (   800 PWs)   bands (ev):

     8.7266   9.3428  10.4156  11.3574  11.9159  12.0526  12.6196  12.6203
    13.5425  13.5717  14.8666  15.6728  22.5903  23.7004  30.2086

          k = 0.0000-0.5000 0.2545 (   792 PWs)   bands (ev):

     8.7120   8.7325  11.0954  11.1221  11.6339  12.7644  13.1028  13.1514
    13.9064  13.9829  14.7936  15.3539  19.7017  21.5581  33.0839

          k = 0.0000-0.5000-0.3817 (   780 PWs)   bands (ev):

     8.4854   8.7193  11.0227  11.4760  11.4967  12.8359  13.8649  13.8997
    14.0565  14.1514  14.5984  14.6422  18.5868  20.6824  33.1138

          k = 0.1667 0.1667 0.0000 (   799 PWs)   bands (ev):

     6.8661   9.5546   9.5695  10.9747  11.3771  11.9811  12.9614  13.0297
    13.4672  13.5271  14.2410  20.7827  23.1742  23.5109  25.5177

          k = 0.1667 0.1667 0.1272 (   797 PWs)   bands (ev):

     7.1846   9.6050   9.7018  10.9906  11.2343  11.8833  12.9408  13.0579
    13.4851  13.5695  14.0167  18.6342  24.0712  24.0948  27.6575

          k = 0.1667 0.1667 0.2545 (   800 PWs)   bands (ev):

     8.0068   9.7143   9.8134  11.0196  11.1922  11.7167  12.8723  12.9420
    13.4374  13.5509  13.8190  16.0678  25.2864  25.5749  29.1531

          k = 0.1667 0.1667-0.3817 (   794 PWs)   bands (ev):

     8.6991   9.5133   9.7743  11.0316  11.5041  11.9952  12.1716  13.0379
    13.2326  13.2952  14.4072  14.6936  26.8203  26.9966  27.1417

          k = 0.1667 0.3333 0.0000 (   796 PWs)   bands (ev):

     8.3448   9.9818  10.2439  10.3392  11.1686  11.7746  13.0681  13.1002
    13.3456  13.7955  14.0410  19.0377  23.4879  24.6489  26.4548

          k = 0.1667 0.3333 0.1272 (   797 PWs)   bands (ev):

     8.5399   9.9164  10.2562  10.5198  11.0914  11.7133  12.9768  13.1358
    13.6280  13.7514  13.9784  19.4570  20.6721  26.1009  27.5541

          k = 0.1667 0.3333 0.2545 (   800 PWs)   bands (ev):

     8.8957   9.5955  10.6243  10.9094  11.0739  11.6831  12.8123  13.0783
    13.5236  13.8217  14.4007  17.5897  20.8583  24.8150  27.1894

          k = 0.1667 0.3333-0.3817 (   800 PWs)   bands (ev):

     9.0735   9.4166  10.6639  10.9505  11.6825  11.7720  12.5411  13.0537
    13.4629  13.6254  15.2104  15.8780  22.3769  22.8430  28.1649

          k = 0.1667-0.5000 0.0000 (   802 PWs)   bands (ev):

     9.4536   9.8361   9.8630  10.3017  11.1053  12.2956  13.2277  13.3631
    13.5246  13.6062  15.1145  15.8384  26.2996  26.5027  26.6920

          k = 0.1667-0.5000 0.1272 (   796 PWs)   bands (ev):

     9.3514   9.5643  10.1999  10.4577  11.1183  12.4153  12.9728  13.0543
    13.8732  13.9034  15.4112  15.9697  23.0807  23.9298  28.9162

          k = 0.1667-0.5000 0.2545 (   798 PWs)   bands (ev):

     8.9305   9.5991  10.3165  11.0355  11.1927  12.7388  12.7810  13.0135
    13.9547  14.0015  16.2134  16.3661  20.0946  21.6915  29.2541

          k = 0.1667-0.5000-0.3817 (   800 PWs)   bands (ev):

     8.7689   9.5760  10.3249  11.0224  11.6979  12.8328  12.9812  13.0242
    13.8233  13.8818  16.7538  16.7683  18.6803  20.6995  29.6121

          k = 0.3333 0.3333 0.0000 (   796 PWs)   bands (ev):

     8.8211   9.7765  10.0301  10.1562  11.7477  12.5741  13.4774  13.5946
    13.6235  13.7899  14.2912  19.3841  22.1712  25.2626  26.2129

          k = 0.3333 0.3333 0.1272 (   799 PWs)   bands (ev):

     8.9673   9.9940  10.0473  10.1520  11.6982  12.1812  13.3136  13.5789
    13.6239  14.0602  14.4652  20.1056  21.7501  23.0671  27.2485

          k = 0.3333 0.3333 0.2545 (   798 PWs)   bands (ev):

     9.2662   9.8240  10.0888  10.9517  11.5762  11.8328  12.9891  13.4407
    13.5032  13.7663  15.5894  19.3890  21.8526  23.0546  25.6202

          k = 0.3333 0.3333-0.3817 (   796 PWs)   bands (ev):

     9.5129   9.6035  10.1143  11.5023  11.5604  12.1678  12.2617  13.3338
    13.4279  13.7000  16.5319  17.8273  23.5119  24.0370  24.1747

          k = 0.3333-0.5000 0.0000 (   794 PWs)   bands (ev):

     8.6699   9.6820   9.8230  10.0133  12.2969  13.3816  13.7740  13.7968
    14.0738  14.1299  15.8543  16.1388  23.4874  25.0522  26.9149

          k = 0.3333-0.5000 0.1272 (   796 PWs)   bands (ev):

     8.7707   9.6560  10.0308  10.1661  12.1223  13.0714  13.4462  13.5919
    14.0179  14.1099  16.7277  16.7525  23.5619  24.1759  25.2914

          k = 0.3333-0.5000 0.2545 (   802 PWs)   bands (ev):

     9.0154   9.5512  10.0947  11.0510  11.7384  12.5995  12.9848  13.4525
    13.9272  13.9298  17.9201  18.3725  21.6475  22.2690  25.1697

          k = 0.3333-0.5000-0.3817 (   816 PWs)   bands (ev):

     9.2324   9.3959  10.1402  11.4494  12.1697  12.2572  12.4692  13.3603
    13.8104  13.8941  19.2875  19.5897  19.6486  21.0134  25.4857

          k =-0.5000-0.5000 0.0000 (   800 PWs)   bands (ev):

     8.2349   9.5992   9.5992   9.8062  13.9224  13.9770  13.9924  14.1670
    14.3164  14.3164  16.4187  16.4187  21.0951  23.2643  26.5992

          k =-0.5000-0.5000 0.1272 (   796 PWs)   bands (ev):

     8.3605   9.6300   9.6300  10.1425  13.5367  13.5367  13.8127  13.8166
    13.9929  14.1684  17.6146  17.6146  21.1797  22.8803  26.3910

          k =-0.5000-0.5000 0.2545 (   812 PWs)   bands (ev):

     8.6360   9.7042   9.7042  11.0429  12.6475  12.6475  13.2684  13.5728
    13.9937  14.1712  19.7204  19.7204  21.5175  22.1825  24.5127

          k =-0.5000-0.5000-0.3817 (   816 PWs)   bands (ev):

     8.7891   9.7500   9.7500  11.9772  12.3081  12.3081  12.5177  13.4312
    13.9942  14.1726  21.4827  21.4827  21.8688  22.1087  22.9383

 ------ SPIN DOWN ----------


          k = 0.0000 0.0000 0.0000 (   821 PWs)   bands (ev):

     5.5575   8.7740   8.9472  11.4977  11.4977  12.6487  12.7168  13.4632
    13.9718  14.2169  14.2169  17.9538  24.2802  26.3412  26.3412

          k = 0.0000 0.0000 0.1272 (   798 PWs)   bands (ev):

     5.9012   8.8408   9.0806  11.5777  11.5777  12.6199  12.7112  13.3615
    13.9027  13.9899  13.9899  16.1793  26.5849  27.0095  27.0095

          k = 0.0000 0.0000 0.2545 (   798 PWs)   bands (ev):

     6.7744   8.9850   9.4193  11.7859  11.7859  12.4154  12.8647  12.9593
    13.5085  13.5085  13.7252  13.7357  28.8089  28.8089  30.6738

          k = 0.0000 0.0000-0.3817 (   814 PWs)   bands (ev):

     7.3856   9.0636   9.7228  11.9376  11.9376  11.9458  12.3067  12.9695
    13.2273  13.2292  13.2292  13.6242  31.1622  31.1622  31.2744

          k = 0.0000 0.1667 0.0000 (   795 PWs)   bands (ev):

     6.2167   9.0556   9.3895  11.1205  11.6637  12.3771  12.8026  13.4280
    13.4599  13.6995  14.0709  19.6125  22.5889  24.7838  27.4325

          k = 0.0000 0.1667 0.1272 (   804 PWs)   bands (ev):

     6.5414   9.1210   9.5139  11.1181  11.6531  12.4439  12.7605  13.1931
    13.3852  13.5082  14.1178  17.6727  23.2726  27.1369  28.0176

          k = 0.0000 0.1667 0.2545 (   804 PWs)   bands (ev):

     7.3647   9.2707   9.7120  11.1896  11.7057  12.3750  12.6299  12.6933
    13.2876  13.4582  14.0139  15.1174  24.7645  28.8894  29.6437

          k = 0.0000 0.1667-0.3817 (   808 PWs)   bands (ev):

     7.9569   9.4853   9.5268  11.7671  11.8043  11.8044  12.1980  12.6594
    13.5909  13.6968  13.7165  13.7714  26.7098  26.7130  31.8762

          k = 0.0000 0.3333 0.0000 (   786 PWs)   bands (ev):

     7.7675   9.6191  10.3371  10.5455  11.7954  12.0874  12.6960  12.7068
    13.3139  13.6868  13.8342  18.4109  22.7592  25.0083  29.7001

          k = 0.0000 0.3333 0.1272 (   797 PWs)   bands (ev):

     7.9393   9.4935  10.3305  10.9253  11.5913  12.0546  12.6594  12.7732
    13.3336  13.7547  13.9204  18.6245  20.2481  26.9476  28.3428

          k = 0.0000 0.3333 0.2545 (   796 PWs)   bands (ev):

     8.2947   9.1102  10.9715  11.3971  11.4214  11.7613  12.6869  12.8769
    13.6200  13.6670  14.1055  16.5842  20.3638  24.4145  31.6423

          k = 0.0000 0.3333-0.3817 (   798 PWs)   bands (ev):

     8.5671   8.8106  11.3623  11.4849  11.5769  11.7222  12.6815  13.0045
    13.9750  14.0316  14.2203  14.4225  21.6819  22.6011  32.6348

          k = 0.0000-0.5000 0.0000 (   806 PWs)   bands (ev):

     8.6959   9.9635  10.1606  11.0674  11.5044  12.4172  12.4738  12.5466
    13.1668  13.3766  14.8703  15.7255  25.6798  25.8702  27.4378

          k = 0.0000-0.5000 0.1272 (   800 PWs)   bands (ev):

     8.7266   9.3428  10.4157  11.3576  11.9159  12.0527  12.6198  12.6206
    13.5426  13.5720  14.8667  15.6729  22.5903  23.7004  30.2088

          k = 0.0000-0.5000 0.2545 (   792 PWs)   bands (ev):

     8.7121   8.7325  11.0955  11.1223  11.6340  12.7646  13.1030  13.1514
    13.9067  13.9830  14.7937  15.3539  19.7017  21.5581  33.0842

          k = 0.0000-0.5000-0.3817 (   780 PWs)   bands (ev):

     8.4855   8.7193  11.0229  11.4760  11.4968  12.8361  13.8651  13.8999
    14.0568  14.1515  14.5984  14.6421  18.5869  20.6825  33.1154

          k = 0.1667 0.1667 0.0000 (   799 PWs)   bands (ev):

     6.8660   9.5546   9.5695  10.9748  11.3772  11.9813  12.9616  13.0299
    13.4674  13.5272  14.2412  20.7826  23.1742  23.5108  25.5177

          k = 0.1667 0.1667 0.1272 (   797 PWs)   bands (ev):

     7.1846   9.6050   9.7019  10.9907  11.2344  11.8835  12.9410  13.0582
    13.4853  13.5696  14.0169  18.6343  24.0712  24.0948  27.6575

          k = 0.1667 0.1667 0.2545 (   800 PWs)   bands (ev):

     8.0067   9.7143   9.8134  11.0197  11.1923  11.7169  12.8725  12.9422
    13.4376  13.5512  13.8192  16.0679  25.2864  25.5749  29.1531

          k = 0.1667 0.1667-0.3817 (   794 PWs)   bands (ev):

     8.6990   9.5133   9.7744  11.0316  11.5042  11.9953  12.1716  13.0381
    13.2329  13.2953  14.4075  14.6937  26.8203  26.9965  27.1417

          k = 0.1667 0.3333 0.0000 (   796 PWs)   bands (ev):

     8.3448   9.9819  10.2439  10.3393  11.1687  11.7748  13.0683  13.1004
    13.3457  13.7957  14.0413  19.0377  23.4879  24.6489  26.4548

          k = 0.1667 0.3333 0.1272 (   797 PWs)   bands (ev):

     8.5399   9.9165  10.2563  10.5199  11.0915  11.7134  12.9770  13.1360
    13.6282  13.7516  13.9786  19.4570  20.6721  26.1009  27.5540

          k = 0.1667 0.3333 0.2545 (   800 PWs)   bands (ev):

     8.8957   9.5956  10.6244  10.9095  11.0740  11.6832  12.8124  13.0785
    13.5238  13.8219  14.4009  17.5898  20.8583  24.8150  27.1893

          k = 0.1667 0.3333-0.3817 (   800 PWs)   bands (ev):

     9.0735   9.4166  10.6641  10.9506  11.6826  11.7721  12.5411  13.0539
    13.4631  13.6256  15.2107  15.8780  22.3769  22.8429  28.1649

          k = 0.1667-0.5000 0.0000 (   802 PWs)   bands (ev):

     9.4536   9.8363   9.8630  10.3017  11.1054  12.2957  13.2279  13.3632
    13.5248  13.6065  15.1146  15.8385  26.2996  26.5027  26.6920

          k = 0.1667-0.5000 0.1272 (   796 PWs)   bands (ev):

     9.3515   9.5643  10.2001  10.4577  11.1184  12.4154  12.9730  13.0546
    13.8734  13.9036  15.4113  15.9698  23.0807  23.9298  28.9161

          k = 0.1667-0.5000 0.2545 (   798 PWs)   bands (ev):

     8.9305   9.5992  10.3166  11.0356  11.1928  12.7390  12.7811  13.0136
    13.9549  14.0017  16.2134  16.3662  20.0946  21.6915  29.2541

          k = 0.1667-0.5000-0.3817 (   800 PWs)   bands (ev):

     8.7689   9.5760  10.3251  11.0225  11.6981  12.8329  12.9814  13.0244
    13.8235  13.8820  16.7538  16.7683  18.6804  20.6996  29.6122

          k = 0.3333 0.3333 0.0000 (   796 PWs)   bands (ev):

     8.8212   9.7765  10.0302  10.1563  11.7477  12.5742  13.4775  13.5948
    13.6238  13.7901  14.2915  19.3841  22.1713  25.2626  26.2129

          k = 0.3333 0.3333 0.1272 (   799 PWs)   bands (ev):

     8.9674   9.9941  10.0473  10.1521  11.6982  12.1813  13.3138  13.5791
    13.6241  14.0604  14.4654  20.1056  21.7501  23.0672  27.2485

          k = 0.3333 0.3333 0.2545 (   798 PWs)   bands (ev):

     9.2663   9.8241  10.0888  10.9518  11.5763  11.8329  12.9892  13.4409
    13.5035  13.7665  15.5896  19.3890  21.8526  23.0546  25.6202

          k = 0.3333 0.3333-0.3817 (   796 PWs)   bands (ev):

     9.5129   9.6036  10.1143  11.5024  11.5605  12.1680  12.2618  13.3340
    13.4282  13.7002  16.5321  17.8273  23.5119  24.0370  24.1747

          k = 0.3333-0.5000 0.0000 (   794 PWs)   bands (ev):

     8.6700   9.6821   9.8230  10.0134  12.2969  13.3818  13.7741  13.7971
    14.0740  14.1302  15.8543  16.1389  23.4874  25.0523  26.9149

          k = 0.3333-0.5000 0.1272 (   796 PWs)   bands (ev):

     8.7709   9.6561  10.0309  10.1661  12.1223  13.0716  13.4463  13.5921
    14.0181  14.1101  16.7277  16.7525  23.5619  24.1759  25.2913

          k = 0.3333-0.5000 0.2545 (   802 PWs)   bands (ev):

     9.0156   9.5512  10.0948  11.0510  11.7385  12.5997  12.9849  13.4527
    13.9274  13.9300  17.9202  18.3726  21.6475  22.2690  25.1699

          k = 0.3333-0.5000-0.3817 (   816 PWs)   bands (ev):

     9.2325   9.3959  10.1402  11.4495  12.1697  12.2573  12.4695  13.3605
    13.8106  13.8943  19.2876  19.5898  19.6486  21.0134  25.4857

          k =-0.5000-0.5000 0.0000 (   800 PWs)   bands (ev):

     8.2350   9.5993   9.5993   9.8063  13.9226  13.9771  13.9926  14.1671
    14.3167  14.3167  16.4186  16.4186  21.0952  23.2643  26.5992

          k =-0.5000-0.5000 0.1272 (   796 PWs)   bands (ev):

     8.3606   9.6301   9.6301  10.1426  13.5369  13.5369  13.8128  13.8168
    13.9931  14.1685  17.6146  17.6146  21.1798  22.8804  26.3913

          k =-0.5000-0.5000 0.2545 (   812 PWs)   bands (ev):

     8.6362   9.7043   9.7043  11.0430  12.6477  12.6477  13.2685  13.5730
    13.9939  14.1713  19.7204  19.7204  21.5176  22.1825  24.5127

          k =-0.5000-0.5000-0.3817 (   816 PWs)   bands (ev):

     8.7892   9.7501   9.7501  11.9773  12.3083  12.3083  12.5178  13.4314
    13.9944  14.1727  21.4827  21.4827  21.8688  22.1088  22.9382

     the Fermi energy is    15.8832 ev

!    total energy              =    -154.72666752 Ry
     estimated scf accuracy    <       0.00000001 Ry
     smearing contrib. (-TS)   =      -0.00019646 Ry
     internal energy E=F+TS    =    -154.72647106 Ry

     The total energy is F=E-TS. E is the sum of the following terms:
     one-electron contribution =      -3.77743371 Ry
     hartree contribution      =      27.58655986 Ry
     xc contribution           =     -24.55987334 Ry
     ewald contribution        =    -153.97572388 Ry

     total magnetization       =     0.00 Bohr mag/cell
     absolute magnetization    =     0.00 Bohr mag/cell

     convergence has been achieved in  10 iterations

     Forces acting on atoms (cartesian axes, Ry/au):

     atom    1 type  2   force =     0.00000000    0.00000000    0.00000000
     atom    2 type  1   force =     0.00000000    0.00000000    0.00000000
     The non-local contrib.  to forces
     atom    1 type  2   force =     0.00000000    0.00000000    0.00000000
     atom    2 type  1   force =     0.00000000    0.00000000    0.00000000
     The ionic contribution  to forces
     atom    1 type  2   force =    -0.00000000   -0.00000000   -0.00000000
     atom    2 type  1   force =     0.00000000    0.00000000    0.00000000
     The local contribution  to forces
     atom    1 type  2   force =     0.00000000    0.00000000    0.00000000
     atom    2 type  1   force =    -0.00000000   -0.00000000   -0.00000000
     The core correction contribution to forces
     atom    1 type  2   force =     0.00000000    0.00000000    0.00000000
     atom    2 type  1   force =     0.00000000    0.00000000    0.00000000
     The Hubbard contrib.    to forces
     atom    1 type  2   force =     0.00000000    0.00000000    0.00000000
     atom    2 type  1   force =     0.00000000    0.00000000    0.00000000
     The SCF correction term to forces
     atom    1 type  2   force =    -0.00000000   -0.00000000    0.00000000
     atom    2 type  1   force =     0.00000000    0.00000000   -0.00000000

     Total force =     0.000000     Total SCF correction =     0.000000


     Computing stress (Cartesian axis) and pressure

          total   stress  (Ry/bohr**3)                   (kbar)     P=       15.66
   0.00018428   0.00000000   0.00000000           27.11        0.00        0.00
   0.00000000   0.00018428   0.00000000            0.00       27.11        0.00
   0.00000000   0.00000000  -0.00004927            0.00        0.00       -7.25


     BFGS Geometry Optimization
     Energy error            =      0.0E+00 Ry
     Gradient error          =      0.0E+00 Ry/Bohr
     Cell gradient error     =      2.7E+01 kbar

     number of scf cycles    =   1
     number of bfgs steps    =   0

     enthalpy           new  =    -154.7266675209 Ry

     new trust radius        =       0.0126014920 bohr
     new conv_thr            =       0.0000001000 Ry

     new unit-cell volume =    188.54991 a.u.^3 (    27.94021 Ang^3 )
     density =     15.48275 g/cm^3

CELL_PARAMETERS (angstrom)
   2.778742643   0.000000000   0.000000000
   0.000000000   2.778742643   0.000000000
   0.000000000   0.000000000   3.618537546

ATOMIC_POSITIONS (angstrom)
Cu            0.0000000000        0.0000000000        0.0000000000
Au            1.3893713214        1.3893713214        1.8092687732



     Writing config-only to output data dir /home/gridsan/epan1/labutil/lab3_samples/problem3/Lab3/CuAu_a_2.766_c_3.623_ecut_40_nk_6/pwscf.save/
     NEW-OLD atomic charge density approx. for the potential
     extrapolated charge   22.17443, renormalised to   22.00000
     Generating pointlists ...

     total cpu time spent up to now is        8.0 secs

     Self-consistent Calculation

     iteration #  1     ecut=    40.00 Ry     beta= 0.50
     Davidson diagonalization with overlap
     ethr =  1.00E-06,  avg # of iterations =  3.7

     total cpu time spent up to now is        9.0 secs

     total energy              =    -154.71484505 Ry
     estimated scf accuracy    <       0.01241906 Ry

     total magnetization       =     0.00 Bohr mag/cell
     absolute magnetization    =     0.00 Bohr mag/cell

     iteration #  2     ecut=    40.00 Ry     beta= 0.50
     Davidson diagonalization with overlap
     ethr =  5.65E-05,  avg # of iterations =  2.1

     total cpu time spent up to now is        9.7 secs

     total energy              =    -154.72490705 Ry
     estimated scf accuracy    <       0.04020057 Ry

     total magnetization       =     0.00 Bohr mag/cell
     absolute magnetization    =     0.00 Bohr mag/cell

     iteration #  3     ecut=    40.00 Ry     beta= 0.50
     Davidson diagonalization with overlap
     ethr =  5.65E-05,  avg # of iterations =  2.0

     total cpu time spent up to now is       10.3 secs

     total energy              =    -154.72739039 Ry
     estimated scf accuracy    <       0.00468623 Ry

     total magnetization       =     0.00 Bohr mag/cell
     absolute magnetization    =     0.00 Bohr mag/cell

     iteration #  4     ecut=    40.00 Ry     beta= 0.50
     Davidson diagonalization with overlap
     ethr =  2.13E-05,  avg # of iterations =  1.0

     total cpu time spent up to now is       10.9 secs

     total energy              =    -154.72670734 Ry
     estimated scf accuracy    <       0.00233266 Ry

     total magnetization       =     0.00 Bohr mag/cell
     absolute magnetization    =     0.00 Bohr mag/cell

     iteration #  5     ecut=    40.00 Ry     beta= 0.50
     Davidson diagonalization with overlap
     ethr =  1.06E-05,  avg # of iterations =  1.4

     total cpu time spent up to now is       11.4 secs

     total energy              =    -154.72688986 Ry
     estimated scf accuracy    <       0.00012253 Ry

     total magnetization       =     0.00 Bohr mag/cell
     absolute magnetization    =     0.00 Bohr mag/cell

     iteration #  6     ecut=    40.00 Ry     beta= 0.50
     Davidson diagonalization with overlap
     ethr =  5.57E-07,  avg # of iterations =  2.0

     total cpu time spent up to now is       12.1 secs

     total energy              =    -154.72692320 Ry
     estimated scf accuracy    <       0.00000490 Ry

     total magnetization       =     0.00 Bohr mag/cell
     absolute magnetization    =     0.00 Bohr mag/cell

     iteration #  7     ecut=    40.00 Ry     beta= 0.50
     Davidson diagonalization with overlap
     ethr =  2.23E-08,  avg # of iterations =  1.3

     total cpu time spent up to now is       12.6 secs

     total energy              =    -154.72692288 Ry
     estimated scf accuracy    <       0.00000354 Ry

     total magnetization       =     0.00 Bohr mag/cell
     absolute magnetization    =     0.00 Bohr mag/cell

     iteration #  8     ecut=    40.00 Ry     beta= 0.50
     Davidson diagonalization with overlap
     ethr =  1.61E-08,  avg # of iterations =  1.0

     total cpu time spent up to now is       13.2 secs

     total energy              =    -154.72692220 Ry
     estimated scf accuracy    <       0.00000184 Ry

     total magnetization       =     0.00 Bohr mag/cell
     absolute magnetization    =     0.00 Bohr mag/cell

     iteration #  9     ecut=    40.00 Ry     beta= 0.50
     Davidson diagonalization with overlap
     ethr =  8.35E-09,  avg # of iterations =  1.9

     Magnetic moment per site  (integrated on atomic sphere of radius R)
     atom   1 (R=0.398)  charge= 10.0351  magn=  0.0000
     atom   2 (R=0.398)  charge=  8.8198  magn=  0.0000

     total cpu time spent up to now is       13.8 secs

     End of self-consistent calculation

 ------ SPIN UP ------------


          k = 0.0000 0.0000 0.0000 (   821 PWs)   bands (ev):

     5.4623   8.6843   8.8469  11.3488  11.3488  12.4715  12.5774  13.3102
    13.8013  14.0431  14.0431  17.8719  24.1358  26.0454  26.0454

          k = 0.0000 0.0000 0.1274 (   798 PWs)   bands (ev):

     5.8078   8.7523   8.9800  11.4266  11.4266  12.4796  12.5346  13.2113
    13.7315  13.8169  13.8169  16.0823  26.4584  26.7146  26.7146

          k = 0.0000 0.0000 0.2548 (   798 PWs)   bands (ev):

     6.6879   8.8996   9.3156  11.6291  11.6291  12.2729  12.6898  12.8271
    13.3389  13.3389  13.5627  13.6048  28.5154  28.5154  30.5636

          k = 0.0000 0.0000-0.3822 (   814 PWs)   bands (ev):

     7.3075   8.9801   9.6124  11.7765  11.7765  11.8357  12.1628  12.7961
    13.0629  13.0629  13.0846  13.4496  30.8735  30.8736  30.9973

          k = 0.0000 0.1659 0.0000 (   795 PWs)   bands (ev):

     6.1140   8.9587   9.2815  10.9861  11.5126  12.2090  12.6601  13.2774
    13.3038  13.5312  13.8981  19.4961  22.3354  24.6315  27.1255

          k = 0.0000 0.1659 0.1274 (   804 PWs)   bands (ev):

     6.4407   9.0245   9.4065  10.9833  11.4989  12.2780  12.6171  13.0452
    13.2305  13.3378  13.9469  17.5413  23.0107  27.0094  27.7113

          k = 0.0000 0.1659 0.2548 (   804 PWs)   bands (ev):

     7.2704   9.1729   9.6059  11.0567  11.5465  12.2107  12.4941  12.5480
    13.1317  13.2880  13.8438  14.9674  24.5007  28.6366  29.3384

          k = 0.0000 0.1659-0.3822 (   808 PWs)   bands (ev):

     7.8711   9.3698   9.4321  11.6416  11.6543  11.6650  12.0349  12.5141
    13.4264  13.5294  13.5574  13.5996  26.4444  26.4555  31.8986

          k = 0.0000 0.3318 0.0000 (   786 PWs)   bands (ev):

     7.6551   9.5095  10.2290  10.4110  11.6455  11.9307  12.5535  12.5599
    13.1473  13.5172  13.6644  18.1731  22.6106  24.8726  29.4996

          k = 0.0000 0.3318 0.1274 (   797 PWs)   bands (ev):

     7.8311   9.3867  10.2104  10.7968  11.4393  11.8974  12.5168  12.6264
    13.1668  13.5858  13.7526  18.4051  20.0799  26.7478  28.1995

          k = 0.0000 0.3318 0.2548 (   796 PWs)   bands (ev):

     8.1940   9.0046  10.8507  11.2449  11.2911  11.6006  12.5465  12.7281
    13.4513  13.5014  13.9386  16.4266  20.1299  24.1918  31.3129

          k = 0.0000 0.3318-0.3822 (   798 PWs)   bands (ev):

     8.4736   8.7008  11.2119  11.3621  11.4131  11.5997  12.5416  12.8528
    13.8108  13.8635  14.0544  14.2590  21.4446  22.3754  32.3066

          k = 0.0000-0.4977 0.0000 (   806 PWs)   bands (ev):

     8.5876   9.8659  10.0350  10.9248  11.3624  12.2558  12.3329  12.3980
    13.0012  13.2104  14.6773  15.5043  25.5187  25.7271  27.2744

          k = 0.0000-0.4977 0.1274 (   800 PWs)   bands (ev):

     8.6229   9.2378  10.2888  11.2145  11.7772  11.8901  12.4727  12.4770
    13.3773  13.4072  14.6781  15.4580  22.4163  23.5209  30.0472

          k = 0.0000-0.4977 0.2548 (   792 PWs)   bands (ev):

     8.6070   8.6339  10.9755  10.9780  11.4705  12.6203  12.9472  13.0005
    13.7433  13.8168  14.6226  15.1648  19.5014  21.3584  32.8457

          k = 0.0000-0.4977-0.3822 (   780 PWs)   bands (ev):

     8.3807   8.6219  10.8783  11.3122  11.3848  12.6930  13.6818  13.7230
    13.8939  13.9847  14.4591  14.4965  18.3616  20.4719  32.7696

          k = 0.1659 0.1659 0.0000 (   799 PWs)   bands (ev):

     6.7555   9.4489   9.4568  10.8385  11.2464  11.8253  12.8150  12.8769
    13.3046  13.3626  14.0690  20.6511  22.9382  23.2437  25.3364

          k = 0.1659 0.1659 0.1274 (   797 PWs)   bands (ev):

     7.0756   9.5002   9.5898  10.8527  11.1021  11.7296  12.7930  12.9057
    13.3254  13.4041  13.8457  18.4911  23.8013  23.8288  27.5225

          k = 0.1659 0.1659 0.2548 (   800 PWs)   bands (ev):

     7.9023   9.6117   9.7011  10.8779  11.0631  11.5624  12.7321  12.7901
    13.2795  13.3839  13.6491  15.9094  25.0090  25.3122  28.8952

          k = 0.1659 0.1659-0.3822 (   794 PWs)   bands (ev):

     8.6015   9.3952   9.6732  10.8876  11.3683  11.8638  12.0268  12.8816
    13.0703  13.1370  14.2387  14.5222  26.5467  26.7449  26.8684

          k = 0.1659 0.3318 0.0000 (   796 PWs)   bands (ev):

     8.2232   9.8629  10.1331  10.2153  11.0382  11.6241  12.9129  12.9420
    13.1793  13.6256  13.8720  18.7970  23.3320  24.4566  26.2220

          k = 0.1659 0.3318 0.1274 (   797 PWs)   bands (ev):

     8.4220   9.8047  10.1324  10.3993  10.9558  11.5626  12.8261  12.9790
    13.4632  13.5814  13.8087  19.2235  20.5093  25.8222  27.3403

          k = 0.1659 0.3318 0.2548 (   800 PWs)   bands (ev):

     8.7836   9.4853  10.4999  10.7741  10.9428  11.5331  12.6665  12.9259
    13.3589  13.6543  14.2305  17.4263  20.6190  24.5864  26.9037

          k = 0.1659 0.3318-0.3822 (   800 PWs)   bands (ev):

     8.9603   9.3096  10.5382  10.8041  11.5479  11.6430  12.3944  12.9028
    13.2995  13.4584  15.0419  15.7055  22.1314  22.6147  27.8919

          k = 0.1659-0.4977 0.0000 (   802 PWs)   bands (ev):

     9.3245   9.7183   9.7625  10.1802  10.9739  12.1434  13.0659  13.1952
    13.3621  13.4412  14.9189  15.6177  26.1496  26.3331  26.4788

          k = 0.1659-0.4977 0.1274 (   796 PWs)   bands (ev):

     9.2439   9.4429  10.0862  10.3311  10.9815  12.2621  12.8168  12.8978
    13.7031  13.7307  15.2219  15.7552  22.9022  23.7470  28.6310

          k = 0.1659-0.4977 0.2548 (   798 PWs)   bands (ev):

     8.8227   9.4851  10.1978  10.8956  11.0595  12.5846  12.6341  12.8633
    13.7801  13.8229  16.0355  16.1690  19.8979  21.4919  28.9604

          k = 0.1659-0.4977-0.3822 (   800 PWs)   bands (ev):

     8.6607   9.4631  10.2044  10.8715  11.5801  12.6864  12.8287  12.8755
    13.6429  13.7062  16.5837  16.5951  18.4553  20.4894  29.3203

          k = 0.3318 0.3318 0.0000 (   796 PWs)   bands (ev):

     8.7131   9.6471   9.9151  10.0472  11.5997  12.4093  13.3086  13.4277
    13.4613  13.6194  14.1220  19.1533  21.9024  25.0945  26.0408

          k = 0.3318 0.3318 0.1274 (   799 PWs)   bands (ev):

     8.8614   9.8741   9.9294  10.0304  11.5513  12.0209  13.1514  13.4125
    13.4580  13.8907  14.2940  19.8757  21.5415  22.8343  27.0006

          k = 0.3318 0.3318 0.2548 (   798 PWs)   bands (ev):

     9.1601   9.7115   9.9643  10.8218  11.4322  11.6772  12.8378  13.2801
    13.3391  13.5965  15.4129  19.2149  21.6227  22.7847  25.3642

          k = 0.3318 0.3318-0.3822 (   796 PWs)   bands (ev):

     9.3936   9.5033   9.9859  11.3604  11.4207  12.0259  12.1164  13.1758
    13.2651  13.5303  16.3560  17.6451  23.2580  23.7930  23.9589

          k = 0.3318-0.4977 0.0000 (   794 PWs)   bands (ev):

     8.5740   9.5775   9.6880   9.9003  12.1395  13.2134  13.5986  13.6261
    13.9078  13.9632  15.6573  15.9235  23.2078  24.7605  26.7410

          k = 0.3318-0.4977 0.1274 (   796 PWs)   bands (ev):

     8.6749   9.5493   9.9142  10.0322  11.9667  12.9086  13.2830  13.4270
    13.8426  13.9312  16.5160  16.5582  23.3052  23.9472  25.0812

          k = 0.3318-0.4977 0.2548 (   802 PWs)   bands (ev):

     8.9187   9.4409   9.9706  10.9182  11.5879  12.4442  12.8335  13.2920
    13.7478  13.7539  17.7073  18.1766  21.4505  22.0586  24.8909

          k = 0.3318-0.4977-0.3822 (   816 PWs)   bands (ev):

     9.1392   9.2797  10.0109  11.3082  12.0275  12.1178  12.3174  13.2025
    13.6322  13.7183  19.0632  19.3962  19.4549  20.7979  25.2409

          k =-0.4977-0.4977 0.0000 (   800 PWs)   bands (ev):

     8.1471   9.4933   9.4933   9.6722  13.7499  13.7969  13.8123  13.9696
    14.1487  14.1487  16.2248  16.2248  20.8060  22.9831  26.4367

          k =-0.4977-0.4977 0.1274 (   796 PWs)   bands (ev):

     8.2736   9.5209   9.5209  10.0088  13.3721  13.3721  13.6385  13.6480
    13.8127  13.9710  17.4200  17.4200  20.8912  22.6151  26.1860

          k =-0.4977-0.4977 0.2548 (   812 PWs)   bands (ev):

     8.5511   9.5876   9.5876  10.9082  12.4922  12.4922  13.1096  13.4116
    13.8136  13.9739  19.5221  19.5221  21.2315  21.9323  24.2813

          k =-0.4977-0.4977-0.3822 (   816 PWs)   bands (ev):

     8.7053   9.6289   9.6289  11.8373  12.1580  12.1580  12.3726  13.2736
    13.8141  13.9754  21.2814  21.2814  21.6210  21.8178  22.7009

 ------ SPIN DOWN ----------


          k = 0.0000 0.0000 0.0000 (   821 PWs)   bands (ev):

     5.4623   8.6843   8.8469  11.3488  11.3488  12.4715  12.5774  13.3102
    13.8013  14.0431  14.0431  17.8719  24.1358  26.0454  26.0454

          k = 0.0000 0.0000 0.1274 (   798 PWs)   bands (ev):

     5.8078   8.7523   8.9800  11.4266  11.4266  12.4796  12.5346  13.2113
    13.7315  13.8169  13.8169  16.0823  26.4584  26.7146  26.7146

          k = 0.0000 0.0000 0.2548 (   798 PWs)   bands (ev):

     6.6879   8.8996   9.3156  11.6291  11.6291  12.2729  12.6898  12.8271
    13.3389  13.3389  13.5627  13.6048  28.5154  28.5154  30.5636

          k = 0.0000 0.0000-0.3822 (   814 PWs)   bands (ev):

     7.3075   8.9801   9.6124  11.7765  11.7765  11.8357  12.1628  12.7961
    13.0629  13.0629  13.0846  13.4496  30.8735  30.8736  30.9971

          k = 0.0000 0.1659 0.0000 (   795 PWs)   bands (ev):

     6.1140   8.9587   9.2815  10.9861  11.5126  12.2090  12.6601  13.2774
    13.3038  13.5312  13.8981  19.4961  22.3354  24.6315  27.1255

          k = 0.0000 0.1659 0.1274 (   804 PWs)   bands (ev):

     6.4407   9.0245   9.4065  10.9833  11.4989  12.2780  12.6171  13.0452
    13.2305  13.3378  13.9469  17.5413  23.0107  27.0094  27.7113

          k = 0.0000 0.1659 0.2548 (   804 PWs)   bands (ev):

     7.2704   9.1729   9.6059  11.0567  11.5465  12.2107  12.4941  12.5480
    13.1317  13.2880  13.8438  14.9674  24.5007  28.6366  29.3384

          k = 0.0000 0.1659-0.3822 (   808 PWs)   bands (ev):

     7.8711   9.3698   9.4321  11.6416  11.6543  11.6650  12.0349  12.5141
    13.4264  13.5294  13.5574  13.5996  26.4444  26.4555  31.5707

          k = 0.0000 0.3318 0.0000 (   786 PWs)   bands (ev):

     7.6551   9.5095  10.2290  10.4110  11.6455  11.9307  12.5535  12.5599
    13.1473  13.5172  13.6644  18.1731  22.6106  24.8726  29.4996

          k = 0.0000 0.3318 0.1274 (   797 PWs)   bands (ev):

     7.8311   9.3867  10.2104  10.7968  11.4393  11.8974  12.5168  12.6264
    13.1668  13.5858  13.7526  18.4051  20.0799  26.7478  28.1995

          k = 0.0000 0.3318 0.2548 (   796 PWs)   bands (ev):

     8.1940   9.0046  10.8507  11.2449  11.2911  11.6006  12.5465  12.7281
    13.4513  13.5014  13.9386  16.4266  20.1299  24.1918  31.3129

          k = 0.0000 0.3318-0.3822 (   798 PWs)   bands (ev):

     8.4736   8.7008  11.2119  11.3621  11.4131  11.5997  12.5416  12.8528
    13.8108  13.8635  14.0544  14.2590  21.4446  22.3754  32.3066

          k = 0.0000-0.4977 0.0000 (   806 PWs)   bands (ev):

     8.5876   9.8659  10.0350  10.9248  11.3624  12.2558  12.3329  12.3980
    13.0012  13.2104  14.6773  15.5043  25.5187  25.7271  27.2744

          k = 0.0000-0.4977 0.1274 (   800 PWs)   bands (ev):

     8.6229   9.2378  10.2888  11.2145  11.7772  11.8901  12.4727  12.4770
    13.3773  13.4072  14.6781  15.4580  22.4163  23.5209  30.0473

          k = 0.0000-0.4977 0.2548 (   792 PWs)   bands (ev):

     8.6070   8.6339  10.9755  10.9780  11.4705  12.6203  12.9472  13.0005
    13.7433  13.8168  14.6226  15.1648  19.5014  21.3584  32.8458

          k = 0.0000-0.4977-0.3822 (   780 PWs)   bands (ev):

     8.3807   8.6219  10.8783  11.3122  11.3848  12.6930  13.6818  13.7230
    13.8939  13.9847  14.4591  14.4965  18.3616  20.4719  32.7708

          k = 0.1659 0.1659 0.0000 (   799 PWs)   bands (ev):

     6.7555   9.4489   9.4568  10.8385  11.2464  11.8253  12.8150  12.8769
    13.3046  13.3626  14.0690  20.6511  22.9382  23.2437  25.3364

          k = 0.1659 0.1659 0.1274 (   797 PWs)   bands (ev):

     7.0756   9.5002   9.5898  10.8527  11.1021  11.7296  12.7930  12.9057
    13.3254  13.4041  13.8457  18.4911  23.8013  23.8288  27.5225

          k = 0.1659 0.1659 0.2548 (   800 PWs)   bands (ev):

     7.9023   9.6117   9.7011  10.8779  11.0631  11.5624  12.7321  12.7901
    13.2795  13.3839  13.6491  15.9094  25.0090  25.3122  28.8952

          k = 0.1659 0.1659-0.3822 (   794 PWs)   bands (ev):

     8.6015   9.3952   9.6732  10.8876  11.3683  11.8638  12.0268  12.8816
    13.0703  13.1370  14.2387  14.5222  26.5467  26.7449  26.8684

          k = 0.1659 0.3318 0.0000 (   796 PWs)   bands (ev):

     8.2232   9.8629  10.1331  10.2153  11.0382  11.6241  12.9129  12.9420
    13.1793  13.6256  13.8720  18.7970  23.3320  24.4566  26.2220

          k = 0.1659 0.3318 0.1274 (   797 PWs)   bands (ev):

     8.4220   9.8047  10.1324  10.3993  10.9558  11.5626  12.8261  12.9790
    13.4632  13.5814  13.8087  19.2235  20.5093  25.8222  27.3403

          k = 0.1659 0.3318 0.2548 (   800 PWs)   bands (ev):

     8.7836   9.4853  10.4999  10.7741  10.9428  11.5331  12.6665  12.9259
    13.3589  13.6543  14.2305  17.4263  20.6190  24.5864  26.9037

          k = 0.1659 0.3318-0.3822 (   800 PWs)   bands (ev):

     8.9603   9.3096  10.5382  10.8041  11.5479  11.6430  12.3944  12.9028
    13.2995  13.4584  15.0419  15.7055  22.1314  22.6147  27.8919

          k = 0.1659-0.4977 0.0000 (   802 PWs)   bands (ev):

     9.3245   9.7183   9.7625  10.1802  10.9739  12.1434  13.0659  13.1952
    13.3621  13.4412  14.9189  15.6177  26.1496  26.3331  26.4789

          k = 0.1659-0.4977 0.1274 (   796 PWs)   bands (ev):

     9.2439   9.4429  10.0862  10.3311  10.9815  12.2621  12.8168  12.8978
    13.7031  13.7307  15.2219  15.7552  22.9022  23.7470  28.6310

          k = 0.1659-0.4977 0.2548 (   798 PWs)   bands (ev):

     8.8227   9.4851  10.1978  10.8956  11.0595  12.5846  12.6341  12.8633
    13.7801  13.8229  16.0355  16.1690  19.8979  21.4919  28.9604

          k = 0.1659-0.4977-0.3822 (   800 PWs)   bands (ev):

     8.6607   9.4631  10.2044  10.8715  11.5801  12.6864  12.8287  12.8755
    13.6429  13.7062  16.5837  16.5951  18.4553  20.4894  29.3203

          k = 0.3318 0.3318 0.0000 (   796 PWs)   bands (ev):

     8.7131   9.6471   9.9151  10.0472  11.5997  12.4093  13.3086  13.4277
    13.4613  13.6194  14.1220  19.1533  21.9024  25.0945  26.0408

          k = 0.3318 0.3318 0.1274 (   799 PWs)   bands (ev):

     8.8614   9.8741   9.9294  10.0304  11.5513  12.0209  13.1514  13.4125
    13.4580  13.8907  14.2940  19.8757  21.5415  22.8343  27.0006

          k = 0.3318 0.3318 0.2548 (   798 PWs)   bands (ev):

     9.1601   9.7115   9.9643  10.8218  11.4322  11.6772  12.8378  13.2801
    13.3391  13.5965  15.4129  19.2149  21.6227  22.7847  25.3642

          k = 0.3318 0.3318-0.3822 (   796 PWs)   bands (ev):

     9.3936   9.5033   9.9859  11.3604  11.4207  12.0259  12.1164  13.1758
    13.2651  13.5303  16.3560  17.6451  23.2580  23.7930  23.9589

          k = 0.3318-0.4977 0.0000 (   794 PWs)   bands (ev):

     8.5740   9.5775   9.6880   9.9003  12.1395  13.2134  13.5986  13.6261
    13.9078  13.9632  15.6573  15.9235  23.2078  24.7605  26.7410

          k = 0.3318-0.4977 0.1274 (   796 PWs)   bands (ev):

     8.6749   9.5493   9.9142  10.0322  11.9667  12.9086  13.2830  13.4270
    13.8426  13.9312  16.5160  16.5582  23.3052  23.9472  25.0812

          k = 0.3318-0.4977 0.2548 (   802 PWs)   bands (ev):

     8.9187   9.4409   9.9706  10.9182  11.5879  12.4442  12.8335  13.2920
    13.7478  13.7539  17.7073  18.1766  21.4505  22.0586  24.8909

          k = 0.3318-0.4977-0.3822 (   816 PWs)   bands (ev):

     9.1392   9.2797  10.0109  11.3082  12.0275  12.1178  12.3174  13.2025
    13.6322  13.7183  19.0632  19.3962  19.4549  20.7979  25.2409

          k =-0.4977-0.4977 0.0000 (   800 PWs)   bands (ev):

     8.1471   9.4933   9.4933   9.6722  13.7499  13.7969  13.8123  13.9696
    14.1487  14.1487  16.2248  16.2248  20.8060  22.9831  26.4367

          k =-0.4977-0.4977 0.1274 (   796 PWs)   bands (ev):

     8.2736   9.5209   9.5209  10.0088  13.3721  13.3721  13.6385  13.6480
    13.8127  13.9710  17.4200  17.4200  20.8912  22.6151  26.1860

          k =-0.4977-0.4977 0.2548 (   812 PWs)   bands (ev):

     8.5511   9.5876   9.5876  10.9082  12.4922  12.4922  13.1096  13.4116
    13.8136  13.9739  19.5221  19.5221  21.2315  21.9323  24.2813

          k =-0.4977-0.4977-0.3822 (   816 PWs)   bands (ev):

     8.7053   9.6289   9.6289  11.8373  12.1580  12.1580  12.3726  13.2736
    13.8141  13.9754  21.2814  21.2814  21.6210  21.8178  22.7009

     the Fermi energy is    15.6876 ev

!    total energy              =    -154.72692248 Ry
     estimated scf accuracy    <          7.5E-09 Ry
     smearing contrib. (-TS)   =      -0.00015202 Ry
     internal energy E=F+TS    =    -154.72677046 Ry

     The total energy is F=E-TS. E is the sum of the following terms:
     one-electron contribution =      -4.37135884 Ry
     hartree contribution      =      27.75930793 Ry
     xc contribution           =     -24.54785109 Ry
     ewald contribution        =    -153.56686846 Ry

     total magnetization       =     0.00 Bohr mag/cell
     absolute magnetization    =     0.00 Bohr mag/cell

     convergence has been achieved in   9 iterations

     Forces acting on atoms (cartesian axes, Ry/au):

     atom    1 type  2   force =     0.00000000    0.00000000    0.00000000
     atom    2 type  1   force =     0.00000000    0.00000000    0.00000000
     The non-local contrib.  to forces
     atom    1 type  2   force =     0.00000000    0.00000000    0.00000000
     atom    2 type  1   force =     0.00000000    0.00000000    0.00000000
     The ionic contribution  to forces
     atom    1 type  2   force =    -0.00000000   -0.00000000   -0.00000000
     atom    2 type  1   force =    -0.00000000   -0.00000000   -0.00000000
     The local contribution  to forces
     atom    1 type  2   force =     0.00000000    0.00000000    0.00000000
     atom    2 type  1   force =     0.00000000    0.00000000    0.00000000
     The core correction contribution to forces
     atom    1 type  2   force =     0.00000000    0.00000000    0.00000000
     atom    2 type  1   force =     0.00000000    0.00000000    0.00000000
     The Hubbard contrib.    to forces
     atom    1 type  2   force =     0.00000000    0.00000000    0.00000000
     atom    2 type  1   force =     0.00000000    0.00000000    0.00000000
     The SCF correction term to forces
     atom    1 type  2   force =     0.00000000    0.00000000   -0.00000000
     atom    2 type  1   force =    -0.00000000    0.00000000    0.00000000

     Total force =     0.000000     Total SCF correction =     0.000000


     Computing stress (Cartesian axis) and pressure

          total   stress  (Ry/bohr**3)                   (kbar)     P=       -0.31
   0.00007338   0.00000000   0.00000000           10.79        0.00        0.00
   0.00000000   0.00007338   0.00000000            0.00       10.79        0.00
   0.00000000   0.00000000  -0.00015307            0.00        0.00      -22.52

     Energy error            =      2.5E-04 Ry
     Gradient error          =      0.0E+00 Ry/Bohr
     Cell gradient error     =      2.3E+01 kbar

     number of scf cycles    =   2
     number of bfgs steps    =   1

     enthalpy           old  =    -154.7266675209 Ry
     enthalpy           new  =    -154.7269224768 Ry

     CASE: enthalpy          _new < enthalpy          _old

     new trust radius        =       0.0242840057 bohr
     new conv_thr            =       0.0000000010 Ry

     new unit-cell volume =    189.91751 a.u.^3 (    28.14287 Ang^3 )
     density =     15.37126 g/cm^3

CELL_PARAMETERS (angstrom)
   2.801214290   0.000000000   0.000000000
   0.000000000   2.801214290   0.000000000
   0.000000000   0.000000000   3.586540474

ATOMIC_POSITIONS (angstrom)
Cu            0.0000000000        0.0000000000        0.0000000000
Au            1.4006071451        1.4006071451        1.7932702369



     Writing config-only to output data dir /home/gridsan/epan1/labutil/lab3_samples/problem3/Lab3/CuAu_a_2.766_c_3.623_ecut_40_nk_6/pwscf.save/
     NEW-OLD atomic charge density approx. for the potential
     extrapolated charge   22.15842, renormalised to   22.00000
     Generating pointlists ...

     total cpu time spent up to now is       14.6 secs

     Self-consistent Calculation

     iteration #  1     ecut=    40.00 Ry     beta= 0.50
     Davidson diagonalization with overlap
     ethr =  1.00E-06,  avg # of iterations =  5.0

     total cpu time spent up to now is       15.7 secs

     total energy              =    -154.71682434 Ry
     estimated scf accuracy    <       0.01099539 Ry

     total magnetization       =     0.00 Bohr mag/cell
     absolute magnetization    =     0.00 Bohr mag/cell

     iteration #  2     ecut=    40.00 Ry     beta= 0.50
     Davidson diagonalization with overlap
     ethr =  5.00E-05,  avg # of iterations =  2.1

     total cpu time spent up to now is       16.4 secs

     total energy              =    -154.72547870 Ry
     estimated scf accuracy    <       0.03521621 Ry

     total magnetization       =     0.00 Bohr mag/cell
     absolute magnetization    =     0.00 Bohr mag/cell

     iteration #  3     ecut=    40.00 Ry     beta= 0.50
     Davidson diagonalization with overlap
     ethr =  5.00E-05,  avg # of iterations =  2.0

     total cpu time spent up to now is       17.0 secs

     total energy              =    -154.72771172 Ry
     estimated scf accuracy    <       0.00400026 Ry

     total magnetization       =     0.00 Bohr mag/cell
     absolute magnetization    =     0.00 Bohr mag/cell

     iteration #  4     ecut=    40.00 Ry     beta= 0.50
     Davidson diagonalization with overlap
     ethr =  1.82E-05,  avg # of iterations =  1.0

     total cpu time spent up to now is       18.1 secs

     total energy              =    -154.72690187 Ry
     estimated scf accuracy    <       0.00198850 Ry

     total magnetization       =     0.00 Bohr mag/cell
     absolute magnetization    =     0.00 Bohr mag/cell

     iteration #  5     ecut=    40.00 Ry     beta= 0.50
     Davidson diagonalization with overlap
     ethr =  9.04E-06,  avg # of iterations =  2.0

     total cpu time spent up to now is       18.9 secs

     total energy              =    -154.72731257 Ry
     estimated scf accuracy    <       0.00001946 Ry

     total magnetization       =     0.00 Bohr mag/cell
     absolute magnetization    =     0.00 Bohr mag/cell

     iteration #  6     ecut=    40.00 Ry     beta= 0.50
     Davidson diagonalization with overlap
     ethr =  8.85E-08,  avg # of iterations =  2.0

     total cpu time spent up to now is       19.8 secs

     total energy              =    -154.72731457 Ry
     estimated scf accuracy    <       0.00000754 Ry

     total magnetization       =     0.00 Bohr mag/cell
     absolute magnetization    =     0.00 Bohr mag/cell

     iteration #  7     ecut=    40.00 Ry     beta= 0.50
     Davidson diagonalization with overlap
     ethr =  3.43E-08,  avg # of iterations =  1.0

     total cpu time spent up to now is       20.3 secs

     total energy              =    -154.72731266 Ry
     estimated scf accuracy    <       0.00000471 Ry

     total magnetization       =     0.00 Bohr mag/cell
     absolute magnetization    =     0.00 Bohr mag/cell

     iteration #  8     ecut=    40.00 Ry     beta= 0.50
     Davidson diagonalization with overlap
     ethr =  2.14E-08,  avg # of iterations =  2.0

     total cpu time spent up to now is       21.0 secs

     total energy              =    -154.72731352 Ry
     estimated scf accuracy    <          7.8E-09 Ry

     total magnetization       =     0.00 Bohr mag/cell
     absolute magnetization    =     0.00 Bohr mag/cell

     iteration #  9     ecut=    40.00 Ry     beta= 0.50
     Davidson diagonalization with overlap
     ethr =  3.52E-11,  avg # of iterations =  2.7

     total cpu time spent up to now is       21.7 secs

     total energy              =    -154.72731353 Ry
     estimated scf accuracy    <          5.3E-09 Ry

     total magnetization       =     0.00 Bohr mag/cell
     absolute magnetization    =     0.00 Bohr mag/cell

     iteration # 10     ecut=    40.00 Ry     beta= 0.50
     Davidson diagonalization with overlap
     ethr =  2.42E-11,  avg # of iterations =  1.0

     total cpu time spent up to now is       22.3 secs

     total energy              =    -154.72731353 Ry
     estimated scf accuracy    <          1.0E-09 Ry

     total magnetization       =     0.00 Bohr mag/cell
     absolute magnetization    =     0.00 Bohr mag/cell

     iteration # 11     ecut=    40.00 Ry     beta= 0.50
     Davidson diagonalization with overlap
     ethr =  4.62E-12,  avg # of iterations =  2.0

     Magnetic moment per site  (integrated on atomic sphere of radius R)
     atom   1 (R=0.398)  charge= 10.0274  magn= -0.0000
     atom   2 (R=0.398)  charge=  8.8132  magn=  0.0000

     total cpu time spent up to now is       23.1 secs

     End of self-consistent calculation

 ------ SPIN UP ------------


          k = 0.0000 0.0000 0.0000 (   821 PWs)   bands (ev):

     5.3814   8.6304   8.7711  11.1990  11.1990  12.2654  12.4706  13.1839
    13.6416  13.8807  13.8807  17.9755  24.2181  25.6235  25.6235

          k = 0.0000 0.0000 0.1285 (   798 PWs)   bands (ev):

     5.7359   8.7037   8.9082  11.2724  11.2724  12.3323  12.3674  13.0908
    13.5675  13.6497  13.6497  16.1394  26.3072  26.3072  26.5947

          k = 0.0000 0.0000 0.2571 (   798 PWs)   bands (ev):

     6.6424   8.8636   9.2495  11.4645  11.4645  12.1477  12.4980  12.7486
    13.1663  13.1663  13.3873  13.5777  28.1408  28.1408  30.7431

          k = 0.0000 0.0000-0.3856 (   814 PWs)   bands (ev):

     7.2866   8.9518   9.5430  11.6046  11.6046  11.8151  12.0295  12.6136
    12.8907  12.8907  12.9792  13.2645  30.5330  30.5330  30.6477

          k = 0.0000 0.1646 0.0000 (   795 PWs)   bands (ev):

     6.0208   8.8927   9.1915  10.8678  11.3608  12.0223  12.5465  13.1541
    13.1684  13.3683  13.7344  19.5388  22.0221  24.6757  26.6913

          k = 0.0000 0.1646 0.1285 (   804 PWs)   bands (ev):

     6.3562   8.9621   9.3222  10.8635  11.3370  12.1008  12.4998  12.9234
    13.0973  13.1622  13.7900  17.5361  22.6802  27.1327  27.2885

          k = 0.0000 0.1646 0.2571 (   804 PWs)   bands (ev):

     7.2101   9.1130   9.5341  10.9425  11.3712  12.0359  12.3960  12.4234
    12.9928  13.1120  13.6863  14.8833  24.1864  28.3854  28.9430

          k = 0.0000 0.1646-0.3856 (   808 PWs)   bands (ev):

     7.8347   9.2781   9.3841  11.4604  11.5385  11.6177  11.8564  12.3880
    13.2716  13.3708  13.4204  13.4287  26.1424  26.1819  31.5302

          k = 0.0000 0.3291 0.0000 (   786 PWs)   bands (ev):

     7.5476   9.4246  10.1671  10.2714  11.4955  11.7748  12.4293  12.4350
    12.9771  13.3511  13.5007  17.8734  22.6065  24.9480  29.3935

          k = 0.0000 0.3291 0.1285 (   797 PWs)   bands (ev):

     7.7356   9.3081  10.1107  10.6853  11.2781  11.7382  12.3984  12.4975
    12.9968  13.4227  13.5990  18.1440  20.0229  26.6293  28.2865

          k = 0.0000 0.3291 0.2571 (   796 PWs)   bands (ev):

     8.1187   8.9236  10.7657  11.0770  11.1834  11.4221  12.4345  12.5952
    13.2855  13.3460  13.7928  16.3243  19.8829  24.0067  30.8748

          k = 0.0000 0.3291-0.3856 (   798 PWs)   bands (ev):

     8.4169   8.6062  11.0481  11.2209  11.2772  11.5299  12.4281  12.7107
    13.6681  13.7127  13.9074  14.1131  21.1919  22.1753  31.8830

          k = 0.0000-0.4937 0.0000 (   806 PWs)   bands (ev):

     8.4933   9.8254   9.9192  10.7730  11.2278  12.0981  12.2139  12.2557
    12.8290  13.0429  14.4623  15.2407  25.5059  25.7511  27.3055

          k = 0.0000-0.4937 0.1285 (   800 PWs)   bands (ev):

     8.5415   9.1638  10.1750  11.0719  11.6505  11.7144  12.3379  12.3536
    13.2209  13.2497  14.4724  15.2070  22.3536  23.4480  30.0649

          k = 0.0000-0.4937 0.2571 (   792 PWs)   bands (ev):

     8.5211   8.5647  10.8257  10.8985  11.2801  12.4987  12.7984  12.8598
    13.6001  13.6708  14.4518  14.9622  19.3497  21.2286  32.5456

          k = 0.0000-0.4937-0.3856 (   780 PWs)   bands (ev):

     8.2915   8.5549  10.7225  11.1166  11.3425  12.5781  13.4874  13.5393
    13.7565  13.8417  14.3444  14.3667  18.1419  20.3157  32.2987

          k = 0.1646 0.1646 0.0000 (   799 PWs)   bands (ev):

     6.6486   9.3584   9.3681  10.7108  11.1452  11.6617  12.6937  12.7373
    13.1477  13.2071  13.9109  20.6691  22.6964  22.8889  25.2933

          k = 0.1646 0.1646 0.1285 (   797 PWs)   bands (ev):

     6.9768   9.4232   9.4974  10.7202  10.9912  11.5699  12.6674  12.7689
    13.1800  13.2464  13.6836  18.4693  23.4681  23.4881  27.6178

          k = 0.1646 0.1646 0.2571 (   800 PWs)   bands (ev):

     7.8232   9.5443   9.6157  10.7341  10.9592  11.3954  12.6294  12.6530
    13.1382  13.2198  13.4843  15.8183  24.6670  25.0027  28.6376

          k = 0.1646 0.1646-0.3856 (   794 PWs)   bands (ev):

     8.5444   9.2951   9.6120  10.7367  11.2429  11.7871  11.8909  12.7357
    12.9093  12.9907  14.0934  14.3718  26.2249  26.4801  26.5583

          k = 0.1646 0.3291 0.0000 (   796 PWs)   bands (ev):

     8.0983   9.7561  10.0601  10.1016  10.9314  11.4691  12.7686  12.7914
    13.0101  13.4599  13.7168  18.4958  23.3155  24.3338  26.0326

          k = 0.1646 0.3291 0.1285 (   797 PWs)   bands (ev):

     8.3090   9.7196  10.0192  10.3005  10.8309  11.4052  12.6932  12.8327
    13.3061  13.4146  13.6494  18.9412  20.4635  25.4751  27.1970

          k = 0.1646 0.3291 0.2571 (   800 PWs)   bands (ev):

     8.6868   9.3989  10.3895  10.6411  10.8358  11.3763  12.5438  12.7902
    13.2009  13.4973  14.0772  17.3289  20.3561  24.3863  26.5484

          k = 0.1646 0.3291-0.3856 (   800 PWs)   bands (ev):

     8.8599   9.2302  10.4243  10.6453  11.4127  11.5809  12.2563  12.7707
    13.1445  13.2960  14.9088  15.5627  21.8626  22.4029  27.5753

          k = 0.1646-0.4937 0.0000 (   802 PWs)   bands (ev):

     9.1873   9.6108   9.7108  10.0766  10.8607  11.9875  12.9061  13.0223
    13.2149  13.2829  14.6967  15.3539  26.1568  26.3086  26.3283

          k = 0.1646-0.4937 0.1285 (   796 PWs)   bands (ev):

     9.1609   9.3278   9.9978  10.2172  10.8537  12.1055  12.6695  12.7485
    13.5374  13.5634  15.0195  15.5076  22.8305  23.6637  28.2844

          k = 0.1646-0.4937 0.2571 (   798 PWs)   bands (ev):

     8.7324   9.3892  10.0958  10.7510  10.9513  12.4308  12.5065  12.7322
    13.6037  13.6437  15.8688  15.9631  19.7535  21.3567  28.5874

          k = 0.1646-0.4937-0.3856 (   800 PWs)   bands (ev):

     8.5664   9.3688  10.0973  10.7016  11.5262  12.5552  12.6847  12.7485
    13.4550  13.5251  16.4357  16.4410  18.2343  20.3285  28.9608

          k = 0.3291 0.3291 0.0000 (   796 PWs)   bands (ev):

     8.6155   9.5104   9.8245   9.9767  11.4497  12.2288  13.1342  13.2645
    13.3132  13.4513  13.9726  18.8617  21.5830  25.0569  25.9813

          k = 0.3291 0.3291 0.1285 (   799 PWs)   bands (ev):

     8.7722   9.7630   9.8309   9.9298  11.4028  11.8440  12.9965  13.2506
    13.2974  13.7334  14.1368  19.6003  21.3622  22.6210  26.7428

          k = 0.3291 0.3291 0.2571 (   798 PWs)   bands (ev):

     9.0755   9.6221   9.8479  10.7092  11.2888  11.5056  12.7091  13.1295
    13.1830  13.4299  15.2601  19.1139  21.3737  22.4545  25.0939

          k = 0.3291 0.3291-0.3856 (   796 PWs)   bands (ev):

     9.2827   9.4373   9.8590  11.2210  11.2837  11.9220  11.9771  13.0298
    13.1120  13.3613  16.2206  17.4993  22.9677  23.5338  23.7764

          k = 0.3291-0.4937 0.0000 (   794 PWs)   bands (ev):

     8.5015   9.5093   9.5365   9.8146  11.9769  13.0357  13.4183  13.4555
    13.7604  13.8168  15.4231  15.6630  22.8532  24.4031  26.6819

          k = 0.3291-0.4937 0.1285 (   796 PWs)   bands (ev):

     8.6047   9.4739   9.8177   9.8921  11.8041  12.7380  13.1292  13.2682
    13.6658  13.7531  16.2771  16.3508  23.0093  23.7277  24.9358

          k = 0.3291-0.4937 0.2571 (   802 PWs)   bands (ev):

     8.8509   9.3529   9.8552  10.7987  11.4295  12.2852  12.7055  13.1414
    13.5652  13.5730  17.4825  17.9887  21.3057  21.8814  24.5444

          k = 0.3291-0.4937-0.3856 (   816 PWs)   bands (ev):

     9.0845   9.1733   9.8822  11.1675  11.8947  12.0205  12.1655  13.0574
    13.4507  13.5368  18.8400  19.2188  19.2772  20.6100  24.9833

          k =-0.4937-0.4937 0.0000 (   800 PWs)   bands (ev):

     8.0879   9.4187   9.4187   9.5219  13.5778  13.6112  13.6207  13.7490
    14.0035  14.0035  15.9810  15.9810  20.4327  22.6565  26.3908

          k =-0.4937-0.4937 0.1285 (   796 PWs)   bands (ev):

     8.2189   9.4379   9.4379   9.8662  13.2089  13.2089  13.4663  13.4836
    13.6212  13.7507  17.2053  17.2053  20.5188  22.3153  26.0350

          k =-0.4937-0.4937 0.2571 (   812 PWs)   bands (ev):

     8.5070   9.4851   9.4851  10.7814  12.3342  12.3342  12.9708  13.2619
    13.6223  13.7540  19.3301  19.3301  20.8669  21.6526  24.0606

          k =-0.4937-0.4937-0.3856 (   816 PWs)   bands (ev):

     8.6675   9.5147   9.5147  11.7067  12.0074  12.0074  12.2663  13.1305
    13.6228  13.7557  21.0989  21.0989  21.3405  21.4655  22.4227

 ------ SPIN DOWN ----------


          k = 0.0000 0.0000 0.0000 (   821 PWs)   bands (ev):

     5.3814   8.6304   8.7711  11.1990  11.1990  12.2654  12.4706  13.1839
    13.6416  13.8807  13.8807  17.9755  24.2181  25.6235  25.6235

          k = 0.0000 0.0000 0.1285 (   798 PWs)   bands (ev):

     5.7359   8.7037   8.9082  11.2724  11.2724  12.3323  12.3674  13.0908
    13.5675  13.6497  13.6497  16.1394  26.3072  26.3072  26.5947

          k = 0.0000 0.0000 0.2571 (   798 PWs)   bands (ev):

     6.6424   8.8636   9.2495  11.4645  11.4645  12.1477  12.4980  12.7486
    13.1663  13.1663  13.3873  13.5777  28.1408  28.1408  30.7431

          k = 0.0000 0.0000-0.3856 (   814 PWs)   bands (ev):

     7.2866   8.9518   9.5430  11.6046  11.6046  11.8151  12.0295  12.6136
    12.8907  12.8907  12.9792  13.2645  30.5330  30.5330  30.6476

          k = 0.0000 0.1646 0.0000 (   795 PWs)   bands (ev):

     6.0208   8.8927   9.1915  10.8678  11.3608  12.0223  12.5465  13.1541
    13.1684  13.3683  13.7344  19.5388  22.0221  24.6757  26.6913

          k = 0.0000 0.1646 0.1285 (   804 PWs)   bands (ev):

     6.3562   8.9621   9.3222  10.8635  11.3370  12.1008  12.4998  12.9234
    13.0973  13.1622  13.7900  17.5361  22.6802  27.1327  27.2885

          k = 0.0000 0.1646 0.2571 (   804 PWs)   bands (ev):

     7.2101   9.1130   9.5341  10.9425  11.3712  12.0359  12.3960  12.4234
    12.9928  13.1120  13.6863  14.8833  24.1864  28.3854  28.9430

          k = 0.0000 0.1646-0.3856 (   808 PWs)   bands (ev):

     7.8347   9.2781   9.3841  11.4604  11.5385  11.6177  11.8564  12.3880
    13.2716  13.3708  13.4204  13.4287  26.1424  26.1819  31.2122

          k = 0.0000 0.3291 0.0000 (   786 PWs)   bands (ev):

     7.5476   9.4246  10.1671  10.2714  11.4955  11.7748  12.4293  12.4350
    12.9771  13.3511  13.5007  17.8734  22.6065  24.9480  29.3935

          k = 0.0000 0.3291 0.1285 (   797 PWs)   bands (ev):

     7.7356   9.3081  10.1107  10.6853  11.2781  11.7382  12.3984  12.4975
    12.9968  13.4227  13.5990  18.1440  20.0229  26.6293  28.2865

          k = 0.0000 0.3291 0.2571 (   796 PWs)   bands (ev):

     8.1187   8.9236  10.7657  11.0770  11.1834  11.4221  12.4345  12.5952
    13.2855  13.3460  13.7928  16.3243  19.8829  24.0067  30.8748

          k = 0.0000 0.3291-0.3856 (   798 PWs)   bands (ev):

     8.4169   8.6062  11.0481  11.2209  11.2772  11.5299  12.4281  12.7107
    13.6681  13.7127  13.9074  14.1131  21.1919  22.1753  31.8830

          k = 0.0000-0.4937 0.0000 (   806 PWs)   bands (ev):

     8.4933   9.8254   9.9192  10.7730  11.2278  12.0981  12.2139  12.2557
    12.8290  13.0429  14.4623  15.2407  25.5059  25.7511  27.3055

          k = 0.0000-0.4937 0.1285 (   800 PWs)   bands (ev):

     8.5415   9.1638  10.1750  11.0719  11.6505  11.7144  12.3379  12.3536
    13.2209  13.2497  14.4724  15.2070  22.3536  23.4480  30.0649

          k = 0.0000-0.4937 0.2571 (   792 PWs)   bands (ev):

     8.5211   8.5647  10.8257  10.8985  11.2801  12.4987  12.7984  12.8598
    13.6001  13.6708  14.4518  14.9622  19.3497  21.2286  32.5456

          k = 0.0000-0.4937-0.3856 (   780 PWs)   bands (ev):

     8.2915   8.5549  10.7225  11.1166  11.3425  12.5781  13.4874  13.5393
    13.7565  13.8417  14.3444  14.3667  18.1419  20.3157  32.2993

          k = 0.1646 0.1646 0.0000 (   799 PWs)   bands (ev):

     6.6486   9.3584   9.3681  10.7108  11.1452  11.6617  12.6937  12.7373
    13.1477  13.2071  13.9109  20.6691  22.6964  22.8889  25.2933

          k = 0.1646 0.1646 0.1285 (   797 PWs)   bands (ev):

     6.9768   9.4232   9.4974  10.7202  10.9912  11.5699  12.6674  12.7689
    13.1800  13.2464  13.6836  18.4693  23.4681  23.4881  27.6178

          k = 0.1646 0.1646 0.2571 (   800 PWs)   bands (ev):

     7.8232   9.5443   9.6157  10.7341  10.9592  11.3954  12.6294  12.6530
    13.1382  13.2198  13.4843  15.8183  24.6670  25.0027  28.6376

          k = 0.1646 0.1646-0.3856 (   794 PWs)   bands (ev):

     8.5444   9.2951   9.6120  10.7367  11.2429  11.7871  11.8909  12.7357
    12.9093  12.9907  14.0934  14.3718  26.2249  26.4801  26.5583

          k = 0.1646 0.3291 0.0000 (   796 PWs)   bands (ev):

     8.0983   9.7561  10.0601  10.1016  10.9314  11.4691  12.7686  12.7914
    13.0101  13.4599  13.7168  18.4958  23.3155  24.3338  26.0326

          k = 0.1646 0.3291 0.1285 (   797 PWs)   bands (ev):

     8.3090   9.7196  10.0192  10.3005  10.8309  11.4052  12.6932  12.8327
    13.3061  13.4146  13.6494  18.9412  20.4635  25.4751  27.1970

          k = 0.1646 0.3291 0.2571 (   800 PWs)   bands (ev):

     8.6868   9.3989  10.3895  10.6411  10.8358  11.3763  12.5438  12.7902
    13.2009  13.4973  14.0772  17.3289  20.3561  24.3863  26.5484

          k = 0.1646 0.3291-0.3856 (   800 PWs)   bands (ev):

     8.8599   9.2302  10.4243  10.6453  11.4127  11.5809  12.2563  12.7707
    13.1445  13.2960  14.9088  15.5627  21.8626  22.4029  27.5753

          k = 0.1646-0.4937 0.0000 (   802 PWs)   bands (ev):

     9.1873   9.6108   9.7108  10.0766  10.8607  11.9875  12.9061  13.0223
    13.2149  13.2829  14.6967  15.3539  26.1568  26.3086  26.3283

          k = 0.1646-0.4937 0.1285 (   796 PWs)   bands (ev):

     9.1609   9.3278   9.9978  10.2172  10.8537  12.1055  12.6695  12.7485
    13.5374  13.5634  15.0195  15.5076  22.8305  23.6637  28.2844

          k = 0.1646-0.4937 0.2571 (   798 PWs)   bands (ev):

     8.7324   9.3892  10.0958  10.7510  10.9513  12.4308  12.5065  12.7322
    13.6037  13.6437  15.8688  15.9631  19.7535  21.3567  28.5874

          k = 0.1646-0.4937-0.3856 (   800 PWs)   bands (ev):

     8.5664   9.3688  10.0973  10.7016  11.5262  12.5552  12.6847  12.7485
    13.4550  13.5251  16.4357  16.4410  18.2343  20.3285  28.9608

          k = 0.3291 0.3291 0.0000 (   796 PWs)   bands (ev):

     8.6155   9.5104   9.8245   9.9767  11.4497  12.2288  13.1342  13.2645
    13.3132  13.4513  13.9726  18.8617  21.5830  25.0569  25.9813

          k = 0.3291 0.3291 0.1285 (   799 PWs)   bands (ev):

     8.7722   9.7630   9.8309   9.9298  11.4028  11.8440  12.9965  13.2506
    13.2974  13.7334  14.1368  19.6003  21.3622  22.6210  26.7428

          k = 0.3291 0.3291 0.2571 (   798 PWs)   bands (ev):

     9.0755   9.6221   9.8479  10.7092  11.2888  11.5056  12.7091  13.1295
    13.1830  13.4299  15.2601  19.1139  21.3737  22.4545  25.0939

          k = 0.3291 0.3291-0.3856 (   796 PWs)   bands (ev):

     9.2827   9.4373   9.8590  11.2210  11.2837  11.9220  11.9771  13.0298
    13.1120  13.3613  16.2206  17.4993  22.9677  23.5338  23.7764

          k = 0.3291-0.4937 0.0000 (   794 PWs)   bands (ev):

     8.5015   9.5093   9.5365   9.8146  11.9769  13.0357  13.4183  13.4555
    13.7604  13.8168  15.4231  15.6630  22.8532  24.4031  26.6819

          k = 0.3291-0.4937 0.1285 (   796 PWs)   bands (ev):

     8.6047   9.4739   9.8177   9.8921  11.8041  12.7380  13.1292  13.2682
    13.6658  13.7531  16.2771  16.3508  23.0093  23.7277  24.9358

          k = 0.3291-0.4937 0.2571 (   802 PWs)   bands (ev):

     8.8509   9.3529   9.8552  10.7987  11.4295  12.2852  12.7055  13.1414
    13.5652  13.5730  17.4825  17.9887  21.3057  21.8814  24.5444

          k = 0.3291-0.4937-0.3856 (   816 PWs)   bands (ev):

     9.0845   9.1733   9.8822  11.1675  11.8947  12.0205  12.1655  13.0574
    13.4507  13.5368  18.8400  19.2188  19.2772  20.6100  24.9833

          k =-0.4937-0.4937 0.0000 (   800 PWs)   bands (ev):

     8.0879   9.4187   9.4187   9.5219  13.5778  13.6112  13.6207  13.7490
    14.0035  14.0035  15.9810  15.9810  20.4327  22.6565  26.3908

          k =-0.4937-0.4937 0.1285 (   796 PWs)   bands (ev):

     8.2189   9.4379   9.4379   9.8662  13.2089  13.2089  13.4663  13.4836
    13.6212  13.7507  17.2053  17.2053  20.5188  22.3153  26.0350

          k =-0.4937-0.4937 0.2571 (   812 PWs)   bands (ev):

     8.5070   9.4851   9.4851  10.7814  12.3342  12.3342  12.9708  13.2619
    13.6223  13.7540  19.3301  19.3301  20.8669  21.6526  24.0606

          k =-0.4937-0.4937-0.3856 (   816 PWs)   bands (ev):

     8.6675   9.5147   9.5147  11.7067  12.0074  12.0074  12.2663  13.1305
    13.6228  13.7557  21.0989  21.0989  21.3405  21.4655  22.4227

     the Fermi energy is    15.4762 ev

!    total energy              =    -154.72731353 Ry
     estimated scf accuracy    <          1.8E-10 Ry
     smearing contrib. (-TS)   =      -0.00007285 Ry
     internal energy E=F+TS    =    -154.72724068 Ry

     The total energy is F=E-TS. E is the sum of the following terms:
     one-electron contribution =      -4.91162304 Ry
     hartree contribution      =      27.91610534 Ry
     xc contribution           =     -24.53662336 Ry
     ewald contribution        =    -153.19509961 Ry

     total magnetization       =     0.00 Bohr mag/cell
     absolute magnetization    =     0.00 Bohr mag/cell

     convergence has been achieved in  11 iterations

     Forces acting on atoms (cartesian axes, Ry/au):

     atom    1 type  2   force =     0.00000000    0.00000000    0.00000000
     atom    2 type  1   force =     0.00000000    0.00000000    0.00000000
     The non-local contrib.  to forces
     atom    1 type  2   force =     0.00000000    0.00000000    0.00000000
     atom    2 type  1   force =     0.00000000    0.00000000    0.00000000
     The ionic contribution  to forces
     atom    1 type  2   force =    -0.00000000   -0.00000000   -0.00000000
     atom    2 type  1   force =    -0.00000000   -0.00000000   -0.00000000
     The local contribution  to forces
     atom    1 type  2   force =     0.00000000    0.00000000    0.00000000
     atom    2 type  1   force =     0.00000000    0.00000000   -0.00000000
     The core correction contribution to forces
[...]
    13.0717  13.4894  13.9417  17.1326  23.1370  27.2137  28.5228

          k = 0.0000 0.1523-0.4565 (   808 PWs)   bands (ev):

     8.8114   9.6836  10.2623  10.9449  11.5208  11.9052  12.7786  12.8632
    13.5004  13.5109  14.2059  14.3755  25.3952  26.0594  30.1755

          k = 0.0000 0.3046 0.0000 (   804 PWs)   bands (ev):

     7.4914   9.7127  10.0934  11.2699  11.2753  12.0343  12.6649  13.0408
    13.0424  13.4905  13.5551  16.4842  26.5814  26.6067  29.6211

          k = 0.0000 0.3046 0.1522 (   808 PWs)   bands (ev):

     7.9018   9.7591  10.2295  11.0234  11.2462  11.7062  12.8923  12.9435
    13.0711  13.4910  13.9412  17.1459  23.1213  27.2167  28.5180

          k = 0.0000 0.3046 0.3044 (   796 PWs)   bands (ev):

     8.5736   9.3589  10.6994  11.0388  11.3077  11.7545  12.9732  13.1886
    13.3908  13.5917  14.2179  17.5438  20.1666  25.1456  28.7656

          k = 0.0000 0.3046-0.4565 (   806 PWs)   bands (ev):

     8.8324   9.0964  10.5917  10.7403  11.7189  12.9002  12.9981  13.2195
    14.0376  14.0849  14.6666  14.7350  21.0745  22.8686  30.1184

          k = 0.0000-0.4569 0.0000 (   804 PWs)   bands (ev):

     8.4550   9.9911  10.5368  11.1766  11.1821  12.3408  12.3744  12.7912
    12.7933  13.1731  14.0487  14.2224  29.3201  29.5745  29.6018

          k = 0.0000-0.4569 0.1522 (   808 PWs)   bands (ev):

     8.8141   9.6831  10.2656  10.9435  11.5201  11.9061  12.7777  12.8630
    13.4996  13.5100  14.2102  14.3860  25.3814  26.0497  30.1810

          k = 0.0000-0.4569 0.3044 (   806 PWs)   bands (ev):

     8.8321   9.0969  10.5902  10.7411  11.7179  12.9005  13.0015  13.2203
    14.0371  14.0848  14.6679  14.7404  21.0672  22.8652  30.1203

          k = 0.0000-0.4569-0.4565 (   784 PWs)   bands (ev):

     8.5158   9.1163  10.4470  10.4485  13.0509  13.1821  13.3172  13.5015
    14.2769  14.2773  14.9449  14.9453  18.7221  21.5035  29.9718

          k = 0.1523 0.1523 0.0000 (   798 PWs)   bands (ev):

     6.6482   9.4749   9.6695  11.2296  11.2894  11.8318  13.1447  13.1564
    13.3208  13.3225  14.1009  20.9652  21.2056  24.8838  29.7294

          k = 0.1523 0.1523 0.1522 (   802 PWs)   bands (ev):

     7.1514   9.7958   9.7961  11.0863  11.0891  11.5869  13.0121  13.2374
    13.2397  13.7267  13.7288  21.6903  21.9109  21.9222  32.4128

          k = 0.1523 0.1523 0.3044 (   801 PWs)   bands (ev):

     8.3411  10.0978  10.1188  10.7613  11.0738  11.3576  13.0443  13.1779
    13.3848  13.5593  13.7656  17.8820  23.2483  24.1087  28.9722

          k = 0.1523 0.1523-0.4565 (   800 PWs)   bands (ev):

     9.3225   9.5442  10.3492  10.5102  11.1263  12.1186  12.9434  12.9516
    13.4563  13.5552  14.8878  14.9032  25.2045  26.0247  26.4179

          k = 0.1523 0.3046 0.0000 (   808 PWs)   bands (ev):

     7.9031   9.7611  10.2289  11.0187  11.2494  11.7029  12.8934  12.9459
    13.0704  13.4909  13.9417  17.1472  23.1401  27.1926  28.5259

          k = 0.1523 0.3046 0.1522 (   794 PWs)   bands (ev):

     8.3428  10.0987  10.1200  10.7608  11.0718  11.3579  13.0453  13.1762
    13.3868  13.5586  13.7677  17.8944  23.2400  24.1034  28.9745

          k = 0.1523 0.3046 0.3044 (   794 PWs)   bands (ev):

     8.9653   9.7798  10.4554  10.5973  11.3278  11.4532  13.0841  13.2629
    13.3817  13.7890  14.3895  18.6949  20.3787  25.0882  25.4063

          k = 0.1523 0.3046-0.4565 (   802 PWs)   bands (ev):

     9.0147   9.7206  10.2817  10.4922  11.5541  12.5770  13.0636  13.2693
    13.5038  13.5850  15.8237  16.1526  21.5421  22.8909  26.9362

          k = 0.1523-0.4569 0.0000 (   808 PWs)   bands (ev):

     8.8165   9.6845  10.2653  10.9382  11.5168  11.9072  12.7805  12.8654
    13.4997  13.5101  14.2111  14.3866  25.3999  26.0667  30.1566

          k = 0.1523-0.4569 0.1522 (   800 PWs)   bands (ev):

     9.3253   9.5436  10.3516  10.5075  11.1248  12.1193  12.9423  12.9516
    13.4622  13.5575  14.8900  14.9096  25.1987  26.0216  26.4171

          k = 0.1523-0.4569 0.3044 (   802 PWs)   bands (ev):

     9.0141   9.7210  10.2799  10.4932  11.5532  12.5775  13.0646  13.2686
    13.5076  13.5869  15.8279  16.1535  21.5339  22.8872  26.9401

          k = 0.1523-0.4569-0.4565 (   792 PWs)   bands (ev):

     8.7438   9.7167  10.2239  10.2259  13.0206  13.0210  13.1103  13.1975
    13.3714  13.5063  16.8945  16.8946  18.8029  21.4037  27.8036

          k = 0.3046 0.3046 0.0000 (   796 PWs)   bands (ev):

     8.5760   9.3608  10.6943  11.0334  11.3096  11.7584  12.9753  13.1923
    13.3912  13.5914  14.2185  17.5514  20.1758  25.1574  28.7441

          k = 0.3046 0.3046 0.1522 (   794 PWs)   bands (ev):

     8.9659   9.7810  10.4525  10.5949  11.3289  11.4559  13.0853  13.2649
    13.3822  13.7908  14.3895  18.7001  20.3875  25.0746  25.4145

          k = 0.3046 0.3046 0.3044 (   807 PWs)   bands (ev):

     9.3821   9.9989   9.9995  11.0923  11.3306  11.3310  13.2771  13.2789
    13.4548  13.4560  15.6579  21.0586  21.0623  21.1279  25.1131

          k = 0.3046 0.3046-0.4565 (   806 PWs)   bands (ev):

     9.3024   9.7854   9.9952  11.1861  11.3213  12.2724  13.1900  13.2851
    13.4222  13.5138  17.2509  18.1598  22.5119  22.8415  23.3856

          k = 0.3046-0.4569 0.0000 (   806 PWs)   bands (ev):

     8.8321   9.1006  10.5850  10.7354  11.7213  12.9018  13.0043  13.2232
    14.0376  14.0853  14.6717  14.7430  21.0813  22.8765  30.0988

          k = 0.3046-0.4569 0.1522 (   802 PWs)   bands (ev):

     9.0138   9.7229  10.2772  10.4895  11.5561  12.5788  13.0670  13.2709
    13.5087  13.5874  15.8286  16.1549  21.5474  22.8973  26.9259

          k = 0.3046-0.4569 0.3044 (   806 PWs)   bands (ev):

     9.3009   9.7835   9.9965  11.1852  11.3212  12.2736  13.1886  13.2916
    13.4215  13.5159  17.2558  18.1611  22.5102  22.8360  23.3847

          k = 0.3046-0.4569-0.4565 (   800 PWs)   bands (ev):

     9.2463   9.7564   9.7592  11.1452  12.2561  12.2571  13.2192  13.2289
    13.4747  13.5160  19.3093  19.5507  19.5511  21.1920  25.1262

          k =-0.4569-0.4569 0.0000 (   784 PWs)   bands (ev):

     8.5153   9.1200  10.4418  10.4418  13.0567  13.1862  13.3208  13.5027
    14.2778  14.2778  14.9509  14.9509  18.7312  21.5117  29.9501

          k =-0.4569-0.4569 0.1522 (   788 PWs)   bands (ev):

     8.7427   9.7186  10.2209  10.2209  13.0234  13.0234  13.1151  13.2014
    13.3740  13.5075  16.8967  16.8967  18.8120  21.4109  27.7926

          k =-0.4569-0.4569 0.3044 (   800 PWs)   bands (ev):

     9.2439   9.7577   9.7577  11.1436  12.2578  12.2578  13.2212  13.2319
    13.4750  13.5170  19.3175  19.5507  19.5507  21.1956  25.1175

          k =-0.4569-0.4569-0.4565 (   840 PWs)   bands (ev):

     9.5242   9.5272   9.5272  12.0427  12.0439  12.0439  13.2424  13.2472
    13.5204  13.5218  20.7983  21.0766  21.6416  21.6416  21.6460

 ------ SPIN DOWN ----------


          k = 0.0000 0.0000 0.0000 (   799 PWs)   bands (ev):

     5.5972   9.1039   9.1046  11.5145  11.5145  11.5194  13.2995  13.3035
    14.0413  14.0425  14.0425  22.9308  22.9590  22.9590  28.3414

          k = 0.0000 0.0000 0.1522 (   791 PWs)   bands (ev):

     6.1328   9.2819   9.4034  11.4394  11.4394  11.6630  13.1126  13.3745
    13.6578  13.6578  13.8869  20.1802  24.0152  24.0152  29.2508

          k = 0.0000 0.0000 0.3044 (   804 PWs)   bands (ev):

     7.4879   9.7101  10.0898  11.2749  11.2749  12.0377  12.6628  13.0435
    13.0435  13.4906  13.5532  16.4678  26.6021  26.6021  29.6834

          k = 0.0000 0.0000-0.4565 (   804 PWs)   bands (ev):

     8.4501   9.9874  10.5322  11.1835  11.1835  12.3433  12.3731  12.7938
    12.7938  13.1740  14.0431  14.2093  29.3269  29.5934  29.5934

          k = 0.0000 0.1523 0.0000 (   791 PWs)   bands (ev):

     6.1339   9.2829   9.4042  11.4379  11.4430  11.6585  13.1153  13.3728
    13.6561  13.6562  13.8878  20.2023  23.9898  24.0167  29.2360

          k = 0.0000 0.1523 0.1522 (   798 PWs)   bands (ev):

     6.6471   9.4732   9.6693  11.2330  11.2859  11.8348  13.1416  13.1579
    13.3226  13.3228  14.1003  20.9538  21.1952  24.9086  29.7494

          k = 0.0000 0.1523 0.3044 (   808 PWs)   bands (ev):

     7.8998   9.7584  10.2268  11.0237  11.2475  11.7075  12.8920  12.9441
    13.0717  13.4894  13.9417  17.1326  23.1370  27.2137  28.5228

          k = 0.0000 0.1523-0.4565 (   808 PWs)   bands (ev):

     8.8114   9.6836  10.2623  10.9449  11.5208  11.9052  12.7786  12.8632
    13.5004  13.5109  14.2059  14.3755  25.3952  26.0594  30.1755

          k = 0.0000 0.3046 0.0000 (   804 PWs)   bands (ev):

     7.4914   9.7127  10.0934  11.2699  11.2753  12.0343  12.6649  13.0408
    13.0424  13.4905  13.5551  16.4842  26.5814  26.6067  29.6211

          k = 0.0000 0.3046 0.1522 (   808 PWs)   bands (ev):

     7.9018   9.7591  10.2295  11.0234  11.2462  11.7062  12.8923  12.9435
    13.0711  13.4910  13.9412  17.1459  23.1213  27.2167  28.5180

          k = 0.0000 0.3046 0.3044 (   796 PWs)   bands (ev):

     8.5736   9.3589  10.6994  11.0388  11.3077  11.7545  12.9732  13.1886
    13.3908  13.5917  14.2179  17.5438  20.1666  25.1456  28.7656

          k = 0.0000 0.3046-0.4565 (   806 PWs)   bands (ev):

     8.8324   9.0964  10.5917  10.7403  11.7189  12.9002  12.9981  13.2195
    14.0376  14.0849  14.6666  14.7350  21.0745  22.8686  30.1183

          k = 0.0000-0.4569 0.0000 (   804 PWs)   bands (ev):

     8.4550   9.9911  10.5368  11.1766  11.1821  12.3408  12.3744  12.7912
    12.7933  13.1731  14.0487  14.2224  29.3201  29.5745  29.6018

          k = 0.0000-0.4569 0.1522 (   808 PWs)   bands (ev):

     8.8141   9.6831  10.2656  10.9435  11.5201  11.9061  12.7777  12.8630
    13.4996  13.5100  14.2102  14.3860  25.3814  26.0497  30.1810

          k = 0.0000-0.4569 0.3044 (   806 PWs)   bands (ev):

     8.8321   9.0969  10.5902  10.7411  11.7179  12.9005  13.0015  13.2203
    14.0371  14.0848  14.6679  14.7404  21.0672  22.8652  30.1204

          k = 0.0000-0.4569-0.4565 (   784 PWs)   bands (ev):

     8.5158   9.1163  10.4470  10.4485  13.0509  13.1821  13.3172  13.5015
    14.2769  14.2773  14.9449  14.9453  18.7221  21.5035  29.9718

          k = 0.1523 0.1523 0.0000 (   798 PWs)   bands (ev):

     6.6482   9.4749   9.6695  11.2296  11.2894  11.8318  13.1447  13.1564
    13.3208  13.3225  14.1009  20.9652  21.2056  24.8838  29.7294

          k = 0.1523 0.1523 0.1522 (   802 PWs)   bands (ev):

     7.1514   9.7958   9.7961  11.0863  11.0891  11.5869  13.0121  13.2374
    13.2397  13.7267  13.7288  21.6903  21.9109  21.9222  32.4129

          k = 0.1523 0.1523 0.3044 (   801 PWs)   bands (ev):

     8.3411  10.0978  10.1188  10.7613  11.0738  11.3576  13.0443  13.1779
    13.3848  13.5593  13.7656  17.8820  23.2483  24.1087  28.9722

          k = 0.1523 0.1523-0.4565 (   800 PWs)   bands (ev):

     9.3225   9.5442  10.3492  10.5102  11.1263  12.1186  12.9434  12.9516
    13.4563  13.5552  14.8878  14.9032  25.2045  26.0247  26.4179

          k = 0.1523 0.3046 0.0000 (   808 PWs)   bands (ev):

     7.9031   9.7611  10.2289  11.0187  11.2494  11.7029  12.8934  12.9459
    13.0704  13.4909  13.9417  17.1472  23.1401  27.1926  28.5259

          k = 0.1523 0.3046 0.1522 (   794 PWs)   bands (ev):

     8.3428  10.0987  10.1200  10.7608  11.0718  11.3579  13.0453  13.1762
    13.3868  13.5586  13.7677  17.8944  23.2400  24.1034  28.9745

          k = 0.1523 0.3046 0.3044 (   794 PWs)   bands (ev):

     8.9653   9.7798  10.4554  10.5973  11.3278  11.4532  13.0841  13.2629
    13.3817  13.7890  14.3895  18.6949  20.3787  25.0882  25.4063

          k = 0.1523 0.3046-0.4565 (   802 PWs)   bands (ev):

     9.0147   9.7206  10.2817  10.4922  11.5541  12.5770  13.0636  13.2693
    13.5038  13.5850  15.8237  16.1526  21.5421  22.8909  26.9362

          k = 0.1523-0.4569 0.0000 (   808 PWs)   bands (ev):

     8.8165   9.6845  10.2653  10.9382  11.5168  11.9072  12.7805  12.8654
    13.4997  13.5101  14.2111  14.3866  25.3999  26.0667  30.1567

          k = 0.1523-0.4569 0.1522 (   800 PWs)   bands (ev):

     9.3253   9.5436  10.3516  10.5075  11.1248  12.1193  12.9423  12.9516
    13.4622  13.5575  14.8900  14.9096  25.1987  26.0216  26.4171

          k = 0.1523-0.4569 0.3044 (   802 PWs)   bands (ev):

     9.0141   9.7210  10.2799  10.4932  11.5532  12.5775  13.0646  13.2686
    13.5076  13.5869  15.8279  16.1535  21.5339  22.8872  26.9401

          k = 0.1523-0.4569-0.4565 (   792 PWs)   bands (ev):

     8.7438   9.7167  10.2239  10.2259  13.0206  13.0210  13.1103  13.1975
    13.3714  13.5063  16.8945  16.8946  18.8029  21.4037  27.8036

          k = 0.3046 0.3046 0.0000 (   796 PWs)   bands (ev):

     8.5760   9.3608  10.6943  11.0334  11.3096  11.7584  12.9753  13.1923
    13.3912  13.5914  14.2185  17.5514  20.1758  25.1574  28.7441

          k = 0.3046 0.3046 0.1522 (   794 PWs)   bands (ev):

     8.9659   9.7810  10.4525  10.5949  11.3289  11.4559  13.0853  13.2649
    13.3822  13.7908  14.3895  18.7001  20.3875  25.0746  25.4145

          k = 0.3046 0.3046 0.3044 (   807 PWs)   bands (ev):

     9.3821   9.9989   9.9995  11.0923  11.3306  11.3310  13.2771  13.2789
    13.4548  13.4560  15.6579  21.0586  21.0623  21.1279  25.1131

          k = 0.3046 0.3046-0.4565 (   806 PWs)   bands (ev):

     9.3024   9.7854   9.9952  11.1861  11.3213  12.2724  13.1900  13.2851
    13.4222  13.5138  17.2509  18.1598  22.5119  22.8415  23.3856

          k = 0.3046-0.4569 0.0000 (   806 PWs)   bands (ev):

     8.8321   9.1006  10.5850  10.7354  11.7213  12.9018  13.0043  13.2232
    14.0376  14.0853  14.6717  14.7430  21.0813  22.8765  30.0987

          k = 0.3046-0.4569 0.1522 (   802 PWs)   bands (ev):

     9.0138   9.7229  10.2772  10.4895  11.5561  12.5788  13.0670  13.2709
    13.5087  13.5874  15.8286  16.1549  21.5474  22.8973  26.9259

          k = 0.3046-0.4569 0.3044 (   806 PWs)   bands (ev):

     9.3009   9.7835   9.9965  11.1852  11.3212  12.2736  13.1886  13.2916
    13.4215  13.5159  17.2558  18.1611  22.5102  22.8360  23.3847

          k = 0.3046-0.4569-0.4565 (   800 PWs)   bands (ev):

     9.2463   9.7564   9.7592  11.1452  12.2561  12.2571  13.2192  13.2289
    13.4747  13.5160  19.3093  19.5507  19.5511  21.1920  25.1262

          k =-0.4569-0.4569 0.0000 (   784 PWs)   bands (ev):

     8.5153   9.1200  10.4418  10.4418  13.0567  13.1862  13.3208  13.5027
    14.2778  14.2778  14.9509  14.9509  18.7312  21.5117  29.9501

          k =-0.4569-0.4569 0.1522 (   788 PWs)   bands (ev):

     8.7427   9.7186  10.2209  10.2209  13.0234  13.0234  13.1151  13.2014
    13.3740  13.5075  16.8967  16.8967  18.8120  21.4109  27.7926

          k =-0.4569-0.4569 0.3044 (   800 PWs)   bands (ev):

     9.2439   9.7577   9.7577  11.1436  12.2578  12.2578  13.2212  13.2319
    13.4750  13.5170  19.3175  19.5507  19.5507  21.1956  25.1175

          k =-0.4569-0.4569-0.4565 (   840 PWs)   bands (ev):

     9.5242   9.5272   9.5272  12.0427  12.0439  12.0439  13.2424  13.2472
    13.5204  13.5218  20.7983  21.0766  21.6416  21.6416  21.6460

     the Fermi energy is    15.7858 ev

!    total energy              =    -154.73126402 Ry
     estimated scf accuracy    <          3.4E-10 Ry
     smearing contrib. (-TS)   =      -0.00040743 Ry
     internal energy E=F+TS    =    -154.73085659 Ry

     The total energy is F=E-TS. E is the sum of the following terms:
     one-electron contribution =      -3.81771335 Ry
     hartree contribution      =      27.56507368 Ry
     xc contribution           =     -24.54984694 Ry
     ewald contribution        =    -153.92836998 Ry

     total magnetization       =     0.00 Bohr mag/cell
     absolute magnetization    =     0.00 Bohr mag/cell

     convergence has been achieved in   9 iterations

     Forces acting on atoms (cartesian axes, Ry/au):

     atom    1 type  2   force =     0.00000000    0.00000000    0.00000000
     atom    2 type  1   force =     0.00000000    0.00000000    0.00000000
     The non-local contrib.  to forces
     atom    1 type  2   force =     0.00000000    0.00000000    0.00000000
     atom    2 type  1   force =     0.00000000    0.00000000    0.00000000
     The ionic contribution  to forces
     atom    1 type  2   force =    -0.00000000   -0.00000000   -0.00000000
     atom    2 type  1   force =     0.00000000    0.00000000    0.00000000
     The local contribution  to forces
     atom    1 type  2   force =    -0.00000000    0.00000000    0.00000000
     atom    2 type  1   force =    -0.00000000   -0.00000000   -0.00000000
     The core correction contribution to forces
     atom    1 type  2   force =     0.00000000    0.00000000    0.00000000
     atom    2 type  1   force =     0.00000000    0.00000000    0.00000000
     The Hubbard contrib.    to forces
     atom    1 type  2   force =     0.00000000    0.00000000    0.00000000
     atom    2 type  1   force =     0.00000000    0.00000000    0.00000000
     The SCF correction term to forces
     atom    1 type  2   force =     0.00000000   -0.00000000   -0.00000000
     atom    2 type  1   force =    -0.00000000   -0.00000000   -0.00000000

     Total force =     0.000000     Total SCF correction =     0.000000


     Computing stress (Cartesian axis) and pressure

          total   stress  (Ry/bohr**3)                   (kbar)     P=       -0.04
   0.00000036   0.00000000   0.00000000            0.05        0.00        0.00
   0.00000000   0.00000036   0.00000000            0.00        0.05        0.00
   0.00000000   0.00000000  -0.00000145            0.00        0.00       -0.21


     init_run     :      1.32s CPU      1.30s WALL (       2 calls)
     electrons    :    256.53s CPU    234.46s WALL (      35 calls)
     update_pot   :      5.51s CPU      5.44s WALL (      32 calls)
     forces       :      6.27s CPU      5.65s WALL (      35 calls)
     stress       :     17.54s CPU     15.62s WALL (      35 calls)

     Called by init_run:
     wfcinit      :      0.46s CPU      0.36s WALL (       2 calls)
     potinit      :      0.28s CPU      0.29s WALL (       3 calls)
     hinit0       :      0.59s CPU      0.60s WALL (       2 calls)

     Called by electrons:
     c_bands      :    208.75s CPU    192.74s WALL (     346 calls)
     sum_band     :     41.16s CPU     35.40s WALL (     346 calls)
     v_of_rho     :      1.01s CPU      0.95s WALL (     378 calls)
     newd         :      3.92s CPU      3.38s WALL (     378 calls)
     mix_rho      :      0.71s CPU      0.65s WALL (     346 calls)

     Called by c_bands:
     init_us_2    :      3.95s CPU      3.41s WALL (   61120 calls)
     init_us_2:cp :      3.84s CPU      3.31s WALL (   61120 calls)
     cegterg      :    187.59s CPU    166.10s WALL (   27680 calls)

     Called by *egterg:
     cdiaghg      :     34.62s CPU     30.79s WALL (   79920 calls)
     h_psi        :    127.63s CPU    113.03s WALL (   82960 calls)
     s_psi        :      2.02s CPU      1.78s WALL (   82960 calls)
     g_psi        :      0.55s CPU      0.50s WALL (   55120 calls)

     Called by h_psi:
     h_psi:calbec :      8.15s CPU      7.27s WALL (   82960 calls)
     vloc_psi     :    116.37s CPU    102.92s WALL (   82960 calls)
     add_vuspsi   :      2.18s CPU      1.96s WALL (   82960 calls)

     General routines
     calbec       :     12.67s CPU     10.98s WALL (  124640 calls)
     fft          :      1.50s CPU      1.41s WALL (    4230 calls)
     ffts         :      0.36s CPU      0.33s WALL (    1448 calls)
     fftw         :    127.86s CPU    112.17s WALL ( 2423938 calls)
     interpolate  :      0.40s CPU      0.38s WALL (     756 calls)

     Parallel routines

     PWSCF        :   4m48.84s CPU   4m25.40s WALL


   This run was terminated on:  14: 9: 7   3Nov2023            

=------------------------------------------------------------------------------=
   JOB DONE.
=------------------------------------------------------------------------------=
