
     Program PWSCF v.7.2 starts on 14Oct2023 at 15:40:53 

     This program is part of the open-source Quantum ESPRESSO suite
     for quantum simulation of materials; please cite
         "P. Giannozzi et al., J. Phys.:Condens. Matter 21 395502 (2009);
         "P. Giannozzi et al., J. Phys.:Condens. Matter 29 465901 (2017);
         "P. Giannozzi et al., J. Chem. Phys. 152 154105 (2020);
          URL http://www.quantum-espresso.org", 
     in publications or presentations arising from this work. More details at
     http://www.quantum-espresso.org/quote

     Parallel version (MPI), running on     1 processors

     MPI processes distributed on     1 nodes
     43036 MiB available memory on the printing compute node when the environment starts

     Waiting for input...
     Reading input from standard input
Warning: card &CELL ignored
Warning: card / ignored

     Current dimensions of program PWSCF are:
     Max number of different atomic species (ntypx) = 10
     Max number of k-points (npk) =  40000
     Max angular momentum in pseudopotentials (lmaxx) =  4
     file Ge.pz-dn-rrkjus_psl.0.2.2.UPF: wavefunction(s)  3D renormalized
     Message from routine find_sym:
     Not a group! Trying with lower acceptance parameter...
     Message from routine find_sym:
     Still not a group! symmetry disabled

     Subspace diagonalization in iterative solution of the eigenvalue problem:
     a serial algorithm will be used


     G-vector sticks info
     --------------------
     sticks:   dense  smooth     PW     G-vecs:    dense   smooth      PW
     Sum         421     421    127                 5577     5577     965

     Using Slab Decomposition



     bravais-lattice index     =            0
     lattice parameter (alat)  =       7.0711  a.u.
     unit-cell volume          =     249.9997 (a.u.)^3
     number of atoms/cell      =            2
     number of atomic types    =            1
     number of electrons       =        28.00
     number of Kohn-Sham states=           14
     kinetic-energy cutoff     =      30.0000  Ry
     charge density cutoff     =     120.0000  Ry
     scf convergence threshold =      1.0E-07
     mixing beta               =       0.5000
     number of iterations used =            8  plain     mixing
     Exchange-correlation= LDA
                           (   1   1   0   0   0   0   0)

     celldm(1)=   7.071065  celldm(2)=   0.000000  celldm(3)=   0.000000
     celldm(4)=   0.000000  celldm(5)=   0.000000  celldm(6)=   0.000000

     crystal axes: (cart. coord. in units of alat)
               a(1) = (   0.000000   0.707107   0.707107 )  
               a(2) = (   0.707107   0.000000   0.707107 )  
               a(3) = (   0.707107   0.707107   0.000000 )  

     reciprocal axes: (cart. coord. in units 2 pi/alat)
               b(1) = ( -0.707107  0.707107  0.707107 )  
               b(2) = (  0.707107 -0.707107  0.707107 )  
               b(3) = (  0.707107  0.707107 -0.707107 )  


     PseudoPot. # 1 for Ge read from file:
     ../Ge.pz-dn-rrkjus_psl.0.2.2.UPF
     MD5 check sum: 9948ad5293734715c8cf6021b6c26e6d
     Pseudo is Ultrasoft + core correction, Zval = 14.0
     Generated using "atomic" code by A. Dal Corso  v.5.0.2 svn rev. 9415
     Using radial grid of 1207 points,  6 beta functions with: 
                l(1) =   0
                l(2) =   0
                l(3) =   1
                l(4) =   1
                l(5) =   2
                l(6) =   2
     Q(r) pseudized with 0 coefficients 


     atomic species   valence    mass     pseudopotential
        Ge            14.00    72.63000     Ge( 1.00)

     No symmetry found



   Cartesian axes

     site n.     atom                  positions (alat units)
         1           Ge  tau(   1) = (   0.0000000   0.0000000   0.0000000  )
         2           Ge  tau(   2) = (   0.3535527   0.3535527   0.3535527  )

     number of k points=    36
                       cart. coord. in units 2pi/alat
        k(    1) = (   0.0000000   0.0000000   0.0000000), wk =   0.0312500
        k(    2) = (   0.1767767   0.1767767  -0.1767767), wk =   0.0625000
        k(    3) = (  -0.3535534  -0.3535534   0.3535534), wk =   0.0312500
        k(    4) = (   0.3535534   0.0000000   0.0000000), wk =   0.0625000
        k(    5) = (  -0.1767767  -0.5303301   0.5303301), wk =   0.0625000
        k(    6) = (   0.0000000  -0.3535534   0.3535534), wk =   0.0625000
        k(    7) = (  -0.7071068   0.0000000   0.0000000), wk =   0.0312500
        k(    8) = (  -0.7071068   0.3535534   0.0000000), wk =   0.0625000
        k(    9) = (  -0.1767767  -0.1767767  -0.1767767), wk =   0.0625000
        k(   10) = (  -0.1767767   0.1767767   0.1767767), wk =   0.0625000
        k(   11) = (   0.1767767  -0.1767767   0.1767767), wk =   0.0625000
        k(   12) = (   0.3535534   0.3535534   0.3535534), wk =   0.0312500
        k(   13) = (   0.3535534  -0.3535534  -0.3535534), wk =   0.0312500
        k(   14) = (  -0.3535534   0.3535534  -0.3535534), wk =   0.0312500
        k(   15) = (   0.0000000  -0.3535534   0.0000000), wk =   0.0625000
        k(   16) = (   0.0000000   0.0000000  -0.3535534), wk =   0.0625000
        k(   17) = (   0.1767767   0.5303301   0.5303301), wk =   0.0625000
        k(   18) = (   0.1767767  -0.5303301  -0.5303301), wk =   0.0625000
        k(   19) = (  -0.1767767   0.5303301  -0.5303301), wk =   0.0625000
        k(   20) = (   0.5303301   0.1767767  -0.5303301), wk =   0.0625000
        k(   21) = (  -0.5303301   0.5303301   0.1767767), wk =   0.0625000
        k(   22) = (  -0.5303301   0.5303301  -0.1767767), wk =   0.0625000
        k(   23) = (   0.5303301   0.5303301   0.1767767), wk =   0.0625000
        k(   24) = (  -0.5303301  -0.5303301   0.1767767), wk =   0.0625000
        k(   25) = (   0.5303301  -0.1767767  -0.5303301), wk =   0.0625000
        k(   26) = (   0.5303301   0.1767767   0.5303301), wk =   0.0625000
        k(   27) = (  -0.5303301   0.1767767  -0.5303301), wk =   0.0625000
        k(   28) = (   0.0000000   0.3535534   0.3535534), wk =   0.0625000
        k(   29) = (   0.3535534   0.0000000  -0.3535534), wk =   0.0625000
        k(   30) = (  -0.3535534   0.3535534   0.0000000), wk =   0.0625000
        k(   31) = (   0.3535534   0.3535534   0.0000000), wk =   0.0625000
        k(   32) = (   0.3535534   0.0000000   0.3535534), wk =   0.0625000
        k(   33) = (   0.0000000   0.7071068   0.0000000), wk =   0.0312500
        k(   34) = (   0.0000000   0.0000000   0.7071068), wk =   0.0312500
        k(   35) = (  -0.3535534   0.7071068   0.0000000), wk =   0.0625000
        k(   36) = (   0.7071068   0.0000000  -0.3535534), wk =   0.0625000

     Dense  grid:     5577 G-vectors     FFT dimensions: (  32,  32,  32)

     Estimated max dynamical RAM per process >      28.42 MB

     Check: negative core charge=   -0.000257

     Initial potential from superposition of free atoms

     starting charge      27.9988, renormalised to      28.0000
     Starting wfcs are   18 randomized atomic wfcs

     total cpu time spent up to now is        1.2 secs

     Self-consistent Calculation

     iteration #  1     ecut=    30.00 Ry     beta= 0.50
     Davidson diagonalization with overlap
     ethr =  1.00E-02,  avg # of iterations =  2.0

     Threshold (ethr) on eigenvalues was too large:
     Diagonalizing with lowered threshold

     Davidson diagonalization with overlap
     ethr =  1.81E-04,  avg # of iterations =  2.0

     total cpu time spent up to now is        3.7 secs

     total energy              =    -421.71275616 Ry
     estimated scf accuracy    <       0.05390128 Ry

     iteration #  2     ecut=    30.00 Ry     beta= 0.50
     Davidson diagonalization with overlap
     ethr =  1.93E-04,  avg # of iterations =  1.1

     total cpu time spent up to now is        4.9 secs

     total energy              =    -421.71095729 Ry
     estimated scf accuracy    <       0.00899952 Ry

     iteration #  3     ecut=    30.00 Ry     beta= 0.50
     Davidson diagonalization with overlap
     ethr =  3.21E-05,  avg # of iterations =  2.0

     total cpu time spent up to now is        6.3 secs

     total energy              =    -421.71180883 Ry
     estimated scf accuracy    <       0.00009906 Ry

     iteration #  4     ecut=    30.00 Ry     beta= 0.50
     Davidson diagonalization with overlap
     ethr =  3.54E-07,  avg # of iterations =  3.2

     total cpu time spent up to now is        8.0 secs

     total energy              =    -421.71183745 Ry
     estimated scf accuracy    <       0.00001640 Ry

     iteration #  5     ecut=    30.00 Ry     beta= 0.50
     Davidson diagonalization with overlap
     ethr =  5.86E-08,  avg # of iterations =  2.2

     total cpu time spent up to now is        9.3 secs

     total energy              =    -421.71183943 Ry
     estimated scf accuracy    <       0.00000095 Ry

     iteration #  6     ecut=    30.00 Ry     beta= 0.50
     Davidson diagonalization with overlap
     ethr =  3.38E-09,  avg # of iterations =  2.5

     total cpu time spent up to now is       10.6 secs

     total energy              =    -421.71183982 Ry
     estimated scf accuracy    <       0.00000013 Ry

     iteration #  7     ecut=    30.00 Ry     beta= 0.50
     Davidson diagonalization with overlap
     ethr =  4.48E-10,  avg # of iterations =  2.2

     total cpu time spent up to now is       11.9 secs

     End of self-consistent calculation

          k = 0.0000 0.0000 0.0000 (   701 PWs)   bands (ev):

   -14.2351 -14.2351 -14.2351 -14.1726 -14.1726 -13.8157 -13.8157 -13.8157
   -13.7916 -13.7916  -3.3718  11.1624  11.1624  11.1624

          k = 0.1768 0.1768-0.1768 (   691 PWs)   bands (ev):

   -14.2569 -14.2569 -14.2133 -14.1214 -14.1214 -13.8540 -13.8540 -13.8465
   -13.7557 -13.7557  -2.4712   5.9732  10.0383  10.0383

          k =-0.3536-0.3536 0.3536 (   700 PWs)   bands (ev):

   -14.2695 -14.2695 -14.2021 -14.1023 -14.1023 -13.8642 -13.8642 -13.8634
   -13.7572 -13.7572  -0.7319   2.3801   9.4112   9.4112

          k = 0.3536 0.0000 0.0000 (   681 PWs)   bands (ev):

   -14.2546 -14.2546 -14.2306 -14.1136 -14.0474 -13.9610 -13.8387 -13.7729
   -13.7649 -13.7649  -2.1541   6.3777   8.5613   8.5613

          k =-0.1768-0.5303 0.5303 (   697 PWs)   bands (ev):

   -14.3067 -14.2785 -14.1641 -14.0580 -14.0252 -13.9933 -13.9059 -13.8607
   -13.7422 -13.7145  -0.2982   3.0159   6.5063   8.1289

          k = 0.0000-0.3536 0.3536 (   688 PWs)   bands (ev):

   -14.2940 -14.2845 -14.1515 -14.0954 -14.0440 -13.9315 -13.9024 -13.8652
   -13.7290 -13.7225  -1.0635   4.0722   6.2606   9.2652

          k =-0.7071 0.0000 0.0000 (   692 PWs)   bands (ev):

   -14.2820 -14.2820 -14.1434 -14.1434 -13.9732 -13.9731 -13.8848 -13.8848
   -13.7300 -13.7300   1.3364   1.3364   7.2947   7.2947

          k =-0.7071 0.3536 0.0000 (   700 PWs)   bands (ev):

   -14.3099 -14.3099 -14.0806 -14.0806 -13.9938 -13.9938 -13.9343 -13.9342
   -13.7113 -13.7113   1.5133   1.5133   6.1552   6.1553

          k =-0.1768-0.1768-0.1768 (   691 PWs)   bands (ev):

   -14.2569 -14.2569 -14.2133 -14.1214 -14.1214 -13.8540 -13.8540 -13.8465
   -13.7557 -13.7557  -2.4712   5.9732  10.0383  10.0383

          k =-0.1768 0.1768 0.1768 (   691 PWs)   bands (ev):

   -14.2569 -14.2569 -14.2133 -14.1214 -14.1214 -13.8540 -13.8540 -13.8465
   -13.7557 -13.7557  -2.4712   5.9732  10.0383  10.0383

          k = 0.1768-0.1768 0.1768 (   691 PWs)   bands (ev):

   -14.2569 -14.2569 -14.2133 -14.1214 -14.1214 -13.8540 -13.8540 -13.8465
   -13.7557 -13.7557  -2.4712   5.9732  10.0383  10.0383

          k = 0.3536 0.3536 0.3536 (   700 PWs)   bands (ev):

   -14.2695 -14.2695 -14.2021 -14.1023 -14.1023 -13.8642 -13.8642 -13.8634
   -13.7572 -13.7572  -0.7319   2.3801   9.4112   9.4112

          k = 0.3536-0.3536-0.3536 (   700 PWs)   bands (ev):

   -14.2695 -14.2695 -14.2021 -14.1023 -14.1023 -13.8642 -13.8642 -13.8634
   -13.7572 -13.7572  -0.7319   2.3801   9.4112   9.4112

          k =-0.3536 0.3536-0.3536 (   700 PWs)   bands (ev):

   -14.2695 -14.2695 -14.2021 -14.1023 -14.1023 -13.8642 -13.8642 -13.8634
   -13.7572 -13.7572  -0.7319   2.3801   9.4112   9.4112

          k = 0.0000-0.3536 0.0000 (   681 PWs)   bands (ev):

   -14.2546 -14.2546 -14.2306 -14.1136 -14.0474 -13.9610 -13.8387 -13.7729
   -13.7649 -13.7649  -2.1541   6.3777   8.5613   8.5613

          k = 0.0000 0.0000-0.3536 (   681 PWs)   bands (ev):

   -14.2546 -14.2546 -14.2306 -14.1136 -14.0474 -13.9610 -13.8387 -13.7729
   -13.7649 -13.7649  -2.1541   6.3777   8.5613   8.5613

          k = 0.1768 0.5303 0.5303 (   697 PWs)   bands (ev):

   -14.3067 -14.2785 -14.1641 -14.0580 -14.0252 -13.9933 -13.9059 -13.8607
   -13.7422 -13.7145  -0.2982   3.0159   6.5063   8.1289

          k = 0.1768-0.5303-0.5303 (   697 PWs)   bands (ev):

   -14.3067 -14.2785 -14.1641 -14.0580 -14.0252 -13.9933 -13.9059 -13.8607
   -13.7422 -13.7145  -0.2982   3.0159   6.5062   8.1289

          k =-0.1768 0.5303-0.5303 (   697 PWs)   bands (ev):

   -14.3067 -14.2785 -14.1641 -14.0580 -14.0252 -13.9933 -13.9059 -13.8607
   -13.7422 -13.7145  -0.2982   3.0159   6.5063   8.1289

          k = 0.5303 0.1768-0.5303 (   697 PWs)   bands (ev):

   -14.3067 -14.2785 -14.1641 -14.0580 -14.0252 -13.9933 -13.9059 -13.8607
   -13.7422 -13.7145  -0.2982   3.0159   6.5063   8.1289

          k =-0.5303 0.5303 0.1768 (   697 PWs)   bands (ev):

   -14.3067 -14.2785 -14.1641 -14.0580 -14.0252 -13.9933 -13.9059 -13.8607
   -13.7422 -13.7145  -0.2982   3.0159   6.5063   8.1289

          k =-0.5303 0.5303-0.1768 (   697 PWs)   bands (ev):

   -14.3067 -14.2785 -14.1641 -14.0580 -14.0252 -13.9933 -13.9059 -13.8607
   -13.7422 -13.7145  -0.2982   3.0159   6.5063   8.1289

          k = 0.5303 0.5303 0.1768 (   697 PWs)   bands (ev):

   -14.3067 -14.2785 -14.1641 -14.0580 -14.0252 -13.9933 -13.9059 -13.8607
   -13.7422 -13.7145  -0.2982   3.0159   6.5063   8.1289

          k =-0.5303-0.5303 0.1768 (   697 PWs)   bands (ev):

   -14.3067 -14.2785 -14.1641 -14.0580 -14.0252 -13.9933 -13.9059 -13.8607
   -13.7422 -13.7145  -0.2982   3.0159   6.5062   8.1289

          k = 0.5303-0.1768-0.5303 (   697 PWs)   bands (ev):

   -14.3067 -14.2785 -14.1641 -14.0580 -14.0252 -13.9933 -13.9059 -13.8607
   -13.7422 -13.7145  -0.2982   3.0159   6.5063   8.1289

          k = 0.5303 0.1768 0.5303 (   697 PWs)   bands (ev):

   -14.3067 -14.2785 -14.1641 -14.0580 -14.0252 -13.9933 -13.9059 -13.8607
   -13.7422 -13.7145  -0.2982   3.0159   6.5063   8.1289

          k =-0.5303 0.1768-0.5303 (   697 PWs)   bands (ev):

   -14.3067 -14.2785 -14.1641 -14.0580 -14.0252 -13.9933 -13.9059 -13.8607
   -13.7422 -13.7145  -0.2982   3.0159   6.5062   8.1289

          k = 0.0000 0.3536 0.3536 (   688 PWs)   bands (ev):

   -14.2940 -14.2845 -14.1515 -14.0954 -14.0440 -13.9315 -13.9024 -13.8652
   -13.7290 -13.7225  -1.0635   4.0722   6.2606   9.2652

          k = 0.3536 0.0000-0.3536 (   688 PWs)   bands (ev):

   -14.2940 -14.2845 -14.1515 -14.0954 -14.0440 -13.9315 -13.9024 -13.8652
   -13.7290 -13.7225  -1.0635   4.0722   6.2606   9.2652

          k =-0.3536 0.3536 0.0000 (   688 PWs)   bands (ev):

   -14.2940 -14.2845 -14.1515 -14.0954 -14.0440 -13.9315 -13.9024 -13.8652
   -13.7290 -13.7225  -1.0635   4.0722   6.2606   9.2652

          k = 0.3536 0.3536 0.0000 (   688 PWs)   bands (ev):

   -14.2940 -14.2845 -14.1515 -14.0954 -14.0440 -13.9315 -13.9024 -13.8652
   -13.7290 -13.7225  -1.0635   4.0722   6.2606   9.2652

          k = 0.3536 0.0000 0.3536 (   688 PWs)   bands (ev):

   -14.2940 -14.2845 -14.1515 -14.0954 -14.0440 -13.9315 -13.9024 -13.8652
   -13.7290 -13.7225  -1.0635   4.0722   6.2606   9.2652

          k = 0.0000 0.7071 0.0000 (   692 PWs)   bands (ev):

   -14.2820 -14.2820 -14.1434 -14.1434 -13.9732 -13.9731 -13.8848 -13.8848
   -13.7300 -13.7300   1.3364   1.3364   7.2947   7.2947

          k = 0.0000 0.0000 0.7071 (   692 PWs)   bands (ev):

   -14.2820 -14.2820 -14.1434 -14.1434 -13.9732 -13.9731 -13.8848 -13.8848
   -13.7300 -13.7300   1.3364   1.3364   7.2946   7.2947

          k =-0.3536 0.7071 0.0000 (   700 PWs)   bands (ev):

   -14.3099 -14.3099 -14.0806 -14.0806 -13.9938 -13.9938 -13.9343 -13.9342
   -13.7113 -13.7113   1.5133   1.5133   6.1552   6.1553

          k = 0.7071 0.0000-0.3536 (   700 PWs)   bands (ev):

   -14.3099 -14.3099 -14.0806 -14.0806 -13.9938 -13.9938 -13.9343 -13.9342
   -13.7113 -13.7113   1.5133   1.5133   6.1552   6.1553

     highest occupied level (ev):    11.1624

!    total energy              =    -421.71183980 Ry
     estimated scf accuracy    <       0.00000005 Ry

     The total energy is the sum of the following terms:
     one-electron contribution =    -252.69342657 Ry
     hartree contribution      =     154.07664320 Ry
     xc contribution           =    -111.93248892 Ry
     ewald contribution        =    -211.16256752 Ry

     convergence has been achieved in   7 iterations

     Forces acting on atoms (cartesian axes, Ry/au):

     atom    1 type  1   force =    -0.00000086    0.00000606    0.00000314
     atom    2 type  1   force =     0.00000086   -0.00000606   -0.00000314
     The non-local contrib.  to forces
     atom    1 type  1   force =    -0.00000132    0.00000361    0.00000138
     atom    2 type  1   force =    -0.00000215   -0.00000081   -0.00000102
     The ionic contribution  to forces
     atom    1 type  1   force =    -0.00003103   -0.00003103   -0.00003103
     atom    2 type  1   force =     0.00003103    0.00003103    0.00003103
     The local contribution  to forces
     atom    1 type  1   force =     0.00003125    0.00002250    0.00002649
     atom    2 type  1   force =    -0.00002491   -0.00002652   -0.00002838
     The core correction contribution to forces
     atom    1 type  1   force =     0.00000022   -0.00000002    0.00000013
     atom    2 type  1   force =    -0.00000008   -0.00000009   -0.00000015
     The Hubbard contrib.    to forces
     atom    1 type  1   force =     0.00000000    0.00000000    0.00000000
     atom    2 type  1   force =     0.00000000    0.00000000    0.00000000
     The SCF correction term to forces
     atom    1 type  1   force =    -0.00000452    0.00001094    0.00000754
     atom    2 type  1   force =    -0.00000757   -0.00000972   -0.00000324

     Total force =     0.000010     Total SCF correction =     0.000019
     SCF correction compared to forces is large: reduce conv_thr to get better values


     Computing stress (Cartesian axis) and pressure

          total   stress  (Ry/bohr**3)                   (kbar)     P=        4.44
   0.00003020   0.00000001   0.00000002            4.44        0.00        0.00
   0.00000001   0.00003019   0.00000002            0.00        4.44        0.00
   0.00000002   0.00000002   0.00003019            0.00        0.00        4.44


     init_run     :      1.28s CPU      1.08s WALL (       1 calls)
     electrons    :     15.74s CPU     10.64s WALL (       1 calls)
     forces       :      0.17s CPU      0.10s WALL (       1 calls)
     stress       :      2.04s CPU      1.39s WALL (       1 calls)

     Called by init_run:
     wfcinit      :      0.88s CPU      0.66s WALL (       1 calls)
     potinit      :      0.00s CPU      0.00s WALL (       1 calls)
     hinit0       :      0.39s CPU      0.39s WALL (       1 calls)

     Called by electrons:
     c_bands      :     13.02s CPU      8.80s WALL (       8 calls)
     sum_band     :      2.43s CPU      1.66s WALL (       8 calls)
     v_of_rho     :      0.05s CPU      0.03s WALL (       8 calls)
     newd         :      0.23s CPU      0.14s WALL (       8 calls)
     mix_rho      :      0.01s CPU      0.01s WALL (       8 calls)

     Called by c_bands:
     init_us_2    :      0.59s CPU      0.41s WALL (     684 calls)
     init_us_2:cp :      0.59s CPU      0.41s WALL (     684 calls)
     cegterg      :     11.75s CPU      7.95s WALL (     288 calls)

     Called by *egterg:
     cdiaghg      :      0.72s CPU      0.49s WALL (     871 calls)
     h_psi        :     10.69s CPU      7.31s WALL (     943 calls)
     s_psi        :      0.19s CPU      0.13s WALL (     943 calls)
     g_psi        :      0.08s CPU      0.05s WALL (     619 calls)

     Called by h_psi:
     h_psi:calbec :      0.22s CPU      0.15s WALL (     943 calls)
     vloc_psi     :     10.20s CPU      6.98s WALL (     943 calls)
     add_vuspsi   :      0.20s CPU      0.13s WALL (     943 calls)

     General routines
     calbec       :      0.32s CPU      0.22s WALL (    1411 calls)
     fft          :      0.17s CPU      0.17s WALL (      41 calls)
     ffts         :      0.01s CPU      0.00s WALL (       8 calls)
     fftw         :      9.30s CPU      6.39s WALL (   25426 calls)

     Parallel routines

     PWSCF        :     19.37s CPU     13.37s WALL


   This run was terminated on:  15:41: 6  14Oct2023            

=------------------------------------------------------------------------------=
   JOB DONE.
=------------------------------------------------------------------------------=
