
     Program PWSCF v.7.2 starts on  2Nov2023 at 18: 3:48 

     This program is part of the open-source Quantum ESPRESSO suite
     for quantum simulation of materials; please cite
         "P. Giannozzi et al., J. Phys.:Condens. Matter 21 395502 (2009);
         "P. Giannozzi et al., J. Phys.:Condens. Matter 29 465901 (2017);
         "P. Giannozzi et al., J. Chem. Phys. 152 154105 (2020);
          URL http://www.quantum-espresso.org", 
     in publications or presentations arising from this work. More details at
     http://www.quantum-espresso.org/quote

     Parallel version (MPI), running on     2 processors

     MPI processes distributed on     2 nodes
     187043 MiB available memory on the printing compute node when the environment starts

     Waiting for input...
     Reading input from standard input
Warning: card &CELL ignored
Warning: card / ignored

     Current dimensions of program PWSCF are:
     Max number of different atomic species (ntypx) = 10
     Max number of k-points (npk) =  40000
     Max angular momentum in pseudopotentials (lmaxx) =  4
     file O.pz-rrkjus.UPF: wavefunction(s)  2S renormalized
     Message from routine setup:
     using ibrav=0 with symmetry is DISCOURAGED, use correct ibrav instead

     R & G space division:  proc/nbgrp/npool/nimage =       2
     Subspace diagonalization in iterative solution of the eigenvalue problem:
     a serial algorithm will be used


     Parallelization info
     --------------------
     sticks:   dense  smooth     PW     G-vecs:    dense   smooth      PW
     Min         516     254     74                12418     4366     709
     Max         517     255     75                12419     4367     710
     Sum        1033     509    149                24837     8733    1419

     Using Slab Decomposition



     bravais-lattice index     =            0
     lattice parameter (alat)  =       7.3321  a.u.
     unit-cell volume          =     394.1775 (a.u.)^3
     number of atoms/cell      =            5
     number of atomic types    =            3
     number of electrons       =        44.00
     number of Kohn-Sham states=           22
     kinetic-energy cutoff     =      30.0000  Ry
     charge density cutoff     =     240.0000  Ry
     scf convergence threshold =      1.0E-07
     mixing beta               =       0.7000
     number of iterations used =            8  plain     mixing
     energy convergence thresh.=      1.0E-04
     force convergence thresh. =      1.0E-03
     Exchange-correlation= SLA  PZ   NOGX NOGC
                           (   1   1   0   0   0   0   0)
     nstep                     =           50


     celldm(1)=   7.332137  celldm(2)=   0.000000  celldm(3)=   0.000000
     celldm(4)=   0.000000  celldm(5)=   0.000000  celldm(6)=   0.000000

     crystal axes: (cart. coord. in units of alat)
               a(1) = (   1.000000   0.000000   0.000000 )  
               a(2) = (   0.000000   1.000000   0.000000 )  
               a(3) = (   0.000000   0.000000   1.000000 )  

     reciprocal axes: (cart. coord. in units 2 pi/alat)
               b(1) = (  1.000000  0.000000  0.000000 )  
               b(2) = (  0.000000  1.000000  0.000000 )  
               b(3) = (  0.000000  0.000000  1.000000 )  


     PseudoPot. # 1 for O  read from file:
     /home/gridsan/epan1/labutil/lab3_samples/pseudopotentials/O.pz-rrkjus.UPF
     MD5 check sum: 24fb942a68ef5d262e498166c462ef4a
     Pseudo is Ultrasoft, Zval =  6.0
     Generated by new atomic code, or converted to UPF format
     Using radial grid of 1269 points,  4 beta functions with: 
                l(1) =   0
                l(2) =   0
                l(3) =   1
                l(4) =   1
     Q(r) pseudized with 0 coefficients 


     PseudoPot. # 2 for Pb read from file:
     /home/gridsan/epan1/labutil/lab3_samples/pseudopotentials/Pb.pz-d-van.UPF
     MD5 check sum: 4e1e5920686a026ae26139ac417581ff
     Pseudo is Ultrasoft, Zval = 14.0
     Generated by new atomic code, or converted to UPF format
     Using radial grid of  899 points,  6 beta functions with: 
                l(1) =   0
                l(2) =   0
                l(3) =   1
                l(4) =   1
                l(5) =   2
                l(6) =   2
     Q(r) pseudized with  8 coefficients,  rinner =    1.000   1.000   1.000
                                                       1.000   1.000

     PseudoPot. # 3 for Ti read from file:
     /home/gridsan/epan1/labutil/lab3_samples/pseudopotentials/Ti.pz-sp-van_ak.UPF
     MD5 check sum: 545d0e6e05332b8871a8093f427cb0ca
     Pseudo is Ultrasoft, Zval = 12.0
     Generated by new atomic code, or converted to UPF format
     Using radial grid of  851 points,  6 beta functions with: 
                l(1) =   0
                l(2) =   0
                l(3) =   1
                l(4) =   1
                l(5) =   2
                l(6) =   2
     Q(r) pseudized with  8 coefficients,  rinner =    1.000   1.000   1.000
                                                       1.000   1.000

     atomic species   valence    mass     pseudopotential
        O              6.00    15.99900     O ( 1.00)
        Pb            14.00   207.20000     Pb( 1.00)
        Ti            12.00    47.86700     Ti( 1.00)

      8 Sym. Ops. (no inversion) found



   Cartesian axes

     site n.     atom                  positions (alat units)
         1           Pb  tau(   1) = (   0.0000000   0.0000000   0.0000000  )
         2           Ti  tau(   2) = (   0.5000000   0.5000000   0.4736830  )
         3           O   tau(   3) = (   0.0000000   0.5000000   0.5000000  )
         4           O   tau(   4) = (   0.5000000   0.0000000   0.5000000  )
         5           O   tau(   5) = (   0.5000000   0.5000000   0.0000000  )

     number of k points=     6
                       cart. coord. in units 2pi/alat
        k(    1) = (   0.1250000   0.1250000   0.1250000), wk =   0.2500000
        k(    2) = (   0.1250000   0.1250000   0.3750000), wk =   0.2500000
        k(    3) = (   0.1250000   0.3750000   0.3750000), wk =   0.5000000
        k(    4) = (   0.3750000   0.3750000   0.3750000), wk =   0.2500000
        k(    5) = (   0.3750000  -0.1250000   0.1250000), wk =   0.5000000
        k(    6) = (   0.3750000  -0.3750000   0.1250000), wk =   0.2500000

     Dense  grid:    24837 G-vectors     FFT dimensions: (  40,  40,  40)

     Smooth grid:     8733 G-vectors     FFT dimensions: (  25,  25,  25)

     Estimated max dynamical RAM per process >      51.66 MB

     Estimated total dynamical RAM >     103.32 MB

     Initial potential from superposition of free atoms

     starting charge      42.9982, renormalised to      44.0000
     Starting wfcs are   31 randomized atomic wfcs

     total cpu time spent up to now is        1.0 secs

     Self-consistent Calculation

     iteration #  1     ecut=    30.00 Ry     beta= 0.70
     Davidson diagonalization with overlap
     ethr =  1.00E-02,  avg # of iterations =  2.0

     total cpu time spent up to now is        1.3 secs

     total energy              =    -332.61889233 Ry
     estimated scf accuracy    <       1.09635401 Ry

     iteration #  2     ecut=    30.00 Ry     beta= 0.70
     Davidson diagonalization with overlap
     ethr =  2.49E-03,  avg # of iterations =  7.2

     total cpu time spent up to now is        1.7 secs

     total energy              =    -332.35989259 Ry
     estimated scf accuracy    <       4.25448169 Ry

     iteration #  3     ecut=    30.00 Ry     beta= 0.70
     Davidson diagonalization with overlap
     ethr =  2.49E-03,  avg # of iterations =  5.7

     total cpu time spent up to now is        2.0 secs

     total energy              =    -333.15711682 Ry
     estimated scf accuracy    <       0.23187413 Ry

     iteration #  4     ecut=    30.00 Ry     beta= 0.70
     Davidson diagonalization with overlap
     ethr =  5.27E-04,  avg # of iterations =  2.2

     total cpu time spent up to now is        2.3 secs

     total energy              =    -333.15328391 Ry
     estimated scf accuracy    <       0.06381193 Ry

     iteration #  5     ecut=    30.00 Ry     beta= 0.70
     Davidson diagonalization with overlap
     ethr =  1.45E-04,  avg # of iterations =  4.8

     total cpu time spent up to now is        2.7 secs

     total energy              =    -333.18149522 Ry
     estimated scf accuracy    <       0.02385180 Ry

     iteration #  6     ecut=    30.00 Ry     beta= 0.70
     Davidson diagonalization with overlap
     ethr =  5.42E-05,  avg # of iterations =  2.3

     total cpu time spent up to now is        2.9 secs

     total energy              =    -333.18069943 Ry
     estimated scf accuracy    <       0.00759469 Ry

     iteration #  7     ecut=    30.00 Ry     beta= 0.70
     Davidson diagonalization with overlap
     ethr =  1.73E-05,  avg # of iterations =  4.3

     total cpu time spent up to now is        3.3 secs

     total energy              =    -333.18299110 Ry
     estimated scf accuracy    <       0.00023017 Ry

     iteration #  8     ecut=    30.00 Ry     beta= 0.70
     Davidson diagonalization with overlap
     ethr =  5.23E-07,  avg # of iterations =  4.5

     total cpu time spent up to now is        3.6 secs

     total energy              =    -333.18297704 Ry
     estimated scf accuracy    <       0.00034042 Ry

     iteration #  9     ecut=    30.00 Ry     beta= 0.70
     Davidson diagonalization with overlap
     ethr =  5.23E-07,  avg # of iterations =  1.3

     total cpu time spent up to now is        3.8 secs

     total energy              =    -333.18292874 Ry
     estimated scf accuracy    <       0.00018343 Ry

     iteration # 10     ecut=    30.00 Ry     beta= 0.70
     Davidson diagonalization with overlap
     ethr =  4.17E-07,  avg # of iterations =  3.5

     total cpu time spent up to now is        4.1 secs

     total energy              =    -333.18296326 Ry
     estimated scf accuracy    <       0.00000250 Ry

     iteration # 11     ecut=    30.00 Ry     beta= 0.70
     Davidson diagonalization with overlap
     ethr =  5.69E-09,  avg # of iterations =  6.7

     total cpu time spent up to now is        4.5 secs

     total energy              =    -333.18296648 Ry
     estimated scf accuracy    <       0.00000743 Ry

     iteration # 12     ecut=    30.00 Ry     beta= 0.70
     Davidson diagonalization with overlap
     ethr =  5.69E-09,  avg # of iterations =  2.3

     total cpu time spent up to now is        4.8 secs

     total energy              =    -333.18296540 Ry
     estimated scf accuracy    <       0.00000357 Ry

     iteration # 13     ecut=    30.00 Ry     beta= 0.70
     Davidson diagonalization with overlap
     ethr =  5.69E-09,  avg # of iterations =  4.5

     total cpu time spent up to now is        5.1 secs

     total energy              =    -333.18296641 Ry
     estimated scf accuracy    <       0.00000020 Ry

     iteration # 14     ecut=    30.00 Ry     beta= 0.70
     Davidson diagonalization with overlap
     ethr =  4.59E-10,  avg # of iterations =  2.3

     total cpu time spent up to now is        5.4 secs

     End of self-consistent calculation

          k = 0.1250 0.1250 0.1250 (  1096 PWs)   bands (ev):

   -44.6767 -21.3213 -21.2796 -21.2788  -6.3693  -5.3212  -5.2759  -4.0365
    -4.0319  -4.0196  -3.8528  -3.8476   4.5930   7.2528   7.2755   8.0275
     9.0183   9.0753   9.7407   9.8159   9.9692  10.1073

          k = 0.1250 0.1250 0.3750 (  1095 PWs)   bands (ev):

   -44.6754 -21.3785 -21.2773 -21.2764  -5.9420  -5.1690  -5.1528  -4.0962
    -4.0317  -4.0152  -3.9454  -3.8237   3.8471   6.7830   7.2323   7.8094
     8.4294   8.6312   9.3608   9.8716  10.1038  10.8366

          k = 0.1250 0.3750 0.3750 (  1093 PWs)   bands (ev):

   -44.6742 -21.3752 -21.3324 -21.2749  -5.7295  -5.0764  -4.9859  -4.0699
    -4.0258  -3.9721  -3.8824  -3.7239   3.4959   6.6765   6.8836   7.1516
     7.4629   8.6522   9.3573   9.4575   9.9850  10.6475

          k = 0.3750 0.3750 0.3750 (  1082 PWs)   bands (ev):

   -44.6729 -21.3725 -21.3299 -21.3296  -5.3599  -5.1978  -5.1652  -3.9836
    -3.9778  -3.6933  -3.6295  -3.6146   4.1181   5.8877   5.9259   6.6572
     7.0308   7.0584   7.9315  10.5906  10.6328  10.7073

          k = 0.3750-0.1250 0.1250 (  1095 PWs)   bands (ev):

   -44.6754 -21.3358 -21.3189 -21.2769  -5.9729  -5.1909  -5.1138  -4.0938
    -4.0284  -4.0167  -3.9510  -3.8191   3.8656   6.8253   7.3154   7.8052
     8.3954   8.7315   9.2794   9.8781  10.0057  10.7900

          k = 0.3750-0.3750 0.1250 (  1093 PWs)   bands (ev):

   -44.6742 -21.3330 -21.3321 -21.3169  -5.7882  -5.0393  -4.9658  -4.0648
    -4.0242  -3.9666  -3.8801  -3.7443   3.5127   6.7836   6.8313   7.1296
     7.4327   8.6279   9.4244   9.4490   9.9688  10.7045

     highest occupied level (ev):    10.8366

!    total energy              =    -333.18296634 Ry
     estimated scf accuracy    <       0.00000009 Ry

     The total energy is the sum of the following terms:
     one-electron contribution =     -77.23608216 Ry
     hartree contribution      =      66.50994591 Ry
     xc contribution           =     -49.64454174 Ry
     ewald contribution        =    -272.81228835 Ry

     convergence has been achieved in  14 iterations

     Forces acting on atoms (cartesian axes, Ry/au):

     atom    1 type  2   force =     0.00000000    0.00000000   -0.01136393
     atom    2 type  3   force =     0.00000000    0.00000000    0.02012714
     atom    3 type  1   force =     0.00000000    0.00000000   -0.00014492
     atom    4 type  1   force =     0.00000000    0.00000000   -0.00014492
     atom    5 type  1   force =     0.00000000    0.00000000   -0.00847338
     The non-local contrib.  to forces
     atom    1 type  2   force =     0.00000000    0.00000000    0.00620034
     atom    2 type  3   force =     0.00000000    0.00000000   -0.01139988
     atom    3 type  1   force =     0.00000000    0.00000000   -0.05467518
     atom    4 type  1   force =     0.00000000    0.00000000   -0.05467518
     atom    5 type  1   force =     0.00000000    0.00000000    0.19437748
     The ionic contribution  to forces
     atom    1 type  2   force =     0.00000000    0.00000000   -0.68614514
     atom    2 type  3   force =    -0.00000000   -0.00000000    1.59409639
     atom    3 type  1   force =     0.00000000   -0.00000000    0.76013520
     atom    4 type  1   force =    -0.00000000    0.00000000    0.76013520
     atom    5 type  1   force =    -0.00000000   -0.00000000   -2.42822164
     The local contribution  to forces
     atom    1 type  2   force =     0.00000000   -0.00000000    0.66855784
     atom    2 type  3   force =    -0.00000000   -0.00000000   -1.56256340
     atom    3 type  1   force =     0.00000000   -0.00000000   -0.70556926
     atom    4 type  1   force =    -0.00000000    0.00000000   -0.70556926
     atom    5 type  1   force =    -0.00000000   -0.00000000    2.22527898
     The core correction contribution to forces
     atom    1 type  2   force =     0.00000000    0.00000000    0.00000000
     atom    2 type  3   force =     0.00000000    0.00000000    0.00000000
     atom    3 type  1   force =     0.00000000    0.00000000    0.00000000
     atom    4 type  1   force =     0.00000000    0.00000000    0.00000000
     atom    5 type  1   force =     0.00000000    0.00000000    0.00000000
     The Hubbard contrib.    to forces
     atom    1 type  2   force =     0.00000000    0.00000000    0.00000000
     atom    2 type  3   force =     0.00000000    0.00000000    0.00000000
     atom    3 type  1   force =     0.00000000    0.00000000    0.00000000
     atom    4 type  1   force =     0.00000000    0.00000000    0.00000000
     atom    5 type  1   force =     0.00000000    0.00000000    0.00000000
     The SCF correction term to forces
     atom    1 type  2   force =     0.00000000   -0.00000000    0.00000000
     atom    2 type  3   force =    -0.00000000   -0.00000000   -0.00000000
     atom    3 type  1   force =     0.00000000    0.00000000   -0.00003617
     atom    4 type  1   force =    -0.00000000    0.00000000   -0.00003617
     atom    5 type  1   force =     0.00000000   -0.00000000    0.00009131

     Total force =     0.008476     Total SCF correction =     0.000105


     Computing stress (Cartesian axis) and pressure

          total   stress  (Ry/bohr**3)                   (kbar)     P=      -16.43
  -0.00014724   0.00000000   0.00000000          -21.66        0.00        0.00
   0.00000000  -0.00014724   0.00000000            0.00      -21.66        0.00
   0.00000000   0.00000000  -0.00004064            0.00        0.00       -5.98


     BFGS Geometry Optimization
     Energy error            =      0.0E+00 Ry
     Gradient error          =      8.5E-03 Ry/Bohr

     number of scf cycles    =   1
     number of bfgs steps    =   0

     energy             new  =    -333.1829663407 Ry

     new trust radius        =       0.0084733752 bohr
     new conv_thr            =       0.0000001000 Ry


ATOMIC_POSITIONS (angstrom)
Pb            0.0000000000        0.0000000000        0.0000000000    0   0   0
Ti            1.9400000000        1.9400000000        1.8378900000    0   0   0
O             0.0000000000        1.9400000000        1.9399233122
O             1.9400000000        0.0000000000        1.9399233122
O             1.9400000000        1.9400000000       -0.0044839171



     Writing config-only to output data dir /home/gridsan/epan1/labutil/lab3_samples/problem2/Lab3/PbTiO3_a_3.88_ecut_30_nk_4_displ_-0.026315789473684223/pwscf.save/
     NEW-OLD atomic charge density approx. for the potential

     total cpu time spent up to now is        6.5 secs

     Self-consistent Calculation

     iteration #  1     ecut=    30.00 Ry     beta= 0.70
     Davidson diagonalization with overlap
     ethr =  1.00E-06,  avg # of iterations =  3.5

     Threshold (ethr) on eigenvalues was too large:
     Diagonalizing with lowered threshold

     Davidson diagonalization with overlap
     ethr =  2.19E-08,  avg # of iterations =  5.0

     total cpu time spent up to now is        7.1 secs

     total energy              =    -333.18302588 Ry
     estimated scf accuracy    <       0.00001193 Ry

     iteration #  2     ecut=    30.00 Ry     beta= 0.70
     Davidson diagonalization with overlap
     ethr =  2.71E-08,  avg # of iterations =  2.7

     total cpu time spent up to now is        7.4 secs

     total energy              =    -333.18302808 Ry
     estimated scf accuracy    <       0.00000200 Ry

     iteration #  3     ecut=    30.00 Ry     beta= 0.70
     Davidson diagonalization with overlap
     ethr =  4.55E-09,  avg # of iterations =  4.0

     total cpu time spent up to now is        7.7 secs

     total energy              =    -333.18302845 Ry
     estimated scf accuracy    <       0.00000073 Ry

     iteration #  4     ecut=    30.00 Ry     beta= 0.70
     Davidson diagonalization with overlap
     ethr =  1.66E-09,  avg # of iterations =  4.7

     total cpu time spent up to now is        8.0 secs

     total energy              =    -333.18302863 Ry
     estimated scf accuracy    <       0.00000016 Ry

     iteration #  5     ecut=    30.00 Ry     beta= 0.70
     Davidson diagonalization with overlap
     ethr =  3.73E-10,  avg # of iterations =  3.7

     total cpu time spent up to now is        8.3 secs

     End of self-consistent calculation

          k = 0.1250 0.1250 0.1250 (  1096 PWs)   bands (ev):

   -44.6826 -21.3235 -21.2856 -21.2848  -6.3697  -5.3196  -5.2772  -4.0353
    -4.0310  -4.0186  -3.8516  -3.8468   4.5940   7.2532   7.2743   8.0267
     9.0230   9.0780   9.7484   9.8168   9.9676  10.1078

          k = 0.1250 0.1250 0.3750 (  1095 PWs)   bands (ev):

   -44.6813 -21.3806 -21.2833 -21.2823  -5.9434  -5.1665  -5.1542  -4.0951
    -4.0305  -4.0143  -3.9446  -3.8225   3.8494   6.7831   7.2349   7.8072
     8.4297   8.6367   9.3605   9.8725  10.1021  10.8362

          k = 0.1250 0.3750 0.3750 (  1093 PWs)   bands (ev):

   -44.6801 -21.3773 -21.3383 -21.2809  -5.7307  -5.0744  -4.9865  -4.0687
    -4.0246  -3.9710  -3.8814  -3.7233   3.4973   6.6797   6.8812   7.1513
     7.4625   8.6509   9.3620   9.4566   9.9865  10.6494

          k = 0.3750 0.3750 0.3750 (  1082 PWs)   bands (ev):

   -44.6788 -21.3746 -21.3358 -21.3355  -5.3594  -5.1969  -5.1662  -3.9823
    -3.9769  -3.6922  -3.6284  -3.6143   4.1191   5.8901   5.9258   6.6564
     7.0304   7.0560   7.9329  10.5937  10.6344  10.7070

          k = 0.3750-0.1250 0.1250 (  1095 PWs)   bands (ev):

   -44.6814 -21.3417 -21.3211 -21.2828  -5.9726  -5.1900  -5.1151  -4.0928
    -4.0274  -4.0157  -3.9499  -3.8183   3.8665   6.8238   7.3158   7.8051
     8.3956   8.7315   9.2838   9.8794  10.0089  10.7919

          k = 0.3750-0.3750 0.1250 (  1093 PWs)   bands (ev):

   -44.6801 -21.3389 -21.3380 -21.3191  -5.7861  -5.0403  -4.9671  -4.0640
    -4.0232  -3.9658  -3.8793  -3.7426   3.5129   6.7824   6.8301   7.1327
     7.4361   8.6282   9.4251   9.4485   9.9695  10.7033

     highest occupied level (ev):    10.8362

!    total energy              =    -333.18302866 Ry
     estimated scf accuracy    <          1.9E-09 Ry

     The total energy is the sum of the following terms:
     one-electron contribution =     -77.19739090 Ry
     hartree contribution      =      66.48956802 Ry
     xc contribution           =     -49.64305816 Ry
     ewald contribution        =    -272.83214763 Ry

     convergence has been achieved in   5 iterations

     Forces acting on atoms (cartesian axes, Ry/au):

     atom    1 type  2   force =     0.00000000    0.00000000   -0.01146237
     atom    2 type  3   force =     0.00000000    0.00000000    0.01920304
     atom    3 type  1   force =     0.00000000    0.00000000   -0.00093360
     atom    4 type  1   force =     0.00000000    0.00000000   -0.00093360
     atom    5 type  1   force =     0.00000000    0.00000000   -0.00587348
     The non-local contrib.  to forces
     atom    1 type  2   force =     0.00000000    0.00000000    0.00625779
     atom    2 type  3   force =     0.00000000    0.00000000   -0.01123985
     atom    3 type  1   force =     0.00000000    0.00000000   -0.05731326
     atom    4 type  1   force =     0.00000000    0.00000000   -0.05731326
     atom    5 type  1   force =     0.00000000    0.00000000    0.18993482
     The ionic contribution  to forces
     atom    1 type  2   force =     0.00000000    0.00000000   -0.67102292
     atom    2 type  3   force =    -0.00000000   -0.00000000    1.48757069
     atom    3 type  1   force =     0.00000000   -0.00000000    0.74713282
     atom    4 type  1   force =    -0.00000000    0.00000000    0.74713282
     atom    5 type  1   force =    -0.00000000   -0.00000000   -2.31081342
     The local contribution  to forces
     atom    1 type  2   force =    -0.00000000   -0.00000000    0.65325656
     atom    2 type  3   force =    -0.00000000   -0.00000000   -1.45702372
     atom    3 type  1   force =    -0.00000000   -0.00000000   -0.69072799
     atom    4 type  1   force =    -0.00000000    0.00000000   -0.69072799
     atom    5 type  1   force =    -0.00000000   -0.00000000    2.11499786
     The core correction contribution to forces
     atom    1 type  2   force =     0.00000000    0.00000000    0.00000000
     atom    2 type  3   force =     0.00000000    0.00000000    0.00000000
     atom    3 type  1   force =     0.00000000    0.00000000    0.00000000
     atom    4 type  1   force =     0.00000000    0.00000000    0.00000000
     atom    5 type  1   force =     0.00000000    0.00000000    0.00000000
     The Hubbard contrib.    to forces
     atom    1 type  2   force =     0.00000000    0.00000000    0.00000000
     atom    2 type  3   force =     0.00000000    0.00000000    0.00000000
     atom    3 type  1   force =     0.00000000    0.00000000    0.00000000
     atom    4 type  1   force =     0.00000000    0.00000000    0.00000000
     atom    5 type  1   force =     0.00000000    0.00000000    0.00000000
     The SCF correction term to forces
     atom    1 type  2   force =    -0.00000000   -0.00000000    0.00000000
     atom    2 type  3   force =    -0.00000000   -0.00000000   -0.00000000
     atom    3 type  1   force =    -0.00000000    0.00000000   -0.00001920
     atom    4 type  1   force =    -0.00000000   -0.00000000   -0.00001920
     atom    5 type  1   force =    -0.00000000    0.00000000    0.00001323

     Total force =     0.006020     Total SCF correction =     0.000030


     Computing stress (Cartesian axis) and pressure

          total   stress  (Ry/bohr**3)                   (kbar)     P=      -16.89
  -0.00014687   0.00000000   0.00000000          -21.61        0.00        0.00
   0.00000000  -0.00014687   0.00000000            0.00      -21.61        0.00
   0.00000000   0.00000000  -0.00005066            0.00        0.00       -7.45

     Energy error            =      6.2E-05 Ry
     Gradient error          =      5.9E-03 Ry/Bohr

     number of scf cycles    =   2
     number of bfgs steps    =   1

     energy             old  =    -333.1829663407 Ry
     energy             new  =    -333.1830286635 Ry

     CASE: energy            _new < energy            _old

     new trust radius        =       0.0093207128 bohr
     new conv_thr            =       0.0000000010 Ry


ATOMIC_POSITIONS (angstrom)
Pb            0.0000000000        0.0000000000        0.0000000000    0   0   0
Ti            1.9400000000        1.9400000000        1.8378900000    0   0   0
O             0.0000000000        1.9400000000        1.9391981486
O             1.9400000000        0.0000000000        1.9391981486
O             1.9400000000        1.9400000000       -0.0094162259



     Writing config-only to output data dir /home/gridsan/epan1/labutil/lab3_samples/problem2/Lab3/PbTiO3_a_3.88_ecut_30_nk_4_displ_-0.026315789473684223/pwscf.save/
     NEW-OLD atomic charge density approx. for the potential

     total cpu time spent up to now is        9.7 secs

     Self-consistent Calculation

     iteration #  1     ecut=    30.00 Ry     beta= 0.70
     Davidson diagonalization with overlap
     ethr =  1.00E-06,  avg # of iterations =  3.7

     Threshold (ethr) on eigenvalues was too large:
     Diagonalizing with lowered threshold

     Davidson diagonalization with overlap
     ethr =  2.82E-08,  avg # of iterations =  4.8

     total cpu time spent up to now is       10.2 secs

     total energy              =    -333.18307004 Ry
     estimated scf accuracy    <       0.00001618 Ry

     iteration #  2     ecut=    30.00 Ry     beta= 0.70
     Davidson diagonalization with overlap
     ethr =  3.68E-08,  avg # of iterations =  4.7

     total cpu time spent up to now is       10.6 secs

     total energy              =    -333.18307125 Ry
     estimated scf accuracy    <       0.00001118 Ry

     iteration #  3     ecut=    30.00 Ry     beta= 0.70
     Davidson diagonalization with overlap
     ethr =  2.54E-08,  avg # of iterations =  4.7

     total cpu time spent up to now is       10.9 secs

     total energy              =    -333.18307387 Ry
     estimated scf accuracy    <       0.00000295 Ry

     iteration #  4     ecut=    30.00 Ry     beta= 0.70
     Davidson diagonalization with overlap
     ethr =  6.71E-09,  avg # of iterations =  3.8

     total cpu time spent up to now is       11.2 secs

     total energy              =    -333.18307436 Ry
     estimated scf accuracy    <       0.00000010 Ry

     iteration #  5     ecut=    30.00 Ry     beta= 0.70
     Davidson diagonalization with overlap
     ethr =  2.23E-10,  avg # of iterations =  6.2

     total cpu time spent up to now is       11.6 secs

     total energy              =    -333.18307445 Ry
     estimated scf accuracy    <       0.00000022 Ry

     iteration #  6     ecut=    30.00 Ry     beta= 0.70
     Davidson diagonalization with overlap
     ethr =  2.23E-10,  avg # of iterations =  4.2

     total cpu time spent up to now is       12.0 secs

     total energy              =    -333.18307445 Ry
     estimated scf accuracy    <       0.00000005 Ry

     iteration #  7     ecut=    30.00 Ry     beta= 0.70
     Davidson diagonalization with overlap
     ethr =  1.08E-10,  avg # of iterations =  4.3

     total cpu time spent up to now is       12.3 secs

     total energy              =    -333.18307446 Ry
     estimated scf accuracy    <          1.0E-09 Ry

     iteration #  8     ecut=    30.00 Ry     beta= 0.70
     Davidson diagonalization with overlap
     ethr =  2.34E-12,  avg # of iterations =  6.3

     total cpu time spent up to now is       12.7 secs

     total energy              =    -333.18307446 Ry
     estimated scf accuracy    <          3.5E-09 Ry

     iteration #  9     ecut=    30.00 Ry     beta= 0.70
     Davidson diagonalization with overlap
     ethr =  2.34E-12,  avg # of iterations =  5.0

     total cpu time spent up to now is       13.0 secs

     End of self-consistent calculation

          k = 0.1250 0.1250 0.1250 (  1096 PWs)   bands (ev):

   -44.6883 -21.3254 -21.2914 -21.2905  -6.3701  -5.3179  -5.2787  -4.0342
    -4.0302  -4.0177  -3.8506  -3.8461   4.5949   7.2536   7.2730   8.0260
     9.0282   9.0808   9.7575   9.8181   9.9656  10.1077

          k = 0.1250 0.1250 0.3750 (  1095 PWs)   bands (ev):

   -44.6871 -21.3825 -21.2891 -21.2881  -5.9450  -5.1638  -5.1560  -4.0940
    -4.0293  -4.0135  -3.9440  -3.8214   3.8519   6.7833   7.2382   7.8050
     8.4297   8.6426   9.3600   9.8738  10.1001  10.8355

          k = 0.1250 0.3750 0.3750 (  1093 PWs)   bands (ev):

   -44.6859 -21.3792 -21.3441 -21.2867  -5.7321  -5.0723  -4.9871  -4.0677
    -4.0236  -3.9701  -3.8805  -3.7230   3.4988   6.6837   6.8781   7.1508
     7.4620   8.6494   9.3667   9.4556   9.9878  10.6516

          k = 0.3750 0.3750 0.3750 (  1082 PWs)   bands (ev):

   -44.6846 -21.3765 -21.3415 -21.3413  -5.3589  -5.1959  -5.1675  -3.9812
    -3.9762  -3.6911  -3.6273  -3.6142   4.1201   5.8926   5.9255   6.6558
     7.0296   7.0530   7.9342  10.5971  10.6358  10.7066

          k = 0.3750-0.1250 0.1250 (  1095 PWs)   bands (ev):

   -44.6871 -21.3475 -21.3230 -21.2886  -5.9722  -5.1891  -5.1165  -4.0919
    -4.0265  -4.0147  -3.9489  -3.8176   3.8675   6.8222   7.3160   7.8048
     8.3960   8.7310   9.2887   9.8809  10.0127  10.7937

          k = 0.3750-0.3750 0.1250 (  1093 PWs)   bands (ev):

   -44.6859 -21.3446 -21.3437 -21.3211  -5.7837  -5.0415  -4.9687  -4.0632
    -4.0223  -3.9652  -3.8785  -3.7410   3.5130   6.7811   6.8287   7.1357
     7.4395   8.6284   9.4255   9.4481   9.9704  10.7019

     highest occupied level (ev):    10.8355

!    total energy              =    -333.18307446 Ry
     estimated scf accuracy    <          2.3E-11 Ry

     The total energy is the sum of the following terms:
     one-electron contribution =     -77.15965500 Ry
     hartree contribution      =      66.46926974 Ry
     xc contribution           =     -49.64161708 Ry
     ewald contribution        =    -272.85107212 Ry

     convergence has been achieved in   9 iterations

     Forces acting on atoms (cartesian axes, Ry/au):

     atom    1 type  2   force =     0.00000000    0.00000000   -0.01155383
     atom    2 type  3   force =     0.00000000    0.00000000    0.01826979
     atom    3 type  1   force =     0.00000000    0.00000000   -0.00171276
     atom    4 type  1   force =     0.00000000    0.00000000   -0.00171276
     atom    5 type  1   force =     0.00000000    0.00000000   -0.00329043
     The non-local contrib.  to forces
     atom    1 type  2   force =     0.00000000    0.00000000    0.00672044
     atom    2 type  3   force =     0.00000000    0.00000000   -0.01103087
     atom    3 type  1   force =     0.00000000    0.00000000   -0.05990140
     atom    4 type  1   force =     0.00000000    0.00000000   -0.05990140
     atom    5 type  1   force =     0.00000000    0.00000000    0.18461897
     The ionic contribution  to forces
     atom    1 type  2   force =     0.00000000    0.00000000   -0.66318688
     atom    2 type  3   force =    -0.00000000   -0.00000000    1.37997308
     atom    3 type  1   force =     0.00000000   -0.00000000    0.73440391
     atom    4 type  1   force =    -0.00000000    0.00000000    0.73440391
     atom    5 type  1   force =    -0.00000000   -0.00000000   -2.18559403
     The local contribution  to forces
     atom    1 type  2   force =    -0.00000000   -0.00000000    0.64491891
     atom    2 type  3   force =    -0.00000000   -0.00000000   -1.35067285
     atom    3 type  1   force =     0.00000000   -0.00000000   -0.67621257
     atom    4 type  1   force =    -0.00000000    0.00000000   -0.67621257
     atom    5 type  1   force =    -0.00000000   -0.00000000    1.99768750
     The core correction contribution to forces
     atom    1 type  2   force =     0.00000000    0.00000000    0.00000000
     atom    2 type  3   force =     0.00000000    0.00000000    0.00000000
     atom    3 type  1   force =     0.00000000    0.00000000    0.00000000
     atom    4 type  1   force =     0.00000000    0.00000000    0.00000000
     atom    5 type  1   force =     0.00000000    0.00000000    0.00000000
     The Hubbard contrib.    to forces
     atom    1 type  2   force =     0.00000000    0.00000000    0.00000000
     atom    2 type  3   force =     0.00000000    0.00000000    0.00000000
     atom    3 type  1   force =     0.00000000    0.00000000    0.00000000
     atom    4 type  1   force =     0.00000000    0.00000000    0.00000000
     atom    5 type  1   force =     0.00000000    0.00000000    0.00000000
     The SCF correction term to forces
     atom    1 type  2   force =    -0.00000000   -0.00000000   -0.00000000
     atom    2 type  3   force =    -0.00000000    0.00000000    0.00000000
     atom    3 type  1   force =     0.00000000   -0.00000000    0.00000027
     atom    4 type  1   force =    -0.00000000    0.00000000    0.00000027
     atom    5 type  1   force =    -0.00000000   -0.00000000    0.00000011

     Total force =     0.004086     Total SCF correction =     0.000000


     Computing stress (Cartesian axis) and pressure

          total   stress  (Ry/bohr**3)                   (kbar)     P=      -17.67
  -0.00014850   0.00000000   0.00000000          -21.85        0.00        0.00
   0.00000000  -0.00014850   0.00000000            0.00      -21.85        0.00
   0.00000000   0.00000000  -0.00006341            0.00        0.00       -9.33

     Energy error            =      4.6E-05 Ry
     Gradient error          =      3.3E-03 Ry/Bohr

     number of scf cycles    =   3
     number of bfgs steps    =   2

     energy             old  =    -333.1830286635 Ry
     energy             new  =    -333.1830744609 Ry

     CASE: energy            _new < energy            _old

     new trust radius        =       0.0139810691 bohr
     new conv_thr            =       0.0000000010 Ry


ATOMIC_POSITIONS (angstrom)
Pb            0.0000000000        0.0000000000        0.0000000000    0   0   0
Ti            1.9400000000        1.9400000000        1.8378900000    0   0   0
O             0.0000000000        1.9400000000        1.9368649845
O             1.9400000000        0.0000000000        1.9368649845
O             1.9400000000        1.9400000000       -0.0168146890



     Writing config-only to output data dir /home/gridsan/epan1/labutil/lab3_samples/problem2/Lab3/PbTiO3_a_3.88_ecut_30_nk_4_displ_-0.026315789473684223/pwscf.save/
     NEW-OLD atomic charge density approx. for the potential

     total cpu time spent up to now is       15.0 secs

     Self-consistent Calculation

     iteration #  1     ecut=    30.00 Ry     beta= 0.70
     Davidson diagonalization with overlap
     ethr =  1.00E-06,  avg # of iterations =  4.5

     Threshold (ethr) on eigenvalues was too large:
     Diagonalizing with lowered threshold

     Davidson diagonalization with overlap
     ethr =  7.42E-08,  avg # of iterations =  3.0

     total cpu time spent up to now is       15.7 secs

     total energy              =    -333.18310706 Ry
     estimated scf accuracy    <       0.00003585 Ry

     iteration #  2     ecut=    30.00 Ry     beta= 0.70
     Davidson diagonalization with overlap
     ethr =  8.15E-08,  avg # of iterations =  4.5

     total cpu time spent up to now is       16.1 secs

     total energy              =    -333.18310945 Ry
     estimated scf accuracy    <       0.00002397 Ry

     iteration #  3     ecut=    30.00 Ry     beta= 0.70
     Davidson diagonalization with overlap
     ethr =  5.45E-08,  avg # of iterations =  4.5

     total cpu time spent up to now is       16.4 secs

     total energy              =    -333.18311534 Ry
     estimated scf accuracy    <       0.00000767 Ry

     iteration #  4     ecut=    30.00 Ry     beta= 0.70
     Davidson diagonalization with overlap
     ethr =  1.74E-08,  avg # of iterations =  3.5

     total cpu time spent up to now is       16.7 secs

     total energy              =    -333.18311635 Ry
     estimated scf accuracy    <       0.00000037 Ry

     iteration #  5     ecut=    30.00 Ry     beta= 0.70
     Davidson diagonalization with overlap
     ethr =  8.48E-10,  avg # of iterations =  5.7

     total cpu time spent up to now is       17.1 secs

     total energy              =    -333.18311671 Ry
     estimated scf accuracy    <       0.00000062 Ry

     iteration #  6     ecut=    30.00 Ry     beta= 0.70
     Davidson diagonalization with overlap
     ethr =  8.48E-10,  avg # of iterations =  2.3

     total cpu time spent up to now is       17.4 secs

     total energy              =    -333.18311663 Ry
     estimated scf accuracy    <       0.00000032 Ry

     iteration #  7     ecut=    30.00 Ry     beta= 0.70
     Davidson diagonalization with overlap
     ethr =  7.20E-10,  avg # of iterations =  4.3

     total cpu time spent up to now is       17.7 secs

     total energy              =    -333.18311671 Ry
     estimated scf accuracy    <       0.00000002 Ry

     iteration #  8     ecut=    30.00 Ry     beta= 0.70
     Davidson diagonalization with overlap
     ethr =  3.44E-11,  avg # of iterations =  4.0

     total cpu time spent up to now is       18.0 secs

     total energy              =    -333.18311671 Ry
     estimated scf accuracy    <          5.0E-09 Ry

     iteration #  9     ecut=    30.00 Ry     beta= 0.70
     Davidson diagonalization with overlap
     ethr =  1.13E-11,  avg # of iterations =  4.8

     total cpu time spent up to now is       18.4 secs

     End of self-consistent calculation

          k = 0.1250 0.1250 0.1250 (  1096 PWs)   bands (ev):

   -44.6963 -21.3281 -21.2995 -21.2987  -6.3707  -5.3157  -5.2812  -4.0325
    -4.0290  -4.0165  -3.8492  -3.8452   4.5962   7.2543   7.2711   8.0255
     9.0362   9.0843   9.7722   9.8205   9.9620  10.1064

          k = 0.1250 0.1250 0.3750 (  1095 PWs)   bands (ev):

   -44.6951 -21.3850 -21.2972 -21.2963  -5.9475  -5.1598  -5.1589  -4.0924
    -4.0277  -4.0123  -3.9431  -3.8199   3.8555   6.7839   7.2438   7.8025
     8.4286   8.6509   9.3590   9.8761  10.0968  10.8339

          k = 0.1250 0.3750 0.3750 (  1093 PWs)   bands (ev):

   -44.6939 -21.3818 -21.3522 -21.2948  -5.7344  -5.0694  -4.9880  -4.0661
    -4.0222  -3.9686  -3.8792  -3.7225   3.5009   6.6903   6.8724   7.1501
     7.4610   8.6470   9.3732   9.4539   9.9894  10.6550

          k = 0.3750 0.3750 0.3750 (  1082 PWs)   bands (ev):

   -44.6926 -21.3791 -21.3496 -21.3494  -5.3581  -5.1944  -5.1693  -3.9795
    -3.9751  -3.6895  -3.6258  -3.6140   4.1212   5.8961   5.9248   6.6556
     7.0272   7.0475   7.9358  10.6022  10.6376  10.7063

          k = 0.3750-0.1250 0.1250 (  1095 PWs)   bands (ev):

   -44.6951 -21.3555 -21.3257 -21.2968  -5.9717  -5.1880  -5.1186  -4.0906
    -4.0251  -4.0134  -3.9474  -3.8166   3.8688   6.8194   7.3159   7.8044
     8.3966   8.7296   9.2957   9.8832  10.0186  10.7961

          k = 0.3750-0.3750 0.1250 (  1093 PWs)   bands (ev):

   -44.6939 -21.3527 -21.3518 -21.3237  -5.7800  -5.0433  -4.9711  -4.0622
    -4.0210  -3.9642  -3.8775  -3.7386   3.5129   6.7791   6.8261   7.1394
     7.4435   8.6284   9.4255   9.4475   9.9720  10.6997

     highest occupied level (ev):    10.8339

!    total energy              =    -333.18311671 Ry
     estimated scf accuracy    <          7.9E-10 Ry

     The total energy is the sum of the following terms:
     one-electron contribution =     -77.11384084 Ry
     hartree contribution      =      66.44443047 Ry
     xc contribution           =     -49.63974273 Ry
     ewald contribution        =    -272.87396361 Ry

     convergence has been achieved in   9 iterations

     Forces acting on atoms (cartesian axes, Ry/au):

     atom    1 type  2   force =     0.00000000    0.00000000   -0.01154188
     atom    2 type  3   force =     0.00000000    0.00000000    0.01697173
     atom    3 type  1   force =     0.00000000    0.00000000   -0.00271103
     atom    4 type  1   force =     0.00000000    0.00000000   -0.00271103
     atom    5 type  1   force =     0.00000000    0.00000000   -0.00000779
     The non-local contrib.  to forces
     atom    1 type  2   force =     0.00000000    0.00000000    0.00838536
     atom    2 type  3   force =     0.00000000    0.00000000   -0.01070552
     atom    3 type  1   force =     0.00000000    0.00000000   -0.06324762
     atom    4 type  1   force =     0.00000000    0.00000000   -0.06324762
     atom    5 type  1   force =     0.00000000    0.00000000    0.17576016
     The ionic contribution  to forces
     atom    1 type  2   force =     0.00000000    0.00000000   -0.66853522
     atom    2 type  3   force =    -0.00000000   -0.00000000    1.23720084
     atom    3 type  1   force =     0.00000000   -0.00000000    0.71835959
     atom    4 type  1   force =    -0.00000000    0.00000000    0.71835959
     atom    5 type  1   force =    -0.00000000   -0.00000000   -2.00538481
     The local contribution  to forces
     atom    1 type  2   force =     0.00000000   -0.00000000    0.64861756
     atom    2 type  3   force =    -0.00000000   -0.00000000   -1.20952107
     atom    3 type  1   force =     0.00000000   -0.00000000   -0.65781724
     atom    4 type  1   force =    -0.00000000    0.00000000   -0.65781724
     atom    5 type  1   force =    -0.00000000   -0.00000000    1.82962783
     The core correction contribution to forces
     atom    1 type  2   force =     0.00000000    0.00000000    0.00000000
     atom    2 type  3   force =     0.00000000    0.00000000    0.00000000
     atom    3 type  1   force =     0.00000000    0.00000000    0.00000000
     atom    4 type  1   force =     0.00000000    0.00000000    0.00000000
     atom    5 type  1   force =     0.00000000    0.00000000    0.00000000
     The Hubbard contrib.    to forces
     atom    1 type  2   force =     0.00000000    0.00000000    0.00000000
     atom    2 type  3   force =     0.00000000    0.00000000    0.00000000
     atom    3 type  1   force =     0.00000000    0.00000000    0.00000000
     atom    4 type  1   force =     0.00000000    0.00000000    0.00000000
     atom    5 type  1   force =     0.00000000    0.00000000    0.00000000
     The SCF correction term to forces
     atom    1 type  2   force =     0.00000000   -0.00000000   -0.00000000
     atom    2 type  3   force =    -0.00000000   -0.00000000    0.00000000
     atom    3 type  1   force =     0.00000000   -0.00000000    0.00000177
     atom    4 type  1   force =    -0.00000000    0.00000000    0.00000177
     atom    5 type  1   force =    -0.00000000   -0.00000000   -0.00000343

     Total force =     0.003834     Total SCF correction =     0.000004


     Computing stress (Cartesian axis) and pressure

          total   stress  (Ry/bohr**3)                   (kbar)     P=      -18.73
  -0.00015051   0.00000000   0.00000000          -22.14        0.00        0.00
   0.00000000  -0.00015051   0.00000000            0.00      -22.14        0.00
   0.00000000   0.00000000  -0.00008098            0.00        0.00      -11.91

     Energy error            =      4.2E-05 Ry
     Gradient error          =      2.7E-03 Ry/Bohr

     number of scf cycles    =   4
     number of bfgs steps    =   3

     energy             old  =    -333.1830744609 Ry
     energy             new  =    -333.1831167134 Ry

     CASE: energy            _new < energy            _old

     new trust radius        =       0.0115314216 bohr
     new conv_thr            =       0.0000000010 Ry


ATOMIC_POSITIONS (angstrom)
Pb            0.0000000000        0.0000000000        0.0000000000    0   0   0
Ti            1.9400000000        1.9400000000        1.8378900000    0   0   0
O             0.0000000000        1.9400000000        1.9331971197
O             1.9400000000        0.0000000000        1.9331971197
O             1.9400000000        1.9400000000       -0.0229168546



     Writing config-only to output data dir /home/gridsan/epan1/labutil/lab3_samples/problem2/Lab3/PbTiO3_a_3.88_ecut_30_nk_4_displ_-0.026315789473684223/pwscf.save/
     NEW-OLD atomic charge density approx. for the potential

     total cpu time spent up to now is       19.6 secs

     Self-consistent Calculation

     iteration #  1     ecut=    30.00 Ry     beta= 0.70
     Davidson diagonalization with overlap
     ethr =  1.00E-06,  avg # of iterations =  4.5

     Threshold (ethr) on eigenvalues was too large:
     Diagonalizing with lowered threshold

     Davidson diagonalization with overlap
     ethr =  5.55E-08,  avg # of iterations =  3.8

     total cpu time spent up to now is       20.2 secs

     total energy              =    -333.18314176 Ry
     estimated scf accuracy    <       0.00002690 Ry

     iteration #  2     ecut=    30.00 Ry     beta= 0.70
     Davidson diagonalization with overlap
     ethr =  6.11E-08,  avg # of iterations =  4.5

     total cpu time spent up to now is       20.5 secs

     total energy              =    -333.18314170 Ry
     estimated scf accuracy    <       0.00001650 Ry

     iteration #  3     ecut=    30.00 Ry     beta= 0.70
     Davidson diagonalization with overlap
     ethr =  3.75E-08,  avg # of iterations =  4.5

     total cpu time spent up to now is       20.9 secs

     total energy              =    -333.18314613 Ry
     estimated scf accuracy    <       0.00000804 Ry

     iteration #  4     ecut=    30.00 Ry     beta= 0.70
     Davidson diagonalization with overlap
     ethr =  1.83E-08,  avg # of iterations =  3.0

     total cpu time spent up to now is       21.2 secs

     total energy              =    -333.18314682 Ry
     estimated scf accuracy    <       0.00000070 Ry

     iteration #  5     ecut=    30.00 Ry     beta= 0.70
     Davidson diagonalization with overlap
     ethr =  1.58E-09,  avg # of iterations =  5.2

     total cpu time spent up to now is       21.5 secs

     total energy              =    -333.18314739 Ry
     estimated scf accuracy    <       0.00000077 Ry

     iteration #  6     ecut=    30.00 Ry     beta= 0.70
     Davidson diagonalization with overlap
     ethr =  1.58E-09,  avg # of iterations =  1.2

     total cpu time spent up to now is       21.8 secs

     total energy              =    -333.18314727 Ry
     estimated scf accuracy    <       0.00000047 Ry

     iteration #  7     ecut=    30.00 Ry     beta= 0.70
     Davidson diagonalization with overlap
     ethr =  1.06E-09,  avg # of iterations =  3.5

     total cpu time spent up to now is       22.1 secs

     total energy              =    -333.18314735 Ry
     estimated scf accuracy    <       0.00000002 Ry

     iteration #  8     ecut=    30.00 Ry     beta= 0.70
     Davidson diagonalization with overlap
     ethr =  3.64E-11,  avg # of iterations =  5.2

     total cpu time spent up to now is       22.4 secs

     total energy              =    -333.18314736 Ry
     estimated scf accuracy    <          2.3E-09 Ry

     iteration #  9     ecut=    30.00 Ry     beta= 0.70
     Davidson diagonalization with overlap
     ethr =  5.14E-12,  avg # of iterations =  3.0

     total cpu time spent up to now is       22.7 secs

     End of self-consistent calculation

          k = 0.1250 0.1250 0.1250 (  1096 PWs)   bands (ev):

   -44.7021 -21.3298 -21.3054 -21.3046  -6.3711  -5.3141  -5.2839  -4.0314
    -4.0282  -4.0156  -3.8482  -3.8446   4.5972   7.2552   7.2697   8.0256
     9.0428   9.0868   9.7861   9.8233   9.9581  10.1036

          k = 0.1250 0.1250 0.3750 (  1095 PWs)   bands (ev):

   -44.7008 -21.3867 -21.3032 -21.3022  -5.9498  -5.1619  -5.1565  -4.0913
    -4.0265  -4.0115  -3.9425  -3.8188   3.8585   6.7847   7.2496   7.8012
     8.4263   8.6574   9.3575   9.8786  10.0935  10.8318

          k = 0.1250 0.3750 0.3750 (  1093 PWs)   bands (ev):

   -44.6996 -21.3835 -21.3581 -21.3008  -5.7366  -5.0672  -4.9887  -4.0650
    -4.0212  -3.9676  -3.8782  -3.7223   3.5024   6.6967   6.8664   7.1495
     7.4601   8.6446   9.3778   9.4522   9.9903  10.6578

          k = 0.3750 0.3750 0.3750 (  1082 PWs)   bands (ev):

   -44.6983 -21.3808 -21.3556 -21.3553  -5.3575  -5.1931  -5.1710  -3.9783
    -3.9743  -3.6883  -3.6246  -3.6140   4.1218   5.8987   5.9236   6.6562
     7.0241   7.0416   7.9369  10.6064  10.6385  10.7061

          k = 0.3750-0.1250 0.1250 (  1095 PWs)   bands (ev):

   -44.7009 -21.3615 -21.3275 -21.3027  -5.9711  -5.1875  -5.1206  -4.0897
    -4.0242  -4.0125  -3.9462  -3.8159   3.8697   6.8166   7.3152   7.8042
     8.3973   8.7274   9.3012   9.8853  10.0239  10.7978

          k = 0.3750-0.3750 0.1250 (  1093 PWs)   bands (ev):

   -44.6997 -21.3587 -21.3578 -21.3255  -5.7768  -5.0450  -4.9732  -4.0615
    -4.0200  -3.9636  -3.8767  -3.7368   3.5126   6.7774   6.8234   7.1414
     7.4456   8.6283   9.4245   9.4470   9.9736  10.6975

     highest occupied level (ev):    10.8318

!    total energy              =    -333.18314736 Ry
     estimated scf accuracy    <          8.9E-10 Ry

     The total energy is the sum of the following terms:
     one-electron contribution =     -77.08836430 Ry
     hartree contribution      =      66.43012277 Ry
     xc contribution           =     -49.63850994 Ry
     ewald contribution        =    -272.88639589 Ry

     convergence has been achieved in   9 iterations

     Forces acting on atoms (cartesian axes, Ry/au):

     atom    1 type  2   force =     0.00000000    0.00000000   -0.01136789
     atom    2 type  3   force =     0.00000000    0.00000000    0.01599300
     atom    3 type  1   force =     0.00000000    0.00000000   -0.00329328
     atom    4 type  1   force =     0.00000000    0.00000000   -0.00329328
     atom    5 type  1   force =     0.00000000    0.00000000    0.00196145
     The non-local contrib.  to forces
     atom    1 type  2   force =     0.00000000    0.00000000    0.01103111
     atom    2 type  3   force =     0.00000000    0.00000000   -0.01038333
     atom    3 type  1   force =     0.00000000    0.00000000   -0.06522461
     atom    4 type  1   force =     0.00000000    0.00000000   -0.06522461
     atom    5 type  1   force =     0.00000000    0.00000000    0.16727031
     The ionic contribution  to forces
     atom    1 type  2   force =     0.00000000    0.00000000   -0.69688800
     atom    2 type  3   force =    -0.00000000   -0.00000000    1.14539778
     atom    3 type  1   force =     0.00000000   -0.00000000    0.70937007
     atom    4 type  1   force =    -0.00000000    0.00000000    0.70937007
     atom    5 type  1   force =     0.00000000    0.00000000   -1.86724992
     The local contribution  to forces
     atom    1 type  2   force =     0.00000000   -0.00000000    0.67449256
     atom    2 type  3   force =    -0.00000000   -0.00000000   -1.11900943
     atom    3 type  1   force =     0.00000000   -0.00000000   -0.64742168
     atom    4 type  1   force =    -0.00000000   -0.00000000   -0.64742168
     atom    5 type  1   force =    -0.00000000   -0.00000000    1.70194244
     The core correction contribution to forces
     atom    1 type  2   force =     0.00000000    0.00000000    0.00000000
     atom    2 type  3   force =     0.00000000    0.00000000    0.00000000
     atom    3 type  1   force =     0.00000000    0.00000000    0.00000000
     atom    4 type  1   force =     0.00000000    0.00000000    0.00000000
     atom    5 type  1   force =     0.00000000    0.00000000    0.00000000
     The Hubbard contrib.    to forces
     atom    1 type  2   force =     0.00000000    0.00000000    0.00000000
     atom    2 type  3   force =     0.00000000    0.00000000    0.00000000
     atom    3 type  1   force =     0.00000000    0.00000000    0.00000000
     atom    4 type  1   force =     0.00000000    0.00000000    0.00000000
     atom    5 type  1   force =     0.00000000    0.00000000    0.00000000
     The SCF correction term to forces
     atom    1 type  2   force =     0.00000000    0.00000000    0.00000000
     atom    2 type  3   force =    -0.00000000   -0.00000000   -0.00000000
     atom    3 type  1   force =     0.00000000   -0.00000000   -0.00000565
     atom    4 type  1   force =    -0.00000000    0.00000000   -0.00000565
     atom    5 type  1   force =    -0.00000000    0.00000000    0.00001002

     Total force =     0.005054     Total SCF correction =     0.000013


     Computing stress (Cartesian axis) and pressure

          total   stress  (Ry/bohr**3)                   (kbar)     P=      -19.55
  -0.00015213   0.00000000   0.00000000          -22.38        0.00        0.00
   0.00000000  -0.00015213   0.00000000            0.00      -22.38        0.00
   0.00000000   0.00000000  -0.00009438            0.00        0.00      -13.88

     Energy error            =      3.1E-05 Ry
     Gradient error          =      3.3E-03 Ry/Bohr

     number of scf cycles    =   5
     number of bfgs steps    =   4

     energy             old  =    -333.1831167134 Ry
     energy             new  =    -333.1831473581 Ry

     CASE: energy            _new < energy            _old

     new trust radius        =       0.0126845638 bohr
     new conv_thr            =       0.0000000010 Ry


ATOMIC_POSITIONS (angstrom)
Pb            0.0000000000        0.0000000000        0.0000000000    0   0   0
Ti            1.9400000000        1.9400000000        1.8378900000    0   0   0
O             0.0000000000        1.9400000000        1.9274234605
O             1.9400000000        0.0000000000        1.9274234605
O             1.9400000000        1.9400000000       -0.0296292366



     Writing config-only to output data dir /home/gridsan/epan1/labutil/lab3_samples/problem2/Lab3/PbTiO3_a_3.88_ecut_30_nk_4_displ_-0.026315789473684223/pwscf.save/
     NEW-OLD atomic charge density approx. for the potential

     total cpu time spent up to now is       23.8 secs

     Self-consistent Calculation

     iteration #  1     ecut=    30.00 Ry     beta= 0.70
     Davidson diagonalization with overlap
     ethr =  1.00E-06,  avg # of iterations =  5.2

     Threshold (ethr) on eigenvalues was too large:
     Diagonalizing with lowered threshold

     Davidson diagonalization with overlap
     ethr =  8.19E-08,  avg # of iterations =  2.3

     total cpu time spent up to now is       24.4 secs

     total energy              =    -333.18318460 Ry
     estimated scf accuracy    <       0.00003685 Ry

     iteration #  2     ecut=    30.00 Ry     beta= 0.70
     Davidson diagonalization with overlap
     ethr =  8.37E-08,  avg # of iterations =  3.7

     total cpu time spent up to now is       24.7 secs

     total energy              =    -333.18318714 Ry
     estimated scf accuracy    <       0.00000912 Ry

     iteration #  3     ecut=    30.00 Ry     beta= 0.70
     Davidson diagonalization with overlap
     ethr =  2.07E-08,  avg # of iterations =  5.2

     total cpu time spent up to now is       25.0 secs

     total energy              =    -333.18318916 Ry
     estimated scf accuracy    <       0.00000931 Ry

     iteration #  4     ecut=    30.00 Ry     beta= 0.70
     Davidson diagonalization with overlap
     ethr =  2.07E-08,  avg # of iterations =  3.7

     total cpu time spent up to now is       25.3 secs

     total energy              =    -333.18319065 Ry
     estimated scf accuracy    <       0.00000016 Ry

     iteration #  5     ecut=    30.00 Ry     beta= 0.70
     Davidson diagonalization with overlap
     ethr =  3.71E-10,  avg # of iterations =  6.8

     total cpu time spent up to now is       25.8 secs

     total energy              =    -333.18319087 Ry
     estimated scf accuracy    <       0.00000070 Ry

     iteration #  6     ecut=    30.00 Ry     beta= 0.70
     Davidson diagonalization with overlap
     ethr =  3.71E-10,  avg # of iterations =  4.7

     total cpu time spent up to now is       26.1 secs

     total energy              =    -333.18319088 Ry
     estimated scf accuracy    <       0.00000015 Ry

     iteration #  7     ecut=    30.00 Ry     beta= 0.70
     Davidson diagonalization with overlap
     ethr =  3.39E-10,  avg # of iterations =  3.0

     total cpu time spent up to now is       26.4 secs

     total energy              =    -333.18319088 Ry
     estimated scf accuracy    <       0.00000004 Ry

     iteration #  8     ecut=    30.00 Ry     beta= 0.70
     Davidson diagonalization with overlap
     ethr =  8.29E-11,  avg # of iterations =  5.3

     total cpu time spent up to now is       26.7 secs

     total energy              =    -333.18319090 Ry
     estimated scf accuracy    <       0.00000002 Ry

     iteration #  9     ecut=    30.00 Ry     beta= 0.70
     Davidson diagonalization with overlap
     ethr =  4.17E-11,  avg # of iterations =  1.5

     total cpu time spent up to now is       27.0 secs

     total energy              =    -333.18319090 Ry
     estimated scf accuracy    <          7.5E-09 Ry

     iteration # 10     ecut=    30.00 Ry     beta= 0.70
     Davidson diagonalization with overlap
     ethr =  1.70E-11,  avg # of iterations =  4.2

     total cpu time spent up to now is       27.3 secs

     End of self-consistent calculation

          k = 0.1250 0.1250 0.1250 (  1096 PWs)   bands (ev):

   -44.7083 -21.3320 -21.3119 -21.3111  -6.3716  -5.3125  -5.2871  -4.0302
    -4.0273  -4.0147  -3.8472  -3.8440   4.5983   7.2563   7.2684   8.0264
     9.0502   9.0891   9.8028   9.8270   9.9532  10.0988

          k = 0.1250 0.1250 0.3750 (  1095 PWs)   bands (ev):

   -44.7070 -21.3888 -21.3096 -21.3087  -5.9524  -5.1656  -5.1530  -4.0901
    -4.0253  -4.0106  -3.9418  -3.8176   3.8619   6.7858   7.2572   7.8006
     8.4225   8.6641   9.3553   9.8819  10.0894  10.8291

          k = 0.1250 0.3750 0.3750 (  1093 PWs)   bands (ev):

   -44.7058 -21.3855 -21.3646 -21.3072  -5.7392  -5.0649  -4.9894  -4.0639
    -4.0201  -3.9665  -3.8772  -3.7220   3.5040   6.7046   6.8585   7.1489
     7.4590   8.6418   9.3820   9.4502   9.9911  10.6610

          k = 0.3750 0.3750 0.3750 (  1082 PWs)   bands (ev):

   -44.7045 -21.3828 -21.3620 -21.3618  -5.3568  -5.1917  -5.1729  -3.9771
    -3.9735  -3.6870  -3.6233  -3.6138   4.1221   5.9015   5.9220   6.6574
     7.0195   7.0338   7.9380  10.6110  10.6391  10.7060

          k = 0.3750-0.1250 0.1250 (  1095 PWs)   bands (ev):

   -44.7070 -21.3679 -21.3296 -21.3091  -5.9704  -5.1873  -5.1229  -4.0888
    -4.0232  -4.0115  -3.9449  -3.8151   3.8707   6.8131   7.3139   7.8041
     8.3982   8.7241   9.3069   9.8876  10.0300  10.7994

          k = 0.3750-0.3750 0.1250 (  1093 PWs)   bands (ev):

   -44.7058 -21.3651 -21.3642 -21.3276  -5.7731  -5.0471  -4.9758  -4.0607
    -4.0190  -3.9627  -3.8758  -3.7348   3.5119   6.7754   6.8200   7.1428
     7.4469   8.6280   9.4227   9.4464   9.9758  10.6948

     highest occupied level (ev):    10.8291

!    total energy              =    -333.18319090 Ry
     estimated scf accuracy    <          2.2E-10 Ry

     The total energy is the sum of the following terms:
     one-electron contribution =     -77.07284387 Ry
     hartree contribution      =      66.42086125 Ry
     xc contribution           =     -49.63744193 Ry
     ewald contribution        =    -272.89376635 Ry

     convergence has been achieved in  10 iterations

     Forces acting on atoms (cartesian axes, Ry/au):

     atom    1 type  2   force =     0.00000000    0.00000000   -0.01103755
     atom    2 type  3   force =     0.00000000    0.00000000    0.01502781
     atom    3 type  1   force =     0.00000000    0.00000000   -0.00368512
     atom    4 type  1   force =     0.00000000    0.00000000   -0.00368512
     atom    5 type  1   force =     0.00000000    0.00000000    0.00337997
     The non-local contrib.  to forces
     atom    1 type  2   force =     0.00000000    0.00000000    0.01519149
     atom    2 type  3   force =     0.00000000    0.00000000   -0.00998462
     atom    3 type  1   force =     0.00000000    0.00000000   -0.06664230
     atom    4 type  1   force =     0.00000000    0.00000000   -0.06664230
     atom    5 type  1   force =     0.00000000    0.00000000    0.15676493
     The ionic contribution  to forces
     atom    1 type  2   force =     0.00000000    0.00000000   -0.75195483
     atom    2 type  3   force =    -0.00000000   -0.00000000    1.07040166
     atom    3 type  1   force =     0.00000000   -0.00000000    0.70365646
     atom    4 type  1   force =    -0.00000000    0.00000000    0.70365646
     atom    5 type  1   force =    -0.00000000   -0.00000000   -1.72575975
     The local contribution  to forces
     atom    1 type  2   force =     0.00000000   -0.00000000    0.72574243
     atom    2 type  3   force =    -0.00000000   -0.00000000   -1.04537392
     atom    3 type  1   force =     0.00000000   -0.00000000   -0.64068539
     atom    4 type  1   force =    -0.00000000    0.00000000   -0.64068539
     atom    5 type  1   force =    -0.00000000   -0.00000000    1.57239266
     The core correction contribution to forces
     atom    1 type  2   force =     0.00000000    0.00000000    0.00000000
     atom    2 type  3   force =     0.00000000    0.00000000    0.00000000
     atom    3 type  1   force =     0.00000000    0.00000000    0.00000000
     atom    4 type  1   force =     0.00000000    0.00000000    0.00000000
     atom    5 type  1   force =     0.00000000    0.00000000    0.00000000
     The Hubbard contrib.    to forces
     atom    1 type  2   force =     0.00000000    0.00000000    0.00000000
     atom    2 type  3   force =     0.00000000    0.00000000    0.00000000
     atom    3 type  1   force =     0.00000000    0.00000000    0.00000000
     atom    4 type  1   force =     0.00000000    0.00000000    0.00000000
     atom    5 type  1   force =     0.00000000    0.00000000    0.00000000
     The SCF correction term to forces
     atom    1 type  2   force =     0.00000000   -0.00000000   -0.00000000
     atom    2 type  3   force =    -0.00000000   -0.00000000   -0.00000000
     atom    3 type  1   force =     0.00000000    0.00000000    0.00000104
     atom    4 type  1   force =    -0.00000000    0.00000000    0.00000104
     atom    5 type  1   force =    -0.00000000    0.00000000   -0.00000293

     Total force =     0.006212     Total SCF correction =     0.000003


     Computing stress (Cartesian axis) and pressure

          total   stress  (Ry/bohr**3)                   (kbar)     P=      -20.09
  -0.00015183   0.00000000   0.00000000          -22.33        0.00        0.00
   0.00000000  -0.00015183   0.00000000            0.00      -22.33        0.00
   0.00000000   0.00000000  -0.00010599            0.00        0.00      -15.59

     Energy error            =      4.4E-05 Ry
     Gradient error          =      3.7E-03 Ry/Bohr

     number of scf cycles    =   6
     number of bfgs steps    =   5

     energy             old  =    -333.1831473581 Ry
     energy             new  =    -333.1831908974 Ry

     CASE: energy            _new < energy            _old

     new trust radius        =       0.0190268456 bohr
     new conv_thr            =       0.0000000010 Ry


ATOMIC_POSITIONS (angstrom)
Pb            0.0000000000        0.0000000000        0.0000000000    0   0   0
Ti            1.9400000000        1.9400000000        1.8378900000    0   0   0
O             0.0000000000        1.9400000000        1.9173548874
O             1.9400000000        0.0000000000        1.9173548874
O             1.9400000000        1.9400000000       -0.0393509454



     Writing config-only to output data dir /home/gridsan/epan1/labutil/lab3_samples/problem2/Lab3/PbTiO3_a_3.88_ecut_30_nk_4_displ_-0.026315789473684223/pwscf.save/
     NEW-OLD atomic charge density approx. for the potential

     total cpu time spent up to now is       28.5 secs

     Self-consistent Calculation

     iteration #  1     ecut=    30.00 Ry     beta= 0.70
     Davidson diagonalization with overlap
     ethr =  1.00E-06,  avg # of iterations =  5.7

     total cpu time spent up to now is       28.9 secs

     total energy              =    -333.18324773 Ry
     estimated scf accuracy    <       0.00008974 Ry

     iteration #  2     ecut=    30.00 Ry     beta= 0.70
     Davidson diagonalization with overlap
     ethr =  2.04E-07,  avg # of iterations =  3.7

     total cpu time spent up to now is       29.2 secs

     total energy              =    -333.18325783 Ry
     estimated scf accuracy    <       0.00001490 Ry

     iteration #  3     ecut=    30.00 Ry     beta= 0.70
     Davidson diagonalization with overlap
     ethr =  3.39E-08,  avg # of iterations =  5.7

     total cpu time spent up to now is       29.6 secs

     total energy              =    -333.18326036 Ry
     estimated scf accuracy    <       0.00001652 Ry

     iteration #  4     ecut=    30.00 Ry     beta= 0.70
     Davidson diagonalization with overlap
     ethr =  3.39E-08,  avg # of iterations =  4.5

     total cpu time spent up to now is       29.9 secs

     total energy              =    -333.18326385 Ry
     estimated scf accuracy    <       0.00000035 Ry

     iteration #  5     ecut=    30.00 Ry     beta= 0.70
     Davidson diagonalization with overlap
     ethr =  8.04E-10,  avg # of iterations =  6.0

     total cpu time spent up to now is       30.3 secs

     total energy              =    -333.18326395 Ry
     estimated scf accuracy    <       0.00000058 Ry

     iteration #  6     ecut=    30.00 Ry     beta= 0.70
     Davidson diagonalization with overlap
     ethr =  8.04E-10,  avg # of iterations =  4.3

     total cpu time spent up to now is       30.6 secs

     total energy              =    -333.18326401 Ry
     estimated scf accuracy    <       0.00000005 Ry

     iteration #  7     ecut=    30.00 Ry     beta= 0.70
     Davidson diagonalization with overlap
     ethr =  1.11E-10,  avg # of iterations =  4.8

     total cpu time spent up to now is       31.0 secs

     total energy              =    -333.18326403 Ry
     estimated scf accuracy    <       0.00000001 Ry

     iteration #  8     ecut=    30.00 Ry     beta= 0.70
     Davidson diagonalization with overlap
     ethr =  2.48E-11,  avg # of iterations =  2.0

     total cpu time spent up to now is       31.2 secs

     total energy              =    -333.18326403 Ry
     estimated scf accuracy    <          6.1E-09 Ry

     iteration #  9     ecut=    30.00 Ry     beta= 0.70
     Davidson diagonalization with overlap
     ethr =  1.39E-11,  avg # of iterations =  4.5

     total cpu time spent up to now is       31.6 secs

     End of self-consistent calculation

          k = 0.1250 0.1250 0.1250 (  1096 PWs)   bands (ev):

   -44.7162 -21.3346 -21.3201 -21.3194  -6.3724  -5.3105  -5.2924  -4.0285
    -4.0261  -4.0133  -3.8459  -3.8428   4.5998   7.2578   7.2666   8.0278
     9.0603   9.0916   9.8278   9.8325   9.9454  10.0898

          k = 0.1250 0.1250 0.3750 (  1095 PWs)   bands (ev):

   -44.7149 -21.3914 -21.3179 -21.3170  -5.9566  -5.1716  -5.1481  -4.0883
    -4.0235  -4.0094  -3.9406  -3.8161   3.8667   6.7876   7.2684   7.8001
     8.4159   8.6731   9.3513   9.8868  10.0829  10.8247

          k = 0.1250 0.3750 0.3750 (  1093 PWs)   bands (ev):

   -44.7137 -21.3881 -21.3729 -21.3155  -5.7434  -5.0623  -4.9903  -4.0622
    -4.0186  -3.9648  -3.8757  -3.7215   3.5061   6.7165   6.8459   7.1477
     7.4572   8.6374   9.3865   9.4475   9.9919  10.6654

          k = 0.3750 0.3750 0.3750 (  1082 PWs)   bands (ev):

   -44.7124 -21.3854 -21.3704 -21.3701  -5.3562  -5.1898  -5.1761  -3.9753
    -3.9724  -3.6853  -3.6214  -3.6135   4.1219   5.9050   5.9192   6.6594
     7.0121   7.0220   7.9398  10.6170  10.6388  10.7062

          k = 0.3750-0.1250 0.1250 (  1095 PWs)   bands (ev):

   -44.7149 -21.3763 -21.3323 -21.3174  -5.9697  -5.1875  -5.1264  -4.0875
    -4.0218  -4.0101  -3.9427  -3.8139   3.8718   6.8078   7.3113   7.8040
     8.3995   8.7187   9.3142   9.8905  10.0385  10.8015

          k = 0.3750-0.3750 0.1250 (  1093 PWs)   bands (ev):

   -44.7137 -21.3734 -21.3725 -21.3303  -5.7678  -5.0505  -4.9800  -4.0597
    -4.0174  -3.9613  -3.8742  -3.7321   3.5105   6.7723   6.8147   7.1439
     7.4477   8.6275   9.4194   9.4455   9.9791  10.6906

     highest occupied level (ev):    10.8247

!    total energy              =    -333.18326403 Ry
     estimated scf accuracy    <          3.7E-10 Ry

     The total energy is the sum of the following terms:
     one-electron contribution =     -77.06475623 Ry
     hartree contribution      =      66.41479054 Ry
     xc contribution           =     -49.63630985 Ry
     ewald contribution        =    -272.89698850 Ry

     convergence has been achieved in   9 iterations

     Forces acting on atoms (cartesian axes, Ry/au):

     atom    1 type  2   force =     0.00000000    0.00000000   -0.01040081
     atom    2 type  3   force =     0.00000000    0.00000000    0.01384640
     atom    3 type  1   force =     0.00000000    0.00000000   -0.00402840
     atom    4 type  1   force =     0.00000000    0.00000000   -0.00402840
     atom    5 type  1   force =     0.00000000    0.00000000    0.00461122
     The non-local contrib.  to forces
     atom    1 type  2   force =     0.00000000    0.00000000    0.02245806
     atom    2 type  3   force =     0.00000000    0.00000000   -0.00941094
     atom    3 type  1   force =     0.00000000    0.00000000   -0.06804151
     atom    4 type  1   force =     0.00000000    0.00000000   -0.06804151
     atom    5 type  1   force =     0.00000000    0.00000000    0.14037824
     The ionic contribution  to forces
     atom    1 type  2   force =     0.00000000    0.00000000   -0.85513286
     atom    2 type  3   force =    -0.00000000   -0.00000000    0.98773634
     atom    3 type  1   force =     0.00000000   -0.00000000    0.69932260
     atom    4 type  1   force =    -0.00000000    0.00000000    0.69932260
     atom    5 type  1   force =    -0.00000000   -0.00000000   -1.53124867
     The local contribution  to forces
     atom    1 type  2   force =    -0.00000000   -0.00000000    0.82228868
     atom    2 type  3   force =    -0.00000000   -0.00000000   -0.96446438
     atom    3 type  1   force =     0.00000000   -0.00000000   -0.63529195
     atom    4 type  1   force =    -0.00000000    0.00000000   -0.63529195
     atom    5 type  1   force =    -0.00000000   -0.00000000    1.39550228
     The core correction contribution to forces
     atom    1 type  2   force =     0.00000000    0.00000000    0.00000000
     atom    2 type  3   force =     0.00000000    0.00000000    0.00000000
     atom    3 type  1   force =     0.00000000    0.00000000    0.00000000
     atom    4 type  1   force =     0.00000000    0.00000000    0.00000000
     atom    5 type  1   force =     0.00000000    0.00000000    0.00000000
     The Hubbard contrib.    to forces
     atom    1 type  2   force =     0.00000000    0.00000000    0.00000000
     atom    2 type  3   force =     0.00000000    0.00000000    0.00000000
     atom    3 type  1   force =     0.00000000    0.00000000    0.00000000
     atom    4 type  1   force =     0.00000000    0.00000000    0.00000000
     atom    5 type  1   force =     0.00000000    0.00000000    0.00000000
     The SCF correction term to forces
     atom    1 type  2   force =    -0.00000000    0.00000000    0.00000000
     atom    2 type  3   force =    -0.00000000    0.00000000    0.00000000
     atom    3 type  1   force =    -0.00000000    0.00000000   -0.00000070
     atom    4 type  1   force =    -0.00000000   -0.00000000   -0.00000070
     atom    5 type  1   force =     0.00000000   -0.00000000   -0.00000378

     Total force =     0.007329     Total SCF correction =     0.000004


     Computing stress (Cartesian axis) and pressure

          total   stress  (Ry/bohr**3)                   (kbar)     P=      -20.72
  -0.00015106   0.00000000   0.00000000          -22.22        0.00        0.00
   0.00000000  -0.00015106   0.00000000            0.00      -22.22        0.00
   0.00000000   0.00000000  -0.00012043            0.00        0.00      -17.72

     Energy error            =      7.3E-05 Ry
     Gradient error          =      4.6E-03 Ry/Bohr

     number of scf cycles    =   7
     number of bfgs steps    =   6

     energy             old  =    -333.1831908974 Ry
     energy             new  =    -333.1832640319 Ry

     CASE: energy            _new < energy            _old

     new trust radius        =       0.0285402685 bohr
     new conv_thr            =       0.0000000010 Ry


ATOMIC_POSITIONS (angstrom)
Pb            0.0000000000        0.0000000000        0.0000000000    0   0   0
Ti            1.9400000000        1.9400000000        1.8378900000    0   0   0
O             0.0000000000        1.9400000000        1.9022520277
O             1.9400000000        0.0000000000        1.9022520277
O             1.9400000000        1.9400000000       -0.0526121197



     Writing config-only to output data dir /home/gridsan/epan1/labutil/lab3_samples/problem2/Lab3/PbTiO3_a_3.88_ecut_30_nk_4_displ_-0.026315789473684223/pwscf.save/
     NEW-OLD atomic charge density approx. for the potential

     total cpu time spent up to now is       35.0 secs

     Self-consistent Calculation

     iteration #  1     ecut=    30.00 Ry     beta= 0.70
     Davidson diagonalization with overlap
     ethr =  1.00E-06,  avg # of iterations =  7.0

     total cpu time spent up to now is       35.6 secs

     total energy              =    -333.18334901 Ry
     estimated scf accuracy    <       0.00018439 Ry

     iteration #  2     ecut=    30.00 Ry     beta= 0.70
     Davidson diagonalization with overlap
     ethr =  4.19E-07,  avg # of iterations =  2.8

     total cpu time spent up to now is       35.9 secs

     total energy              =    -333.18336922 Ry
     estimated scf accuracy    <       0.00002124 Ry

     iteration #  3     ecut=    30.00 Ry     beta= 0.70
     Davidson diagonalization with overlap
     ethr =  4.83E-08,  avg # of iterations =  4.7

     total cpu time spent up to now is       36.2 secs

     total energy              =    -333.18337221 Ry
     estimated scf accuracy    <       0.00002106 Ry

     iteration #  4     ecut=    30.00 Ry     beta= 0.70
     Davidson diagonalization with overlap
     ethr =  4.79E-08,  avg # of iterations =  3.8

     total cpu time spent up to now is       36.5 secs

     total energy              =    -333.18337701 Ry
     estimated scf accuracy    <       0.00000101 Ry

     iteration #  5     ecut=    30.00 Ry     beta= 0.70
     Davidson diagonalization with overlap
     ethr =  2.29E-09,  avg # of iterations =  4.8

     total cpu time spent up to now is       36.9 secs

     total energy              =    -333.18337717 Ry
     estimated scf accuracy    <       0.00000100 Ry

     iteration #  6     ecut=    30.00 Ry     beta= 0.70
     Davidson diagonalization with overlap
     ethr =  2.28E-09,  avg # of iterations =  4.2

     total cpu time spent up to now is       37.2 secs

     total energy              =    -333.18337730 Ry
     estimated scf accuracy    <       0.00000005 Ry

     iteration #  7     ecut=    30.00 Ry     beta= 0.70
     Davidson diagonalization with overlap
     ethr =  1.19E-10,  avg # of iterations =  5.8

     total cpu time spent up to now is       37.6 secs

     total energy              =    -333.18337733 Ry
     estimated scf accuracy    <       0.00000005 Ry

     iteration #  8     ecut=    30.00 Ry     beta= 0.70
     Davidson diagonalization with overlap
     ethr =  1.05E-10,  avg # of iterations =  1.8

     total cpu time spent up to now is       37.8 secs

     total energy              =    -333.18337733 Ry
     estimated scf accuracy    <       0.00000002 Ry

     iteration #  9     ecut=    30.00 Ry     beta= 0.70
     Davidson diagonalization with overlap
     ethr =  4.25E-11,  avg # of iterations =  4.3

     total cpu time spent up to now is       38.1 secs

     total energy              =    -333.18337734 Ry
     estimated scf accuracy    <          3.1E-09 Ry

     iteration # 10     ecut=    30.00 Ry     beta= 0.70
     Davidson diagonalization with overlap
     ethr =  7.13E-12,  avg # of iterations =  2.0

     total cpu time spent up to now is       38.4 secs

     total energy              =    -333.18337734 Ry
     estimated scf accuracy    <          1.8E-09 Ry

     iteration # 11     ecut=    30.00 Ry     beta= 0.70
     Davidson diagonalization with overlap
     ethr =  4.06E-12,  avg # of iterations =  4.2

     total cpu time spent up to now is       38.7 secs

     End of self-consistent calculation

          k = 0.1250 0.1250 0.1250 (  1096 PWs)   bands (ev):

   -44.7254 -21.3379 -21.3299 -21.3291  -6.3741  -5.3080  -5.3000  -4.0261
    -4.0243  -4.0112  -3.8440  -3.8406   4.6016   7.2593   7.2646   8.0300
     9.0721   9.0937   9.8394   9.8608   9.9346  10.0756

          k = 0.1250 0.1250 0.3750 (  1095 PWs)   bands (ev):

   -44.7241 -21.3945 -21.3277 -21.3267  -5.9628  -5.1803  -5.1417  -4.0855
    -4.0209  -4.0074  -3.9383  -3.8138   3.8727   6.7902   7.2821   7.7991
     8.4070   8.6838   9.3453   9.8926  10.0738  10.8192

          k = 0.1250 0.3750 0.3750 (  1093 PWs)   bands (ev):

   -44.7229 -21.3912 -21.3827 -21.3253  -5.7494  -5.0604  -4.9912  -4.0597
    -4.0163  -3.9623  -3.8732  -3.7201   3.5090   6.7324   6.8283   7.1456
     7.4548   8.6312   9.3896   9.4449   9.9930  10.6705

          k = 0.3750 0.3750 0.3750 (  1082 PWs)   bands (ev):

   -44.7216 -21.3885 -21.3802 -21.3799  -5.3561  -5.1872  -5.1810  -3.9727
    -3.9706  -3.6829  -3.6185  -3.6124   4.1209   5.9093   5.9150   6.6616
     7.0026   7.0066   7.9434  10.6240  10.6364  10.7068

          k = 0.3750-0.1250 0.1250 (  1095 PWs)   bands (ev):

   -44.7241 -21.3861 -21.3355 -21.3272  -5.9693  -5.1885  -5.1317  -4.0855
    -4.0197  -4.0079  -3.9392  -3.8118   3.8732   6.8005   7.3074   7.8039
     8.4006   8.7114   9.3224   9.8933  10.0484  10.8043

          k = 0.3750-0.3750 0.1250 (  1093 PWs)   bands (ev):

   -44.7229 -21.3832 -21.3823 -21.3335  -5.7611  -5.0559  -4.9866  -4.0580
    -4.0148  -3.9585  -3.8714  -3.7284   3.5081   6.7679   6.8074   7.1444
     7.4484   8.6270   9.4147   9.4441   9.9840  10.6842

     highest occupied level (ev):    10.8192

!    total energy              =    -333.18337734 Ry
     estimated scf accuracy    <          8.3E-11 Ry

     The total energy is the sum of the following terms:
     one-electron contribution =     -77.07140527 Ry
     hartree contribution      =      66.41565098 Ry
     xc contribution           =     -49.63531152 Ry
     ewald contribution        =    -272.89231152 Ry

     convergence has been achieved in  11 iterations

     Forces acting on atoms (cartesian axes, Ry/au):

[...]
     estimated scf accuracy    <       0.00001947 Ry

     iteration #  3     ecut=    30.00 Ry     beta= 0.70
     Davidson diagonalization with overlap
     ethr =  4.43E-08,  avg # of iterations =  3.7

     total cpu time spent up to now is       77.6 secs

     total energy              =    -333.18609799 Ry
     estimated scf accuracy    <       0.00000115 Ry

     iteration #  4     ecut=    30.00 Ry     beta= 0.70
     Davidson diagonalization with overlap
     ethr =  2.61E-09,  avg # of iterations =  5.7

     total cpu time spent up to now is       78.0 secs

     total energy              =    -333.18609833 Ry
     estimated scf accuracy    <       0.00000103 Ry

     iteration #  5     ecut=    30.00 Ry     beta= 0.70
     Davidson diagonalization with overlap
     ethr =  2.35E-09,  avg # of iterations =  4.5

     total cpu time spent up to now is       78.3 secs

     total energy              =    -333.18609857 Ry
     estimated scf accuracy    <       0.00000012 Ry

     iteration #  6     ecut=    30.00 Ry     beta= 0.70
     Davidson diagonalization with overlap
     ethr =  2.73E-10,  avg # of iterations =  3.7

     total cpu time spent up to now is       78.6 secs

     total energy              =    -333.18609860 Ry
     estimated scf accuracy    <       0.00000001 Ry

     iteration #  7     ecut=    30.00 Ry     beta= 0.70
     Davidson diagonalization with overlap
     ethr =  2.67E-11,  avg # of iterations =  5.0

     total cpu time spent up to now is       79.0 secs

     total energy              =    -333.18609860 Ry
     estimated scf accuracy    <          9.4E-09 Ry

     iteration #  8     ecut=    30.00 Ry     beta= 0.70
     Davidson diagonalization with overlap
     ethr =  2.14E-11,  avg # of iterations =  3.7

     total cpu time spent up to now is       79.2 secs

     End of self-consistent calculation

          k = 0.1250 0.1250 0.1250 (  1096 PWs)   bands (ev):

   -44.6935 -21.3528 -21.2982 -21.2974  -6.4694  -5.4196  -5.3122  -3.9515
    -3.9498  -3.9264  -3.7851  -3.6877   4.6221   7.1446   7.2517   8.0127
     8.9527   9.0020   9.5438   9.7000   9.8873  10.1773

          k = 0.1250 0.1250 0.3750 (  1095 PWs)   bands (ev):

   -44.6922 -21.4098 -21.2959 -21.2950  -6.0905  -5.3226  -5.1229  -3.9936
    -3.9360  -3.9246  -3.7799  -3.7503   3.8949   6.7844   7.0592   7.6627
     8.4898   8.5794   9.2776   9.7690   9.9671  10.8891

          k = 0.1250 0.3750 0.3750 (  1093 PWs)   bands (ev):

   -44.6910 -21.4064 -21.3505 -21.2935  -5.8590  -5.2027  -5.0277  -3.9762
    -3.9326  -3.8773  -3.7696  -3.5830   3.5597   6.5141   6.8983   7.0969
     7.3806   8.5801   9.3152   9.3546  10.0777  10.5892

          k = 0.3750 0.3750 0.3750 (  1082 PWs)   bands (ev):

   -44.6897 -21.4036 -21.3479 -21.3477  -5.4611  -5.3151  -5.2000  -3.8899
    -3.8851  -3.6340  -3.5237  -3.4933   4.0172   5.8513   5.8997   6.5606
     7.0702   7.0921   8.1711  10.5174  10.5263  10.6187

          k = 0.3750-0.1250 0.1250 (  1095 PWs)   bands (ev):

   -44.6923 -21.3545 -21.3497 -21.2955  -6.0556  -5.2970  -5.2383  -4.0055
    -3.9406  -3.9216  -3.7926  -3.6899   3.8822   6.7610   7.2524   7.7636
     8.2978   8.7351   9.2143   9.7754   9.8757  10.8457

          k = 0.3750-0.3750 0.1250 (  1093 PWs)   bands (ev):

   -44.6910 -21.3522 -21.3502 -21.3471  -5.7833  -5.2164  -5.1795  -3.9749
    -3.9119  -3.8080  -3.7052  -3.6571   3.4212   6.6971   6.7931   7.1343
     7.4990   8.6554   9.4009   9.4172  10.0521  10.5546

     highest occupied level (ev):    10.8891

!    total energy              =    -333.18609860 Ry
     estimated scf accuracy    <          1.2E-09 Ry

     The total energy is the sum of the following terms:
     one-electron contribution =     -78.60554317 Ry
     hartree contribution      =      67.19514609 Ry
     xc contribution           =     -49.67383608 Ry
     ewald contribution        =    -272.10186544 Ry

     convergence has been achieved in   8 iterations

     Forces acting on atoms (cartesian axes, Ry/au):

     atom    1 type  2   force =     0.00000000    0.00000000    0.00087934
     atom    2 type  3   force =     0.00000000    0.00000000   -0.00313171
     atom    3 type  1   force =     0.00000000    0.00000000   -0.00095669
     atom    4 type  1   force =     0.00000000    0.00000000   -0.00095669
     atom    5 type  1   force =     0.00000000    0.00000000    0.00416574
     The non-local contrib.  to forces
     atom    1 type  2   force =     0.00000000    0.00000000    0.20592334
     atom    2 type  3   force =     0.00000000    0.00000000    0.00931343
     atom    3 type  1   force =     0.00000000    0.00000000   -0.06367783
     atom    4 type  1   force =     0.00000000    0.00000000   -0.06367783
     atom    5 type  1   force =     0.00000000    0.00000000   -0.23035109
     The ionic contribution  to forces
     atom    1 type  2   force =     0.00000000    0.00000000   -3.63245639
     atom    2 type  3   force =    -0.00000000   -0.00000000    0.10292218
     atom    3 type  1   force =     0.00000000   -0.00000000    0.70063579
     atom    4 type  1   force =    -0.00000000    0.00000000    0.70063579
     atom    5 type  1   force =    -0.00000000   -0.00000000    2.12826263
     The local contribution  to forces
     atom    1 type  2   force =     0.00000000    0.00000000    3.42735757
     atom    2 type  3   force =    -0.00000000   -0.00000000   -0.11530773
     atom    3 type  1   force =     0.00000000   -0.00000000   -0.63789636
     atom    4 type  1   force =    -0.00000000    0.00000000   -0.63789636
     atom    5 type  1   force =    -0.00000000   -0.00000000   -1.89376886
     The core correction contribution to forces
     atom    1 type  2   force =     0.00000000    0.00000000    0.00000000
     atom    2 type  3   force =     0.00000000    0.00000000    0.00000000
     atom    3 type  1   force =     0.00000000    0.00000000    0.00000000
     atom    4 type  1   force =     0.00000000    0.00000000    0.00000000
     atom    5 type  1   force =     0.00000000    0.00000000    0.00000000
     The Hubbard contrib.    to forces
     atom    1 type  2   force =     0.00000000    0.00000000    0.00000000
     atom    2 type  3   force =     0.00000000    0.00000000    0.00000000
     atom    3 type  1   force =     0.00000000    0.00000000    0.00000000
     atom    4 type  1   force =     0.00000000    0.00000000    0.00000000
     atom    5 type  1   force =     0.00000000    0.00000000    0.00000000
     The SCF correction term to forces
     atom    1 type  2   force =    -0.00000000    0.00000000    0.00000000
     atom    2 type  3   force =    -0.00000000    0.00000000   -0.00000000
     atom    3 type  1   force =     0.00000000    0.00000000   -0.00001392
     atom    4 type  1   force =     0.00000000    0.00000000   -0.00001392
     atom    5 type  1   force =    -0.00000000    0.00000000    0.00002745

     Total force =     0.004380     Total SCF correction =     0.000034


     Computing stress (Cartesian axis) and pressure

          total   stress  (Ry/bohr**3)                   (kbar)     P=       -1.74
  -0.00008953   0.00000000   0.00000000          -13.17        0.00        0.00
   0.00000000  -0.00008953   0.00000000            0.00      -13.17        0.00
   0.00000000   0.00000000   0.00014356            0.00        0.00       21.12

     Energy error            =      1.7E-04 Ry
     Gradient error          =      4.2E-03 Ry/Bohr

     number of scf cycles    =  16
     number of bfgs steps    =  14

     energy             old  =    -333.1859282830 Ry
     energy             new  =    -333.1860985991 Ry

     CASE: energy            _new < energy            _old

     new trust radius        =       0.0126239183 bohr
     new conv_thr            =       0.0000000017 Ry


ATOMIC_POSITIONS (angstrom)
Pb            0.0000000000        0.0000000000        0.0000000000    0   0   0
Ti            1.9400000000        1.9400000000        1.8378900000    0   0   0
O             0.0000000000        1.9400000000        1.6594273404
O             1.9400000000        0.0000000000        1.6594273404
O             1.9400000000        1.9400000000       -0.2304641549



     Writing config-only to output data dir /home/gridsan/epan1/labutil/lab3_samples/problem2/Lab3/PbTiO3_a_3.88_ecut_30_nk_4_displ_-0.026315789473684223/pwscf.save/
     NEW-OLD atomic charge density approx. for the potential

     total cpu time spent up to now is       80.8 secs

     Self-consistent Calculation

     iteration #  1     ecut=    30.00 Ry     beta= 0.70
     Davidson diagonalization with overlap
     ethr =  1.00E-06,  avg # of iterations =  4.2

     Threshold (ethr) on eigenvalues was too large:
     Diagonalizing with lowered threshold

     Davidson diagonalization with overlap
     ethr =  6.58E-08,  avg # of iterations =  4.8

     total cpu time spent up to now is       81.4 secs

     total energy              =    -333.18611071 Ry
     estimated scf accuracy    <       0.00003625 Ry

     iteration #  2     ecut=    30.00 Ry     beta= 0.70
     Davidson diagonalization with overlap
     ethr =  8.24E-08,  avg # of iterations =  5.0

     total cpu time spent up to now is       81.7 secs

     total energy              =    -333.18611092 Ry
     estimated scf accuracy    <       0.00005225 Ry

     iteration #  3     ecut=    30.00 Ry     beta= 0.70
     Davidson diagonalization with overlap
     ethr =  8.24E-08,  avg # of iterations =  4.5

     total cpu time spent up to now is       82.0 secs

     total energy              =    -333.18612211 Ry
     estimated scf accuracy    <       0.00000394 Ry

     iteration #  4     ecut=    30.00 Ry     beta= 0.70
     Davidson diagonalization with overlap
     ethr =  8.96E-09,  avg # of iterations =  3.3

     total cpu time spent up to now is       82.4 secs

     total energy              =    -333.18612273 Ry
     estimated scf accuracy    <       0.00000037 Ry

     iteration #  5     ecut=    30.00 Ry     beta= 0.70
     Davidson diagonalization with overlap
     ethr =  8.36E-10,  avg # of iterations =  5.0

     total cpu time spent up to now is       82.7 secs

     total energy              =    -333.18612290 Ry
     estimated scf accuracy    <       0.00000005 Ry

     iteration #  6     ecut=    30.00 Ry     beta= 0.70
     Davidson diagonalization with overlap
     ethr =  1.15E-10,  avg # of iterations =  3.2

     total cpu time spent up to now is       83.0 secs

     total energy              =    -333.18612290 Ry
     estimated scf accuracy    <       0.00000002 Ry

     iteration #  7     ecut=    30.00 Ry     beta= 0.70
     Davidson diagonalization with overlap
     ethr =  3.72E-11,  avg # of iterations =  5.0

     total cpu time spent up to now is       83.3 secs

     total energy              =    -333.18612291 Ry
     estimated scf accuracy    <          2.0E-09 Ry

     iteration #  8     ecut=    30.00 Ry     beta= 0.70
     Davidson diagonalization with overlap
     ethr =  4.61E-12,  avg # of iterations =  2.3

     total cpu time spent up to now is       83.6 secs

     End of self-consistent calculation

          k = 0.1250 0.1250 0.1250 (  1096 PWs)   bands (ev):

   -44.7034 -21.3555 -21.3082 -21.3074  -6.4700  -5.4204  -5.3096  -3.9504
    -3.9489  -3.9252  -3.7836  -3.6879   4.6238   7.1438   7.2514   8.0084
     8.9635   9.0059   9.5586   9.7031   9.8860  10.1822

          k = 0.1250 0.1250 0.3750 (  1095 PWs)   bands (ev):

   -44.7021 -21.4125 -21.3059 -21.3050  -6.0923  -5.3235  -5.1194  -3.9927
    -3.9352  -3.9235  -3.7802  -3.7486   3.8995   6.7846   7.0627   7.6592
     8.4925   8.5879   9.2803   9.7721   9.9656  10.8881

          k = 0.1250 0.3750 0.3750 (  1093 PWs)   bands (ev):

   -44.7009 -21.4091 -21.3604 -21.3035  -5.8603  -5.2029  -5.0239  -3.9752
    -3.9317  -3.8761  -3.7690  -3.5835   3.5611   6.5208   6.8973   7.0940
     7.3813   8.5784   9.3192   9.3597  10.0800  10.5931

          k = 0.3750 0.3750 0.3750 (  1082 PWs)   bands (ev):

   -44.6996 -21.4063 -21.3579 -21.3577  -5.4616  -5.3156  -5.1973  -3.8886
    -3.8845  -3.6315  -3.5230  -3.4938   4.0189   5.8529   5.9025   6.5603
     7.0687   7.0875   8.1707  10.5169  10.5337  10.6242

          k = 0.3750-0.1250 0.1250 (  1095 PWs)   bands (ev):

   -44.7022 -21.3641 -21.3529 -21.3055  -6.0557  -5.2966  -5.2364  -4.0047
    -3.9398  -3.9202  -3.7926  -3.6898   3.8828   6.7596   7.2543   7.7620
     8.3001   8.7354   9.2251   9.7788   9.8830  10.8478

          k = 0.3750-0.3750 0.1250 (  1093 PWs)   bands (ev):

   -44.7010 -21.3614 -21.3602 -21.3506  -5.7812  -5.2159  -5.1798  -3.9743
    -3.9110  -3.8078  -3.7056  -3.6549   3.4220   6.6961   6.7897   7.1385
     7.5026   8.6559   9.4046   9.4199  10.0532  10.5542

     highest occupied level (ev):    10.8881

!    total energy              =    -333.18612291 Ry
     estimated scf accuracy    <          1.1E-09 Ry

     The total energy is the sum of the following terms:
     one-electron contribution =     -78.54790163 Ry
     hartree contribution      =      67.16399489 Ry
     xc contribution           =     -49.67118690 Ry
     ewald contribution        =    -272.13102928 Ry

     convergence has been achieved in   8 iterations

     Forces acting on atoms (cartesian axes, Ry/au):

     atom    1 type  2   force =     0.00000000    0.00000000    0.00082188
     atom    2 type  3   force =     0.00000000    0.00000000   -0.00107344
     atom    3 type  1   force =     0.00000000    0.00000000    0.00000508
     atom    4 type  1   force =     0.00000000    0.00000000    0.00000508
     atom    5 type  1   force =     0.00000000    0.00000000    0.00024140
     The non-local contrib.  to forces
     atom    1 type  2   force =     0.00000000    0.00000000    0.20487295
     atom    2 type  3   force =     0.00000000    0.00000000    0.00831433
     atom    3 type  1   force =     0.00000000    0.00000000   -0.06060180
     atom    4 type  1   force =     0.00000000    0.00000000   -0.06060180
     atom    5 type  1   force =     0.00000000    0.00000000   -0.22286467
     The ionic contribution  to forces
     atom    1 type  2   force =     0.00000000    0.00000000   -3.63856972
     atom    2 type  3   force =    -0.00000000   -0.00000000    0.24724015
     atom    3 type  1   force =     0.00000000   -0.00000000    0.71739589
     atom    4 type  1   force =    -0.00000000    0.00000000    0.71739589
     atom    5 type  1   force =    -0.00000000   -0.00000000    1.95653780
     The local contribution  to forces
     atom    1 type  2   force =    -0.00000000   -0.00000000    3.43451134
     atom    2 type  3   force =    -0.00000000   -0.00000000   -0.25657945
     atom    3 type  1   force =    -0.00000000   -0.00000000   -0.65679326
     atom    4 type  1   force =    -0.00000000    0.00000000   -0.65679326
     atom    5 type  1   force =    -0.00000000   -0.00000000   -1.73343073
     The core correction contribution to forces
     atom    1 type  2   force =     0.00000000    0.00000000    0.00000000
     atom    2 type  3   force =     0.00000000    0.00000000    0.00000000
     atom    3 type  1   force =     0.00000000    0.00000000    0.00000000
     atom    4 type  1   force =     0.00000000    0.00000000    0.00000000
     atom    5 type  1   force =     0.00000000    0.00000000    0.00000000
     The Hubbard contrib.    to forces
     atom    1 type  2   force =     0.00000000    0.00000000    0.00000000
     atom    2 type  3   force =     0.00000000    0.00000000    0.00000000
     atom    3 type  1   force =     0.00000000    0.00000000    0.00000000
     atom    4 type  1   force =     0.00000000    0.00000000    0.00000000
     atom    5 type  1   force =     0.00000000    0.00000000    0.00000000
     The SCF correction term to forces
     atom    1 type  2   force =     0.00000000   -0.00000000    0.00000000
     atom    2 type  3   force =     0.00000000    0.00000000   -0.00000000
     atom    3 type  1   force =    -0.00000000    0.00000000    0.00000294
     atom    4 type  1   force =     0.00000000    0.00000000    0.00000294
     atom    5 type  1   force =    -0.00000000   -0.00000000   -0.00000233

     Total force =     0.000242     Total SCF correction =     0.000005


     Computing stress (Cartesian axis) and pressure

          total   stress  (Ry/bohr**3)                   (kbar)     P=       -3.47
  -0.00009394   0.00000000   0.00000000          -13.82        0.00        0.00
   0.00000000  -0.00009394   0.00000000            0.00      -13.82        0.00
   0.00000000   0.00000000   0.00011708            0.00        0.00       17.22

     Energy error            =      2.4E-05 Ry
     Gradient error          =      2.4E-04 Ry/Bohr

     bfgs converged in  17 scf cycles and  15 bfgs steps
     (criteria: energy <  1.0E-04 Ry, force <  1.0E-03 Ry/Bohr)

     End of BFGS Geometry Optimization

     Final energy             =    -333.1861229070 Ry

     File /home/gridsan/epan1/labutil/lab3_samples/problem2/Lab3/PbTiO3_a_3.88_ecut_30_nk_4_displ_-0.026315789473684223/pwscf.bfgs deleted, as requested
Begin final coordinates

ATOMIC_POSITIONS (angstrom)
Pb            0.0000000000        0.0000000000        0.0000000000    0   0   0
Ti            1.9400000000        1.9400000000        1.8378900000    0   0   0
O             0.0000000000        1.9400000000        1.6594273404
O             1.9400000000        0.0000000000        1.6594273404
O             1.9400000000        1.9400000000       -0.2304641549
End final coordinates



     init_run     :      0.69s CPU      0.70s WALL (       1 calls)
     electrons    :     68.59s CPU     55.97s WALL (      17 calls)
     update_pot   :      0.54s CPU      0.59s WALL (      16 calls)
     forces       :      2.48s CPU      1.88s WALL (      17 calls)
     stress       :     18.28s CPU     15.24s WALL (      17 calls)

     Called by init_run:
     wfcinit      :      0.08s CPU      0.08s WALL (       1 calls)
     potinit      :      0.04s CPU      0.04s WALL (       1 calls)
     hinit0       :      0.45s CPU      0.46s WALL (       1 calls)

     Called by electrons:
     c_bands      :     39.24s CPU     30.67s WALL (     170 calls)
     sum_band     :     17.78s CPU     15.39s WALL (     170 calls)
     v_of_rho     :      0.63s CPU      0.57s WALL (     181 calls)
     newd         :     11.12s CPU      9.34s WALL (     181 calls)
     mix_rho      :      0.38s CPU      0.34s WALL (     170 calls)

     Called by c_bands:
     init_us_2    :      1.18s CPU      0.94s WALL (    2250 calls)
     init_us_2:cp :      1.18s CPU      0.94s WALL (    2250 calls)
     cegterg      :     36.22s CPU     27.87s WALL (    1020 calls)

     Called by *egterg:
     cdiaghg      :      6.40s CPU      4.76s WALL (    5268 calls)
     h_psi        :     23.98s CPU     18.71s WALL (    5406 calls)
     s_psi        :      1.06s CPU      0.79s WALL (    5406 calls)
     g_psi        :      0.25s CPU      0.18s WALL (    4380 calls)

     Called by h_psi:
     h_psi:calbec :      1.47s CPU      1.15s WALL (    5406 calls)
     vloc_psi     :     21.27s CPU     16.61s WALL (    5406 calls)
     add_vuspsi   :      1.09s CPU      0.83s WALL (    5406 calls)

     General routines
     calbec       :      2.00s CPU      1.58s WALL (    6936 calls)
     fft          :      1.04s CPU      0.90s WALL (    1159 calls)
     ffts         :      0.11s CPU      0.09s WALL (     351 calls)
     fftw         :     20.21s CPU     15.83s WALL (  158718 calls)
     interpolate  :      0.23s CPU      0.19s WALL (     181 calls)

     Parallel routines

     PWSCF        :   1m32.39s CPU   1m24.65s WALL


   This run was terminated on:  18: 5:12   2Nov2023            

=------------------------------------------------------------------------------=
   JOB DONE.
=------------------------------------------------------------------------------=
