LAMMPS (29 Oct 2020)
Reading data file ...
  orthogonal box = (0.0000000 0.0000000 0.0000000) to (12.270000 12.270000 12.270000)
  1 by 1 by 1 MPI processor grid
  reading atoms ...
  108 atoms
  read_data CPU = 0.000 seconds
Reading eam potential file /home/gridsan/epan1/3320_atomistic_shared/lammps/potentials/Ag_u3.eam with DATE: 2007-06-11
WARNING: Using 'neigh_modify every 1 delay 0 check yes' setting during minimization (../min.cpp:187)
Neighbor list info ...
  update every 1 steps, delay 0 steps, check yes
  max neighbors/atom: 2000, page size: 100000
  master list distance cutoff = 7.55
  ghost atom cutoff = 7.55
  binsize = 3.775, bins = 4 4 4
  1 neighbor lists, perpetual/occasional/extra = 1 0 0
  (1) pair eam, perpetual
      attributes: half, newton on
      pair build: half/bin/atomonly/newton
      stencil: half/bin/3d/newton
      bin: standard
Setting up cg style minimization ...
  Unit style    : metal
  Current step  : 0
WARNING: Energy due to 1 extra global DOFs will be included in minimizer energies
Per MPI rank memory allocation (min/avg/max) = 4.473 | 4.473 | 4.473 Mbytes
Step PotEng Lx Ly Lz Press Pxx Pyy Pzz 
       0       -307.8        12.27        12.27        12.27 -0.058146225 -0.058146225 -0.058146225 -0.058146225 
       1       -307.8        12.27        12.27        12.27 -6.8637931e-05 -6.8637931e-05 -6.8637932e-05 -6.863793e-05 
Loop time of 0.000585079 on 1 procs for 1 steps with 108 atoms

94.3% CPU use with 1 MPI tasks x no OpenMP threads

Minimization stats:
  Stopping criterion = energy tolerance
  Energy initial, next-to-last, final = 
     -307.800000169158  -307.800000169158  -307.800000169113
  Force two-norm initial, final = 0.00020112502 2.3741533e-07
  Force max component initial, final = 0.00020112502 2.3741533e-07
  Final line search alpha, max atom move = 1.0000000 2.3741533e-07
  Iterations, force evaluations = 1 2

MPI task timing breakdown:
Section |  min time  |  avg time  |  max time  |%varavg| %total
---------------------------------------------------------------
Pair    | 0.00049686 | 0.00049686 | 0.00049686 |   0.0 | 84.92
Neigh   | 0          | 0          | 0          |   0.0 |  0.00
Comm    | 1.2159e-05 | 1.2159e-05 | 1.2159e-05 |   0.0 |  2.08
Output  | 0          | 0          | 0          |   0.0 |  0.00
Modify  | 0          | 0          | 0          |   0.0 |  0.00
Other   |            | 7.606e-05  |            |       | 13.00

Nlocal:        108.000 ave         108 max         108 min
Histogram: 1 0 0 0 0 0 0 0 0 0
Nghost:        990.000 ave         990 max         990 min
Histogram: 1 0 0 0 0 0 0 0 0 0
Neighs:        4644.00 ave        4644 max        4644 min
Histogram: 1 0 0 0 0 0 0 0 0 0

Total # of neighbors = 4644
Ave neighs/atom = 43.000000
Neighbor list builds = 0
Dangerous builds = 0
Total energy (eV) = -307.800000169113
Number of atoms = 108
Lattice constant (Angstoms) = 12.2699997710268
Total wall time: 0:00:00
