LAMMPS (29 Oct 2020)
Reading data file ...
  orthogonal box = (0.0000000 0.0000000 0.0000000) to (16.360000 16.360000 12.270000)
  1 by 1 by 1 MPI processor grid
  reading atoms ...
  192 atoms
  read_data CPU = 0.000 seconds
Reading eam potential file /home/gridsan/epan1/3320_atomistic_shared/lammps/potentials/Ag_u3.eam with DATE: 2007-06-11
WARNING: No fixes defined, atoms won't move (../verlet.cpp:54)
Neighbor list info ...
  update every 1 steps, delay 10 steps, check yes
  max neighbors/atom: 2000, page size: 100000
  master list distance cutoff = 7.55
  ghost atom cutoff = 7.55
  binsize = 3.775, bins = 5 5 4
  1 neighbor lists, perpetual/occasional/extra = 1 0 0
  (1) pair eam, perpetual
      attributes: half, newton on
      pair build: half/bin/atomonly/newton
      stencil: half/bin/3d/newton
      bin: standard
Setting up Verlet run ...
  Unit style    : metal
  Current step  : 0
  Time step     : 0.001
Per MPI rank memory allocation (min/avg/max) = 3.367 | 3.367 | 3.367 Mbytes
Step PotEng Lx Ly Lz Press Pxx Pyy Pzz 
       0       -547.2        16.36        16.36        12.27 -0.056080958 -0.056045059 -0.056045059 -0.056152755 
Loop time of 9.53674e-07 on 1 procs for 0 steps with 192 atoms

104.9% CPU use with 1 MPI tasks x no OpenMP threads

MPI task timing breakdown:
Section |  min time  |  avg time  |  max time  |%varavg| %total
---------------------------------------------------------------
Pair    | 0          | 0          | 0          |   0.0 |  0.00
Neigh   | 0          | 0          | 0          |   0.0 |  0.00
Comm    | 0          | 0          | 0          |   0.0 |  0.00
Output  | 0          | 0          | 0          |   0.0 |  0.00
Modify  | 0          | 0          | 0          |   0.0 |  0.00
Other   |            | 9.537e-07  |            |       |100.00

Nlocal:        192.000 ave         192 max         192 min
Histogram: 1 0 0 0 0 0 0 0 0 0
Nghost:        1270.00 ave        1270 max        1270 min
Histogram: 1 0 0 0 0 0 0 0 0 0
Neighs:        8256.00 ave        8256 max        8256 min
Histogram: 1 0 0 0 0 0 0 0 0 0

Total # of neighbors = 8256
Ave neighs/atom = 43.000000
Neighbor list builds = 0
Dangerous builds = 0
WARNING: Using 'neigh_modify every 1 delay 0 check yes' setting during minimization (../min.cpp:187)
Setting up cg style minimization ...
  Unit style    : metal
  Current step  : 0
WARNING: Energy due to 1 extra global DOFs will be included in minimizer energies
Per MPI rank memory allocation (min/avg/max) = 4.492 | 4.492 | 4.492 Mbytes
Step PotEng Lx Ly Lz Press Pxx Pyy Pzz 
       0       -547.2        16.36        16.36        12.27 -0.056080958 -0.056045059 -0.056045059 -0.056152755 
       3       -547.2    16.360002    16.360002    12.270001  -0.37251523  -0.37251516  -0.37251516  -0.37251536 
Loop time of 0.00159407 on 1 procs for 3 steps with 192 atoms

100.0% CPU use with 1 MPI tasks x no OpenMP threads

Minimization stats:
  Stopping criterion = energy tolerance
  Energy initial, next-to-last, final = 
     -547.199999370638  -547.200000298772  -547.200000298851
  Force two-norm initial, final = 0.0041249637 0.0022973915
  Force max component initial, final = 0.00036332234 0.0022906892
  Final line search alpha, max atom move = 0.28063871 0.00064285608
  Iterations, force evaluations = 3 6

MPI task timing breakdown:
Section |  min time  |  avg time  |  max time  |%varavg| %total
---------------------------------------------------------------
Pair    | 0.0014291  | 0.0014291  | 0.0014291  |   0.0 | 89.65
Neigh   | 0          | 0          | 0          |   0.0 |  0.00
Comm    | 2.9325e-05 | 2.9325e-05 | 2.9325e-05 |   0.0 |  1.84
Output  | 0          | 0          | 0          |   0.0 |  0.00
Modify  | 0          | 0          | 0          |   0.0 |  0.00
Other   |            | 0.0001357  |            |       |  8.51

Nlocal:        192.000 ave         192 max         192 min
Histogram: 1 0 0 0 0 0 0 0 0 0
Nghost:        1270.00 ave        1270 max        1270 min
Histogram: 1 0 0 0 0 0 0 0 0 0
Neighs:        8256.00 ave        8256 max        8256 min
Histogram: 1 0 0 0 0 0 0 0 0 0

Total # of neighbors = 8256
Ave neighs/atom = 43.000000
Neighbor list builds = 0
Dangerous builds = 0
Total energy (eV) = -547.200000298851
Number of atoms = 192
Lattice constant (Angstoms) = 16.3600016525714
Total wall time: 0:00:00
