Header of the LAMMPS data file 

4 atoms 
1 atom types

0.0 3.9616161616161616  xlo xhi
0.0 3.9616161616161616  ylo yhi
0.0 3.9616161616161616  zlo zhi

Masses 

1  107.8682

Atoms # atomic 

1 1 0.00000 0.00000 0.00000 
2 1 0.00000 1.98081 1.98081 
3 1 1.98081 0.00000 1.98081 
4 1 1.98081 1.98081 0.00000 
