
     Program PWSCF v.7.2 starts on 11Oct2023 at 14: 3:48 

     This program is part of the open-source Quantum ESPRESSO suite
     for quantum simulation of materials; please cite
         "P. Giannozzi et al., J. Phys.:Condens. Matter 21 395502 (2009);
         "P. Giannozzi et al., J. Phys.:Condens. Matter 29 465901 (2017);
         "P. Giannozzi et al., J. Chem. Phys. 152 154105 (2020);
          URL http://www.quantum-espresso.org", 
     in publications or presentations arising from this work. More details at
     http://www.quantum-espresso.org/quote

     Parallel version (MPI), running on     1 processors

     MPI processes distributed on     1 nodes
     33239 MiB available memory on the printing compute node when the environment starts

     Waiting for input...
     Reading input from standard input
Warning: card &CELL ignored
Warning: card / ignored

     Current dimensions of program PWSCF are:
     Max number of different atomic species (ntypx) = 10
     Max number of k-points (npk) =  40000
     Max angular momentum in pseudopotentials (lmaxx) =  4
     file Ge.pz-dn-rrkjus_psl.0.2.2.UPF: wavefunction(s)  3D renormalized
     Message from routine setup:
     using ibrav=0 with symmetry is DISCOURAGED, use correct ibrav instead

     Subspace diagonalization in iterative solution of the eigenvalue problem:
     a serial algorithm will be used


     G-vector sticks info
     --------------------
     sticks:   dense  smooth     PW     G-vecs:    dense   smooth      PW
     Sum         685     685    211                12039    12039    1989

     Using Slab Decomposition



     bravais-lattice index     =            0
     lattice parameter (alat)  =       6.7480  a.u.
     unit-cell volume          =     217.2755 (a.u.)^3
     number of atoms/cell      =            2
     number of atomic types    =            1
     number of electrons       =        28.00
     number of Kohn-Sham states=           14
     kinetic-energy cutoff     =      55.0000  Ry
     charge density cutoff     =     220.0000  Ry
     scf convergence threshold =      1.0E-07
     mixing beta               =       0.5000
     number of iterations used =            8  plain     mixing
     Exchange-correlation= LDA
                           (   1   1   0   0   0   0   0)

     celldm(1)=   6.748003  celldm(2)=   0.000000  celldm(3)=   0.000000
     celldm(4)=   0.000000  celldm(5)=   0.000000  celldm(6)=   0.000000

     crystal axes: (cart. coord. in units of alat)
               a(1) = (   0.000000   0.707107   0.707107 )  
               a(2) = (   0.707107   0.000000   0.707107 )  
               a(3) = (   0.707107   0.707107   0.000000 )  

     reciprocal axes: (cart. coord. in units 2 pi/alat)
               b(1) = ( -0.707107  0.707107  0.707107 )  
               b(2) = (  0.707107 -0.707107  0.707107 )  
               b(3) = (  0.707107  0.707107 -0.707107 )  


     PseudoPot. # 1 for Ge read from file:
     ../Ge.pz-dn-rrkjus_psl.0.2.2.UPF
     MD5 check sum: 9948ad5293734715c8cf6021b6c26e6d
     Pseudo is Ultrasoft + core correction, Zval = 14.0
     Generated using "atomic" code by A. Dal Corso  v.5.0.2 svn rev. 9415
     Using radial grid of 1207 points,  6 beta functions with: 
                l(1) =   0
                l(2) =   0
                l(3) =   1
                l(4) =   1
                l(5) =   2
                l(6) =   2
     Q(r) pseudized with 0 coefficients 


     atomic species   valence    mass     pseudopotential
        Ge            14.00    72.63000     Ge( 1.00)

     48 Sym. Ops., with inversion, found (24 have fractional translation)



   Cartesian axes

     site n.     atom                  positions (alat units)
         1           Ge  tau(   1) = (   0.0000000   0.0000000   0.0000000  )
         2           Ge  tau(   2) = (   0.3535534   0.3535534   0.3535534  )

     number of k points=     8
                       cart. coord. in units 2pi/alat
        k(    1) = (   0.0000000   0.0000000   0.0000000), wk =   0.0312500
        k(    2) = (   0.1767767   0.1767767  -0.1767767), wk =   0.2500000
        k(    3) = (  -0.3535534  -0.3535534   0.3535534), wk =   0.1250000
        k(    4) = (   0.3535534   0.0000000   0.0000000), wk =   0.1875000
        k(    5) = (  -0.1767767  -0.5303301   0.5303301), wk =   0.7500000
        k(    6) = (   0.0000000  -0.3535534   0.3535534), wk =   0.3750000
        k(    7) = (  -0.7071068   0.0000000   0.0000000), wk =   0.0937500
        k(    8) = (  -0.7071068   0.3535534   0.0000000), wk =   0.1875000

     Dense  grid:    12039 G-vectors     FFT dimensions: (  32,  32,  32)

     Estimated max dynamical RAM per process >      49.07 MB

     Check: negative core charge=   -0.000035

     Initial potential from superposition of free atoms

     starting charge      27.9988, renormalised to      28.0000
     Starting wfcs are   18 randomized atomic wfcs

     total cpu time spent up to now is        1.0 secs

     Self-consistent Calculation

     iteration #  1     ecut=    55.00 Ry     beta= 0.50
     Davidson diagonalization with overlap
     ethr =  1.00E-02,  avg # of iterations =  2.0

     Threshold (ethr) on eigenvalues was too large:
     Diagonalizing with lowered threshold

     Davidson diagonalization with overlap
     ethr =  2.13E-04,  avg # of iterations =  1.9

     total cpu time spent up to now is        2.0 secs

     total energy              =    -421.67567677 Ry
     estimated scf accuracy    <       0.06141816 Ry

     iteration #  2     ecut=    55.00 Ry     beta= 0.50
     Davidson diagonalization with overlap
     ethr =  2.19E-04,  avg # of iterations =  1.4

     total cpu time spent up to now is        2.5 secs

     total energy              =    -421.67333199 Ry
     estimated scf accuracy    <       0.01020679 Ry

     iteration #  3     ecut=    55.00 Ry     beta= 0.50
     Davidson diagonalization with overlap
     ethr =  3.65E-05,  avg # of iterations =  2.0

     total cpu time spent up to now is        3.0 secs

     total energy              =    -421.67431043 Ry
     estimated scf accuracy    <       0.00011955 Ry

     iteration #  4     ecut=    55.00 Ry     beta= 0.50
     Davidson diagonalization with overlap
     ethr =  4.27E-07,  avg # of iterations =  2.9

     total cpu time spent up to now is        3.6 secs

     total energy              =    -421.67434754 Ry
     estimated scf accuracy    <       0.00000809 Ry

     iteration #  5     ecut=    55.00 Ry     beta= 0.50
     Davidson diagonalization with overlap
     ethr =  2.89E-08,  avg # of iterations =  2.5

     total cpu time spent up to now is        4.2 secs

     total energy              =    -421.67434909 Ry
     estimated scf accuracy    <       0.00000033 Ry

     iteration #  6     ecut=    55.00 Ry     beta= 0.50
     Davidson diagonalization with overlap
     ethr =  1.19E-09,  avg # of iterations =  3.1

     total cpu time spent up to now is        4.8 secs

     total energy              =    -421.67434910 Ry
     estimated scf accuracy    <       0.00000016 Ry

     iteration #  7     ecut=    55.00 Ry     beta= 0.50
     Davidson diagonalization with overlap
     ethr =  5.78E-10,  avg # of iterations =  2.0

     total cpu time spent up to now is        5.3 secs

     End of self-consistent calculation

          k = 0.0000 0.0000 0.0000 (  1459 PWs)   bands (ev):

   -12.1896 -12.1896 -12.1896 -12.1205 -12.1205 -11.6349 -11.6349 -11.6349
   -11.5601 -11.5601  -2.3501  13.6294  13.6294  13.6294

          k = 0.1768 0.1768-0.1768 (  1489 PWs)   bands (ev):

   -12.2326 -12.2326 -12.1719 -12.0494 -12.0494 -11.6740 -11.6740 -11.6601
   -11.5313 -11.5313  -1.3223   7.9646  12.2958  12.2958

          k =-0.3536-0.3536 0.3536 (  1502 PWs)   bands (ev):

   -12.2408 -12.2408 -12.1544 -12.0248 -12.0248 -11.6859 -11.6811 -11.6811
   -11.5227 -11.5227   0.7621   3.7981  11.5832  11.5832

          k = 0.3536 0.0000 0.0000 (  1491 PWs)   bands (ev):

   -12.2259 -12.2259 -12.2232 -12.0340 -11.9483 -11.8394 -11.6378 -11.5604
   -11.5604 -11.5412  -0.9669   8.7565  10.5468  10.5468

          k =-0.1768-0.5303 0.5303 (  1498 PWs)   bands (ev):

   -12.2938 -12.2530 -12.1195 -11.9505 -11.9112 -11.8671 -11.7324 -11.6702
   -11.5036 -11.4666   1.1934   4.7975   8.2431  10.0584

          k = 0.0000-0.3536 0.3536 (  1506 PWs)   bands (ev):

   -12.2805 -12.2673 -12.0946 -12.0168 -11.9408 -11.7733 -11.7455 -11.6825
   -11.4891 -11.4879   0.3013   6.0341   7.8859  11.3962

          k =-0.7071 0.0000 0.0000 (  1524 PWs)   bands (ev):

   -12.2572 -12.2572 -12.0993 -12.0993 -11.8315 -11.8315 -11.7015 -11.7015
   -11.4894 -11.4894   3.0186   3.0186   9.0884   9.0884

          k =-0.7071 0.3536 0.0000 (  1480 PWs)   bands (ev):

   -12.2977 -12.2977 -11.9855 -11.9855 -11.8609 -11.8609 -11.7779 -11.7779
   -11.4566 -11.4566   3.2785   3.2785   7.7007   7.7007

     highest occupied level (ev):    13.6294

!    total energy              =    -421.67434913 Ry
     estimated scf accuracy    <          4.9E-09 Ry

     The total energy is the sum of the following terms:
     one-electron contribution =    -236.38469262 Ry
     hartree contribution      =     148.17033481 Ry
     xc contribution           =    -112.18796362 Ry
     ewald contribution        =    -221.27202769 Ry

     convergence has been achieved in   7 iterations

     Forces acting on atoms (cartesian axes, Ry/au):

     atom    1 type  1   force =     0.00000000    0.00000000   -0.00000000
     atom    2 type  1   force =    -0.00000000   -0.00000000    0.00000000
     The non-local contrib.  to forces
     atom    1 type  1   force =     0.00000000    0.00000000    0.00000000
     atom    2 type  1   force =     0.00000000   -0.00000000    0.00000000
     The ionic contribution  to forces
     atom    1 type  1   force =    -0.00000000   -0.00000000   -0.00000000
     atom    2 type  1   force =    -0.00000000   -0.00000000   -0.00000000
     The local contribution  to forces
     atom    1 type  1   force =    -0.00000000   -0.00000000   -0.00000000
     atom    2 type  1   force =     0.00000000    0.00000000    0.00000000
     The core correction contribution to forces
     atom    1 type  1   force =    -0.00000000   -0.00000000   -0.00000000
     atom    2 type  1   force =     0.00000000    0.00000000    0.00000000
     The Hubbard contrib.    to forces
     atom    1 type  1   force =     0.00000000    0.00000000    0.00000000
     atom    2 type  1   force =     0.00000000    0.00000000    0.00000000
     The SCF correction term to forces
     atom    1 type  1   force =    -0.00000000   -0.00000000   -0.00000000
     atom    2 type  1   force =     0.00000000    0.00000000    0.00000000

     Total force =     0.000000     Total SCF correction =     0.000000


     Computing stress (Cartesian axis) and pressure

          total   stress  (Ry/bohr**3)                   (kbar)     P=      497.86
   0.00338439   0.00000000  -0.00000000          497.86        0.00       -0.00
  -0.00000000   0.00338439   0.00000000           -0.00      497.86        0.00
  -0.00000000  -0.00000000   0.00338439           -0.00       -0.00      497.86


     init_run     :      1.03s CPU      0.90s WALL (       1 calls)
     electrons    :      6.19s CPU      4.22s WALL (       1 calls)
     forces       :      0.17s CPU      0.12s WALL (       1 calls)
     stress       :      1.76s CPU      1.21s WALL (       1 calls)

     Called by init_run:
     wfcinit      :      0.49s CPU      0.36s WALL (       1 calls)
     potinit      :      0.01s CPU      0.01s WALL (       1 calls)
     hinit0       :      0.48s CPU      0.49s WALL (       1 calls)

     Called by electrons:
     c_bands      :      4.34s CPU      2.91s WALL (       8 calls)
     sum_band     :      1.35s CPU      0.96s WALL (       8 calls)
     v_of_rho     :      0.05s CPU      0.04s WALL (       8 calls)
     newd         :      0.46s CPU      0.32s WALL (       8 calls)
     mix_rho      :      0.02s CPU      0.02s WALL (       8 calls)

     Called by c_bands:
     init_us_2    :      0.26s CPU      0.19s WALL (     152 calls)
     init_us_2:cp :      0.25s CPU      0.19s WALL (     152 calls)
     cegterg      :      3.75s CPU      2.49s WALL (      64 calls)

     Called by *egterg:
     cdiaghg      :      0.19s CPU      0.12s WALL (     198 calls)
     h_psi        :      3.38s CPU      2.30s WALL (     214 calls)
     s_psi        :      0.10s CPU      0.07s WALL (     214 calls)
     g_psi        :      0.04s CPU      0.03s WALL (     142 calls)

     Called by h_psi:
     h_psi:calbec :      0.11s CPU      0.07s WALL (     214 calls)
     vloc_psi     :      3.13s CPU      2.14s WALL (     214 calls)
     add_vuspsi   :      0.11s CPU      0.07s WALL (     214 calls)

     General routines
     calbec       :      0.17s CPU      0.11s WALL (     318 calls)
     fft          :      0.20s CPU      0.19s WALL (      41 calls)
     ffts         :      0.01s CPU      0.01s WALL (       8 calls)
     fftw         :      2.95s CPU      2.04s WALL (    5538 calls)

     Parallel routines

     PWSCF        :      9.31s CPU      6.60s WALL


   This run was terminated on:  14: 3:55  11Oct2023            

=------------------------------------------------------------------------------=
   JOB DONE.
=------------------------------------------------------------------------------=
