LAMMPS (29 Oct 2020)
Reading data file ...
  orthogonal box = (0.0000000 0.0000000 0.0000000) to (16.360000 16.360000 20.450000)
  1 by 1 by 1 MPI processor grid
  reading atoms ...
  320 atoms
  read_data CPU = 0.001 seconds
Reading eam potential file /home/gridsan/epan1/3320_atomistic_shared/lammps/potentials/Ag_u3.eam with DATE: 2007-06-11
WARNING: No fixes defined, atoms won't move (../verlet.cpp:54)
Neighbor list info ...
  update every 1 steps, delay 10 steps, check yes
  max neighbors/atom: 2000, page size: 100000
  master list distance cutoff = 7.55
  ghost atom cutoff = 7.55
  binsize = 3.775, bins = 5 5 6
  1 neighbor lists, perpetual/occasional/extra = 1 0 0
  (1) pair eam, perpetual
      attributes: half, newton on
      pair build: half/bin/atomonly/newton
      stencil: half/bin/3d/newton
      bin: standard
Setting up Verlet run ...
  Unit style    : metal
  Current step  : 0
  Time step     : 0.001
Per MPI rank memory allocation (min/avg/max) = 3.361 | 3.361 | 3.361 Mbytes
Step PotEng Lx Ly Lz Press Pxx Pyy Pzz 
       0         -912        16.36        16.36        20.45 -0.058146225 -0.058146225 -0.058146225 -0.058146225 
Loop time of 9.53674e-07 on 1 procs for 0 steps with 320 atoms

0.0% CPU use with 1 MPI tasks x no OpenMP threads

MPI task timing breakdown:
Section |  min time  |  avg time  |  max time  |%varavg| %total
---------------------------------------------------------------
Pair    | 0          | 0          | 0          |   0.0 |  0.00
Neigh   | 0          | 0          | 0          |   0.0 |  0.00
Comm    | 0          | 0          | 0          |   0.0 |  0.00
Output  | 0          | 0          | 0          |   0.0 |  0.00
Modify  | 0          | 0          | 0          |   0.0 |  0.00
Other   |            | 9.537e-07  |            |       |100.00

Nlocal:        320.000 ave         320 max         320 min
Histogram: 1 0 0 0 0 0 0 0 0 0
Nghost:        1592.00 ave        1592 max        1592 min
Histogram: 1 0 0 0 0 0 0 0 0 0
Neighs:        13760.0 ave       13760 max       13760 min
Histogram: 1 0 0 0 0 0 0 0 0 0

Total # of neighbors = 13760
Ave neighs/atom = 43.000000
Neighbor list builds = 0
Dangerous builds = 0
WARNING: Using 'neigh_modify every 1 delay 0 check yes' setting during minimization (../min.cpp:187)
Setting up cg style minimization ...
  Unit style    : metal
  Current step  : 0
WARNING: Energy due to 1 extra global DOFs will be included in minimizer energies
Per MPI rank memory allocation (min/avg/max) = 4.486 | 4.486 | 4.486 Mbytes
Step PotEng Lx Ly Lz Press Pxx Pyy Pzz 
       0         -912        16.36        16.36        20.45 -0.058146225 -0.058146225 -0.058146225 -0.058146225 
       1         -912        16.36        16.36        20.45 -0.00020284347 -0.00020284348 -0.00020284348 -0.00020284345 
Loop time of 0.00129104 on 1 procs for 1 steps with 320 atoms

0.0% CPU use with 1 MPI tasks x no OpenMP threads

Minimization stats:
  Stopping criterion = energy tolerance
  Energy initial, next-to-last, final = 
     -912.000000501016  -912.000000501016  -912.000000501362
  Force two-norm initial, final = 0.000595926 2.0788915e-06
  Force max component initial, final = 0.000595926 2.0788915e-06
  Final line search alpha, max atom move = 1.0000000 2.0788915e-06
  Iterations, force evaluations = 1 2

MPI task timing breakdown:
Section |  min time  |  avg time  |  max time  |%varavg| %total
---------------------------------------------------------------
Pair    | 0.001199   | 0.001199   | 0.001199   |   0.0 | 92.87
Neigh   | 0          | 0          | 0          |   0.0 |  0.00
Comm    | 1.9073e-05 | 1.9073e-05 | 1.9073e-05 |   0.0 |  1.48
Output  | 0          | 0          | 0          |   0.0 |  0.00
Modify  | 0          | 0          | 0          |   0.0 |  0.00
Other   |            | 7.296e-05  |            |       |  5.65

Nlocal:        320.000 ave         320 max         320 min
Histogram: 1 0 0 0 0 0 0 0 0 0
Nghost:        1592.00 ave        1592 max        1592 min
Histogram: 1 0 0 0 0 0 0 0 0 0
Neighs:        13760.0 ave       13760 max       13760 min
Histogram: 1 0 0 0 0 0 0 0 0 0

Total # of neighbors = 13760
Ave neighs/atom = 43.000000
Neighbor list builds = 0
Dangerous builds = 0
Total energy (eV) = -912.000000501362
Number of atoms = 320
Lattice constant (Angstoms) = 16.3599996954078
Total wall time: 0:00:00
