LAMMPS (29 Oct 2020)
Reading data file ...
  orthogonal box = (0.0000000 0.0000000 0.0000000) to (4.6210526 4.6210526 4.6210526)
  1 by 1 by 1 MPI processor grid
  reading atoms ...
  4 atoms
  read_data CPU = 0.001 seconds
WARNING: No fixes defined, atoms won't move (../verlet.cpp:54)
Neighbor list info ...
  update every 1 steps, delay 10 steps, check yes
  max neighbors/atom: 2000, page size: 100000
  master list distance cutoff = 6.5
  ghost atom cutoff = 6.5
  binsize = 3.25, bins = 2 2 2
  1 neighbor lists, perpetual/occasional/extra = 1 0 0
  (1) pair lj/cut, perpetual
      attributes: half, newton on
      pair build: half/bin/atomonly/newton
      stencil: half/bin/3d/newton
      bin: standard
Setting up Verlet run ...
  Unit style    : metal
  Current step  : 0
  Time step     : 0.001
Per MPI rank memory allocation (min/avg/max) = 2.957 | 2.957 | 2.957 Mbytes
Step PotEng Lx Ly Lz Press Pxx Pyy Pzz 
       0   -6.5038906    4.6210526    4.6210526    4.6210526   -133706.43   -133706.43   -133706.43   -133706.43 
Loop time of 0 on 1 procs for 0 steps with 4 atoms

0.0% CPU use with 1 MPI tasks x no OpenMP threads

MPI task timing breakdown:
Section |  min time  |  avg time  |  max time  |%varavg| %total
---------------------------------------------------------------
Pair    | 0          | 0          | 0          |   0.0 |  0.00
Neigh   | 0          | 0          | 0          |   0.0 |  0.00
Comm    | 0          | 0          | 0          |   0.0 |  0.00
Output  | 0          | 0          | 0          |   0.0 |  0.00
Modify  | 0          | 0          | 0          |   0.0 |  0.00
Other   |            | 0          |            |       |  0.00

Nlocal:        4.00000 ave           4 max           4 min
Histogram: 1 0 0 0 0 0 0 0 0 0
Nghost:        168.000 ave         168 max         168 min
Histogram: 1 0 0 0 0 0 0 0 0 0
Neighs:        84.0000 ave          84 max          84 min
Histogram: 1 0 0 0 0 0 0 0 0 0

Total # of neighbors = 84
Ave neighs/atom = 21.000000
Neighbor list builds = 0
Dangerous builds = 0
Total energy (eV) = -6.50389061407985
Number of atoms = 4
Lattice constant (Angstoms) = 4.62105263157895
Total wall time: 0:00:00
