LAMMPS (29 Oct 2020)
Reading data file ...
  orthogonal box = (0.0000000 0.0000000 0.0000000) to (23.136500 23.136500 26.135000)
  1 by 1 by 1 MPI processor grid
  reading atoms ...
  256 atoms
  read_data CPU = 0.001 seconds
Reading eam potential file /home/gridsan/epan1/3320_atomistic_shared/lammps/potentials/Ag_u3.eam with DATE: 2007-06-11
WARNING: No fixes defined, atoms won't move (../verlet.cpp:54)
Neighbor list info ...
  update every 1 steps, delay 10 steps, check yes
  max neighbors/atom: 2000, page size: 100000
  master list distance cutoff = 7.55
  ghost atom cutoff = 7.55
  binsize = 3.775, bins = 7 7 7
  1 neighbor lists, perpetual/occasional/extra = 1 0 0
  (1) pair eam, perpetual
      attributes: half, newton on
      pair build: half/bin/atomonly/newton
      stencil: half/bin/3d/newton
      bin: standard
Setting up Verlet run ...
  Unit style    : metal
  Current step  : 0
  Time step     : 0.001
Per MPI rank memory allocation (min/avg/max) = 3.318 | 3.318 | 3.318 Mbytes
Step PotEng Lx Ly Lz Press Pxx Pyy Pzz 
       0   -682.36128      23.1365      23.1365       26.135   -7623.7665   -9333.6393   -9333.6393   -4204.0208 
Loop time of 0 on 1 procs for 0 steps with 256 atoms

0.0% CPU use with 1 MPI tasks x no OpenMP threads

MPI task timing breakdown:
Section |  min time  |  avg time  |  max time  |%varavg| %total
---------------------------------------------------------------
Pair    | 0          | 0          | 0          |   0.0 |  0.00
Neigh   | 0          | 0          | 0          |   0.0 |  0.00
Comm    | 0          | 0          | 0          |   0.0 |  0.00
Output  | 0          | 0          | 0          |   0.0 |  0.00
Modify  | 0          | 0          | 0          |   0.0 |  0.00
Other   |            | 0          |            |       |  0.00

Nlocal:        256.000 ave         256 max         256 min
Histogram: 1 0 0 0 0 0 0 0 0 0
Nghost:        474.000 ave         474 max         474 min
Histogram: 1 0 0 0 0 0 0 0 0 0
Neighs:        7552.00 ave        7552 max        7552 min
Histogram: 1 0 0 0 0 0 0 0 0 0

Total # of neighbors = 7552
Ave neighs/atom = 29.500000
Neighbor list builds = 0
Dangerous builds = 0
WARNING: Using 'neigh_modify every 1 delay 0 check yes' setting during minimization (../min.cpp:187)
Setting up cg style minimization ...
  Unit style    : metal
  Current step  : 0
WARNING: Energy due to 1 extra global DOFs will be included in minimizer energies
Per MPI rank memory allocation (min/avg/max) = 4.443 | 4.443 | 4.443 Mbytes
Step PotEng Lx Ly Lz Press Pxx Pyy Pzz 
       0   -682.36128      23.1365      23.1365       26.135   -7623.7665   -9333.6393   -9333.6393   -4204.0208 
      53   -683.69216    22.734631    22.734631    25.681049    1.0471038    31.280946    31.280946    -59.42058 
Loop time of 0.0220571 on 1 procs for 53 steps with 256 atoms

99.9% CPU use with 1 MPI tasks x no OpenMP threads

Minimization stats:
  Stopping criterion = energy tolerance
  Energy initial, next-to-last, final = 
     -682.361278024214  -683.692155639978  -683.692155664802
  Force two-norm initial, final = 199.71997 0.030240329
  Force max component initial, final = 199.70931 0.026484938
  Final line search alpha, max atom move = 0.12364993 0.0032748606
  Iterations, force evaluations = 53 91

MPI task timing breakdown:
Section |  min time  |  avg time  |  max time  |%varavg| %total
---------------------------------------------------------------
Pair    | 0.020635   | 0.020635   | 0.020635   |   0.0 | 93.55
Neigh   | 0          | 0          | 0          |   0.0 |  0.00
Comm    | 0.00016403 | 0.00016403 | 0.00016403 |   0.0 |  0.74
Output  | 0          | 0          | 0          |   0.0 |  0.00
Modify  | 0          | 0          | 0          |   0.0 |  0.00
Other   |            | 0.001258   |            |       |  5.71

Nlocal:        256.000 ave         256 max         256 min
Histogram: 1 0 0 0 0 0 0 0 0 0
Nghost:        474.000 ave         474 max         474 min
Histogram: 1 0 0 0 0 0 0 0 0 0
Neighs:        7552.00 ave        7552 max        7552 min
Histogram: 1 0 0 0 0 0 0 0 0 0

Total # of neighbors = 7552
Ave neighs/atom = 29.500000
Neighbor list builds = 0
Dangerous builds = 0
Total energy (eV) = -683.692155664802
Number of atoms = 256
Lattice constant (Angstoms) = 22.734631308083
Total wall time: 0:00:00
