
     Program PWSCF v.7.2 starts on  1Nov2023 at 18: 1:22 

     This program is part of the open-source Quantum ESPRESSO suite
     for quantum simulation of materials; please cite
         "P. Giannozzi et al., J. Phys.:Condens. Matter 21 395502 (2009);
         "P. Giannozzi et al., J. Phys.:Condens. Matter 29 465901 (2017);
         "P. Giannozzi et al., J. Chem. Phys. 152 154105 (2020);
          URL http://www.quantum-espresso.org", 
     in publications or presentations arising from this work. More details at
     http://www.quantum-espresso.org/quote

     Parallel version (MPI), running on     8 processors

     MPI processes distributed on     8 nodes
     186935 MiB available memory on the printing compute node when the environment starts

     Waiting for input...
     Reading input from standard input

     Current dimensions of program PWSCF are:
     Max number of different atomic species (ntypx) = 10
     Max number of k-points (npk) =  40000
     Max angular momentum in pseudopotentials (lmaxx) =  4
     file Fe.pbe-nd-rrkjus.UPF: wavefunction(s)  4S renormalized
     Message from routine find_sym:
     Not a group! Trying with lower acceptance parameter...
     Message from routine find_sym:
     Symmetry operations form a group
     Message from routine setup:
     using ibrav=0 with symmetry is DISCOURAGED, use correct ibrav instead

     R & G space division:  proc/nbgrp/npool/nimage =       8
     Subspace diagonalization in iterative solution of the eigenvalue problem:
     a serial algorithm will be used


     Parallelization info
     --------------------
     sticks:   dense  smooth     PW     G-vecs:    dense   smooth      PW
     Min          45      23      7                 1167      417      81
     Max          46      24      8                 1174      422      84
     Sum         367     187     61                 9369     3357     663

     Using Slab Decomposition



     bravais-lattice index     =            0
     lattice parameter (alat)  =       4.7243  a.u.
     unit-cell volume          =     149.1185 (a.u.)^3
     number of atoms/cell      =            2
     number of atomic types    =            1
     number of electrons       =        16.00
     number of Kohn-Sham states=           12
     kinetic-energy cutoff     =      30.0000  Ry
     charge density cutoff     =     240.0000  Ry
     scf convergence threshold =      1.0E-07
     mixing beta               =       0.5000
     number of iterations used =            8  plain     mixing
     energy convergence thresh.=      1.0E-04
     force convergence thresh. =      1.0E-03
     press convergence thresh. =      5.0E-01
     Exchange-correlation=  SLA  PW   PBE  PBE
                           (   1   4   3   4   0   0   0)
     nstep                     =           50


     celldm(1)=   4.724315  celldm(2)=   0.000000  celldm(3)=   0.000000
     celldm(4)=   0.000000  celldm(5)=   0.000000  celldm(6)=   0.000000

     crystal axes: (cart. coord. in units of alat)
               a(1) = (   1.000000   0.000000   0.000000 )  
               a(2) = (  -0.500000   0.866025   0.000000 )  
               a(3) = (   0.000000   0.000000   1.632993 )  

     reciprocal axes: (cart. coord. in units 2 pi/alat)
               b(1) = (  1.000000  0.577350 -0.000000 )  
               b(2) = (  0.000000  1.154701  0.000000 )  
               b(3) = (  0.000000 -0.000000  0.612372 )  


     PseudoPot. # 1 for Fe read from file:
     /home/gridsan/epan1/labutil/lab3_samples/pseudopotentials/Fe.pbe-nd-rrkjus.UPF
     MD5 check sum: 398036227a04b607635f6f5e8dfd8242
     Pseudo is Ultrasoft + core correction, Zval =  8.0
     Generated by new atomic code, or converted to UPF format
     Using radial grid of  957 points,  6 beta functions with: 
                l(1) =   0
                l(2) =   0
                l(3) =   1
                l(4) =   1
                l(5) =   2
                l(6) =   2
     Q(r) pseudized with 0 coefficients 


     atomic species   valence    mass     pseudopotential
        Fe             8.00    55.84500     Fe( 1.00)

     Starting magnetic structure 
     atomic species   magnetization
        Fe           0.700

      4 Sym. Ops. (no inversion) found



   Cartesian axes

     site n.     atom                  positions (alat units)
         1           Fe  tau(   1) = (   0.0000000   0.0000000   0.0000000  )
         2           Fe  tau(   2) = (  -0.0000000   0.5773520   0.8164960  )

     number of k points=   105  Methfessel-Paxton smearing, width (Ry)=  0.0200

     Number of k-points >= 100: set verbosity='high' to print them.

     Dense  grid:     9369 G-vectors     FFT dimensions: (  24,  24,  40)

     Smooth grid:     3357 G-vectors     FFT dimensions: (  18,  18,  27)

     Estimated max dynamical RAM per process >       9.25 MB

     Estimated total dynamical RAM >      74.04 MB
     Generating pointlists ...
     new r_m :   0.4125 (alat units)  1.9488 (a.u.) for type    1

     Initial potential from superposition of free atoms

     starting charge      15.9987, renormalised to      16.0000
     Starting wfcs are   12 randomized atomic wfcs

     total cpu time spent up to now is        0.8 secs

     Self-consistent Calculation

     iteration #  1     ecut=    30.00 Ry     beta= 0.50
     Davidson diagonalization with overlap
     ethr =  1.00E-02,  avg # of iterations =  3.9

     total cpu time spent up to now is        2.0 secs

     total energy              =    -111.36285799 Ry
     estimated scf accuracy    <       0.50221888 Ry

     total magnetization       =     6.44 Bohr mag/cell
     absolute magnetization    =     6.44 Bohr mag/cell

     iteration #  2     ecut=    30.00 Ry     beta= 0.50
     Davidson diagonalization with overlap
     ethr =  3.14E-03,  avg # of iterations =  1.9

     total cpu time spent up to now is        3.0 secs

     total energy              =    -111.53124742 Ry
     estimated scf accuracy    <       0.04976059 Ry

     total magnetization       =     5.59 Bohr mag/cell
     absolute magnetization    =     5.60 Bohr mag/cell

     iteration #  3     ecut=    30.00 Ry     beta= 0.50
     Davidson diagonalization with overlap
     ethr =  3.11E-04,  avg # of iterations =  1.3

     total cpu time spent up to now is        3.9 secs

     total energy              =    -111.56177787 Ry
     estimated scf accuracy    <       0.01252077 Ry

     total magnetization       =     5.50 Bohr mag/cell
     absolute magnetization    =     5.54 Bohr mag/cell

     iteration #  4     ecut=    30.00 Ry     beta= 0.50
     Davidson diagonalization with overlap
     ethr =  7.83E-05,  avg # of iterations =  1.9

     total cpu time spent up to now is        4.8 secs

     total energy              =    -111.56716345 Ry
     estimated scf accuracy    <       0.00222344 Ry

     total magnetization       =     5.26 Bohr mag/cell
     absolute magnetization    =     5.39 Bohr mag/cell

     iteration #  5     ecut=    30.00 Ry     beta= 0.50
     Davidson diagonalization with overlap
     ethr =  1.39E-05,  avg # of iterations =  2.0

     total cpu time spent up to now is        5.7 secs

     total energy              =    -111.56743845 Ry
     estimated scf accuracy    <       0.00040886 Ry

     total magnetization       =     5.26 Bohr mag/cell
     absolute magnetization    =     5.40 Bohr mag/cell

     iteration #  6     ecut=    30.00 Ry     beta= 0.50
     Davidson diagonalization with overlap
     ethr =  2.56E-06,  avg # of iterations =  3.1

     total cpu time spent up to now is        6.9 secs

     total energy              =    -111.56759282 Ry
     estimated scf accuracy    <       0.00010455 Ry

     total magnetization       =     5.26 Bohr mag/cell
     absolute magnetization    =     5.41 Bohr mag/cell

     iteration #  7     ecut=    30.00 Ry     beta= 0.50
     Davidson diagonalization with overlap
     ethr =  6.53E-07,  avg # of iterations =  3.9

     total cpu time spent up to now is        8.2 secs

     total energy              =    -111.56767856 Ry
     estimated scf accuracy    <       0.00001697 Ry

     total magnetization       =     5.26 Bohr mag/cell
     absolute magnetization    =     5.42 Bohr mag/cell

     iteration #  8     ecut=    30.00 Ry     beta= 0.50
     Davidson diagonalization with overlap
     ethr =  1.06E-07,  avg # of iterations =  5.1

     total cpu time spent up to now is        9.8 secs

     total energy              =    -111.56769749 Ry
     estimated scf accuracy    <       0.00001763 Ry

     total magnetization       =     5.26 Bohr mag/cell
     absolute magnetization    =     5.42 Bohr mag/cell

     iteration #  9     ecut=    30.00 Ry     beta= 0.50
     Davidson diagonalization with overlap
     ethr =  1.06E-07,  avg # of iterations =  1.5

     total cpu time spent up to now is       11.8 secs

     total energy              =    -111.56769947 Ry
     estimated scf accuracy    <       0.00000151 Ry

     total magnetization       =     5.26 Bohr mag/cell
     absolute magnetization    =     5.42 Bohr mag/cell

     iteration # 10     ecut=    30.00 Ry     beta= 0.50
     Davidson diagonalization with overlap
     ethr =  9.47E-09,  avg # of iterations =  5.2

     total cpu time spent up to now is       13.7 secs

     total energy              =    -111.56770093 Ry
     estimated scf accuracy    <       0.00000108 Ry

     total magnetization       =     5.26 Bohr mag/cell
     absolute magnetization    =     5.42 Bohr mag/cell

     iteration # 11     ecut=    30.00 Ry     beta= 0.50
     Davidson diagonalization with overlap
     ethr =  6.75E-09,  avg # of iterations =  1.6

     total cpu time spent up to now is       14.6 secs

     total energy              =    -111.56770099 Ry
     estimated scf accuracy    <       0.00000016 Ry

     total magnetization       =     5.26 Bohr mag/cell
     absolute magnetization    =     5.43 Bohr mag/cell

     iteration # 12     ecut=    30.00 Ry     beta= 0.50
     Davidson diagonalization with overlap
     ethr =  1.02E-09,  avg # of iterations =  4.0

     Magnetic moment per site  (integrated on atomic sphere of radius R)
     atom   1 (R=0.412)  charge=  6.6070  magn=  2.6515
     atom   2 (R=0.412)  charge=  6.6070  magn=  2.6515

     total cpu time spent up to now is       15.9 secs

     End of self-consistent calculation

     Number of k-points >= 100: set verbosity='high' to print the bands.

     the Fermi energy is    14.3469 ev

!    total energy              =    -111.56770107 Ry
     estimated scf accuracy    <          8.5E-09 Ry
     smearing contrib. (-TS)   =       0.00069555 Ry
     internal energy E=F+TS    =    -111.56839662 Ry

     The total energy is F=E-TS. E is the sum of the following terms:
     one-electron contribution =      16.48914705 Ry
     hartree contribution      =      12.83174208 Ry
     xc contribution           =     -53.05477949 Ry
     ewald contribution        =     -87.83450626 Ry

     total magnetization       =     5.26 Bohr mag/cell
     absolute magnetization    =     5.43 Bohr mag/cell

     convergence has been achieved in  12 iterations

     Forces acting on atoms (cartesian axes, Ry/au):

     atom    1 type  1   force =     0.00000000   -0.00000086    0.00000000
     atom    2 type  1   force =     0.00000000    0.00000086    0.00000000
     The non-local contrib.  to forces
     atom    1 type  1   force =     0.00000000   -0.00000032    0.00000000
     atom    2 type  1   force =     0.00000000    0.00000007    0.00000000
     The ionic contribution  to forces
     atom    1 type  1   force =    -0.00000000    0.00000403   -0.00002690
     atom    2 type  1   force =     0.00000000   -0.00000403    0.00002690
     The local contribution  to forces
     atom    1 type  1   force =    -0.00000000   -0.00000493    0.00000000
     atom    2 type  1   force =    -0.00000000    0.00000554    0.00007651
     The core correction contribution to forces
     atom    1 type  1   force =    -0.00000000   -0.00000027    0.00000000
     atom    2 type  1   force =     0.00000000    0.00000032    0.00001273
     The Hubbard contrib.    to forces
     atom    1 type  1   force =     0.00000000    0.00000000    0.00000000
     atom    2 type  1   force =     0.00000000    0.00000000    0.00000000
     The SCF correction term to forces
     atom    1 type  1   force =    -0.00000000    0.00000128   -0.00000000
     atom    2 type  1   force =     0.00000000   -0.00000040    0.00000000

     Total force =     0.000001     Total SCF correction =     0.000001
     SCF correction compared to forces is large: reduce conv_thr to get better values


     Computing stress (Cartesian axis) and pressure

          total   stress  (Ry/bohr**3)                   (kbar)     P=      214.43
   0.00121054   0.00000000   0.00000000          178.08        0.00        0.00
   0.00000000   0.00121052   0.00000000            0.00      178.07        0.00
   0.00000000   0.00000000   0.00195201            0.00        0.00      287.15


     BFGS Geometry Optimization
     Energy error            =      0.0E+00 Ry
     Gradient error          =      8.6E-07 Ry/Bohr
     Cell gradient error     =      2.9E+02 kbar

     number of scf cycles    =   1
     number of bfgs steps    =   0

     enthalpy           new  =    -111.5677010721 Ry

     new trust radius        =       0.1191837117 bohr
     new conv_thr            =       0.0000001000 Ry

     new unit-cell volume =    166.00483 a.u.^3 (    24.59938 Ang^3 )
     density =      7.53944 g/cm^3

CELL_PARAMETERS (angstrom)
   2.575658727  -0.000000000   0.000000000
  -1.287829363   2.230584625   0.000000000
   0.000000000   0.000000000   4.281708656

ATOMIC_POSITIONS (angstrom)
Fe            0.0000000000       -0.0000004703        0.0000000000
Fe            0.0000000000        1.4870613451        2.1408528047



     Writing config-only to output data dir /home/gridsan/epan1/labutil/lab3_samples/problem1/Lab3/Fe_hcp_a_2.5_ecut_30_nk_8/pwscf.save/
     NEW-OLD atomic charge density approx. for the potential

     Check: negative core charge=   -0.000005
     extrapolated charge   17.62742, renormalised to   16.00000
     Generating pointlists ...

     total cpu time spent up to now is       17.8 secs

     Self-consistent Calculation

     iteration #  1     ecut=    30.00 Ry     beta= 0.50
     Davidson diagonalization with overlap
     ethr =  1.00E-06,  avg # of iterations = 12.8

     total cpu time spent up to now is       21.9 secs

     total energy              =    -110.56730053 Ry
     estimated scf accuracy    <       1.03828317 Ry

     total magnetization       =     4.13 Bohr mag/cell
     absolute magnetization    =     4.36 Bohr mag/cell

     iteration #  2     ecut=    30.00 Ry     beta= 0.50
     Davidson diagonalization with overlap
     ethr =  6.49E-03,  avg # of iterations =  3.3

     total cpu time spent up to now is       23.3 secs

     total energy              =    -111.52469036 Ry
     estimated scf accuracy    <       2.26043120 Ry

     total magnetization       =     4.69 Bohr mag/cell
     absolute magnetization    =     4.86 Bohr mag/cell

     iteration #  3     ecut=    30.00 Ry     beta= 0.50
     Davidson diagonalization with overlap
     ethr =  6.49E-03,  avg # of iterations =  1.7

     total cpu time spent up to now is       24.3 secs

     total energy              =    -111.60081064 Ry
     estimated scf accuracy    <       0.44014247 Ry

     total magnetization       =     5.18 Bohr mag/cell
     absolute magnetization    =     5.33 Bohr mag/cell

     iteration #  4     ecut=    30.00 Ry     beta= 0.50
     Davidson diagonalization with overlap
     ethr =  2.75E-03,  avg # of iterations =  1.1

     total cpu time spent up to now is       25.1 secs

     total energy              =    -111.61076483 Ry
     estimated scf accuracy    <       0.17662342 Ry

     total magnetization       =     5.24 Bohr mag/cell
     absolute magnetization    =     5.39 Bohr mag/cell

     iteration #  5     ecut=    30.00 Ry     beta= 0.50
     Davidson diagonalization with overlap
     ethr =  1.10E-03,  avg # of iterations =  1.0

     total cpu time spent up to now is       26.0 secs

     total energy              =    -111.58401521 Ry
     estimated scf accuracy    <       0.16626684 Ry

     total magnetization       =     5.24 Bohr mag/cell
     absolute magnetization    =     5.40 Bohr mag/cell

     iteration #  6     ecut=    30.00 Ry     beta= 0.50
     Davidson diagonalization with overlap
     ethr =  1.04E-03,  avg # of iterations =  1.0

     total cpu time spent up to now is       26.8 secs

     total energy              =    -111.56739130 Ry
     estimated scf accuracy    <       0.06066968 Ry

     total magnetization       =     5.28 Bohr mag/cell
     absolute magnetization    =     5.46 Bohr mag/cell

     iteration #  7     ecut=    30.00 Ry     beta= 0.50
     Davidson diagonalization with overlap
     ethr =  3.79E-04,  avg # of iterations =  2.0

     total cpu time spent up to now is       28.0 secs

     total energy              =    -111.57789967 Ry
     estimated scf accuracy    <       0.00142232 Ry

     total magnetization       =     5.35 Bohr mag/cell
     absolute magnetization    =     5.56 Bohr mag/cell

     iteration #  8     ecut=    30.00 Ry     beta= 0.50
     Davidson diagonalization with overlap
     ethr =  8.89E-06,  avg # of iterations =  4.0

     total cpu time spent up to now is       29.7 secs

     total energy              =    -111.57901138 Ry
     estimated scf accuracy    <       0.00016387 Ry

     total magnetization       =     5.35 Bohr mag/cell
     absolute magnetization    =     5.57 Bohr mag/cell

     iteration #  9     ecut=    30.00 Ry     beta= 0.50
     Davidson diagonalization with overlap
     ethr =  1.02E-06,  avg # of iterations =  3.1

     total cpu time spent up to now is       30.9 secs

     total energy              =    -111.57977649 Ry
     estimated scf accuracy    <       0.00087951 Ry

     total magnetization       =     5.34 Bohr mag/cell
     absolute magnetization    =     5.54 Bohr mag/cell

     iteration # 10     ecut=    30.00 Ry     beta= 0.50
     Davidson diagonalization with overlap
     ethr =  1.02E-06,  avg # of iterations =  3.0

     total cpu time spent up to now is       32.2 secs

     total energy              =    -111.57975939 Ry
     estimated scf accuracy    <       0.00311973 Ry

     total magnetization       =     5.36 Bohr mag/cell
     absolute magnetization    =     5.59 Bohr mag/cell

     iteration # 11     ecut=    30.00 Ry     beta= 0.50
     Davidson diagonalization with overlap
     ethr =  1.02E-06,  avg # of iterations =  2.0

     total cpu time spent up to now is       33.2 secs

     total energy              =    -111.57954846 Ry
     estimated scf accuracy    <       0.00282910 Ry

     total magnetization       =     5.38 Bohr mag/cell
     absolute magnetization    =     5.62 Bohr mag/cell

     iteration # 12     ecut=    30.00 Ry     beta= 0.50
     Davidson diagonalization with overlap
     ethr =  1.02E-06,  avg # of iterations =  1.9

     total cpu time spent up to now is       34.5 secs

     total energy              =    -111.57947206 Ry
     estimated scf accuracy    <       0.00159609 Ry

     total magnetization       =     5.37 Bohr mag/cell
     absolute magnetization    =     5.61 Bohr mag/cell

     iteration # 13     ecut=    30.00 Ry     beta= 0.50
     Davidson diagonalization with overlap
     ethr =  1.02E-06,  avg # of iterations =  1.3

     total cpu time spent up to now is       35.4 secs

     total energy              =    -111.57936070 Ry
     estimated scf accuracy    <       0.00109995 Ry

     total magnetization       =     5.37 Bohr mag/cell
     absolute magnetization    =     5.61 Bohr mag/cell

     iteration # 14     ecut=    30.00 Ry     beta= 0.50
     Davidson diagonalization with overlap
     ethr =  1.02E-06,  avg # of iterations =  1.7

     total cpu time spent up to now is       36.3 secs

     total energy              =    -111.57925002 Ry
     estimated scf accuracy    <       0.00056944 Ry

     total magnetization       =     5.37 Bohr mag/cell
     absolute magnetization    =     5.61 Bohr mag/cell

     iteration # 15     ecut=    30.00 Ry     beta= 0.50
     Davidson diagonalization with overlap
     ethr =  1.02E-06,  avg # of iterations =  2.0

     total cpu time spent up to now is       37.4 secs

     total energy              =    -111.57927000 Ry
     estimated scf accuracy    <       0.00013800 Ry

     total magnetization       =     5.37 Bohr mag/cell
     absolute magnetization    =     5.61 Bohr mag/cell

     iteration # 16     ecut=    30.00 Ry     beta= 0.50
     Davidson diagonalization with overlap
     ethr =  8.62E-07,  avg # of iterations =  1.0

     total cpu time spent up to now is       38.4 secs

     total energy              =    -111.57924872 Ry
     estimated scf accuracy    <       0.00006715 Ry

     total magnetization       =     5.37 Bohr mag/cell
     absolute magnetization    =     5.61 Bohr mag/cell

     iteration # 17     ecut=    30.00 Ry     beta= 0.50
     Davidson diagonalization with overlap
     ethr =  4.20E-07,  avg # of iterations =  2.3

     total cpu time spent up to now is       39.6 secs

     total energy              =    -111.57926680 Ry
     estimated scf accuracy    <       0.00000024 Ry

     total magnetization       =     5.37 Bohr mag/cell
     absolute magnetization    =     5.60 Bohr mag/cell

     iteration # 18     ecut=    30.00 Ry     beta= 0.50
     Davidson diagonalization with overlap
     ethr =  1.48E-09,  avg # of iterations =  6.9

     total cpu time spent up to now is       41.9 secs

     total energy              =    -111.57926759 Ry
     estimated scf accuracy    <       0.00000054 Ry

     total magnetization       =     5.37 Bohr mag/cell
     absolute magnetization    =     5.60 Bohr mag/cell

     iteration # 19     ecut=    30.00 Ry     beta= 0.50
     Davidson diagonalization with overlap
     ethr =  1.48E-09,  avg # of iterations =  3.0

     Magnetic moment per site  (integrated on atomic sphere of radius R)
     atom   1 (R=0.412)  charge=  6.4718  magn=  2.7238
     atom   2 (R=0.412)  charge=  6.4718  magn=  2.7238

     total cpu time spent up to now is       43.1 secs

     End of self-consistent calculation

     Number of k-points >= 100: set verbosity='high' to print the bands.

     the Fermi energy is    12.6346 ev

!    total energy              =    -111.57926773 Ry
     estimated scf accuracy    <       0.00000002 Ry
     smearing contrib. (-TS)   =      -0.00044284 Ry
     internal energy E=F+TS    =    -111.57882490 Ry

     The total energy is F=E-TS. E is the sum of the following terms:
     one-electron contribution =      12.12690579 Ry
     hartree contribution      =      13.95183684 Ry
     xc contribution           =     -52.91156890 Ry
     ewald contribution        =     -84.74599862 Ry

     total magnetization       =     5.37 Bohr mag/cell
     absolute magnetization    =     5.60 Bohr mag/cell

     convergence has been achieved in  19 iterations

     Forces acting on atoms (cartesian axes, Ry/au):

     atom    1 type  1   force =    -0.00000000   -0.00000056    0.00000000
     atom    2 type  1   force =     0.00000000    0.00000056    0.00000000
     The non-local contrib.  to forces
     atom    1 type  1   force =    -0.00000000   -0.00000145    0.00000000
     atom    2 type  1   force =     0.00000000    0.00000150    0.00000000
     The ionic contribution  to forces
     atom    1 type  1   force =    -0.00000000    0.00000317   -0.00002555
     atom    2 type  1   force =     0.00000000   -0.00000317    0.00002555
     The local contribution  to forces
     atom    1 type  1   force =    -0.00000000   -0.00000228    0.00000000
     atom    2 type  1   force =    -0.00000000    0.00000231    0.00008267
     The core correction contribution to forces
     atom    1 type  1   force =    -0.00000000    0.00000006    0.00000001
     atom    2 type  1   force =    -0.00000000   -0.00000006    0.00001346
     The Hubbard contrib.    to forces
     atom    1 type  1   force =     0.00000000    0.00000000    0.00000000
     atom    2 type  1   force =     0.00000000    0.00000000    0.00000000
     The SCF correction term to forces
     atom    1 type  1   force =     0.00000000   -0.00000003   -0.00000000
     atom    2 type  1   force =    -0.00000000    0.00000001    0.00000000

     Total force =     0.000001     Total SCF correction =     0.000000


     Computing stress (Cartesian axis) and pressure

          total   stress  (Ry/bohr**3)                   (kbar)     P=       -3.38
  -0.00020608   0.00000000   0.00000000          -30.32        0.00        0.00
  -0.00000000  -0.00020610   0.00000000           -0.00      -30.32        0.00
   0.00000000   0.00000000   0.00034320            0.00        0.00       50.49

     Energy error            =      1.2E-02 Ry
     Gradient error          =      5.6E-07 Ry/Bohr
     Cell gradient error     =      5.0E+01 kbar

     number of scf cycles    =   2
     number of bfgs steps    =   1

     enthalpy           old  =    -111.5677010721 Ry
     enthalpy           new  =    -111.5792677349 Ry

     CASE: enthalpy          _new < enthalpy          _old

     new trust radius        =       0.0272224531 bohr
     new conv_thr            =       0.0000000010 Ry

     new unit-cell volume =    166.25169 a.u.^3 (    24.63596 Ang^3 )
     density =      7.52825 g/cm^3

CELL_PARAMETERS (angstrom)
   2.564065648  -0.000000000   0.000000000
  -1.282032824   2.220543655   0.000000000
   0.000000000   0.000000000   4.326941511

ATOMIC_POSITIONS (angstrom)
Fe            0.0000000000       -0.0000008038        0.0000000000
Fe            0.0000000000        1.4803676783        2.1634692164



     Writing config-only to output data dir /home/gridsan/epan1/labutil/lab3_samples/problem1/Lab3/Fe_hcp_a_2.5_ecut_30_nk_8/pwscf.save/
     NEW-OLD atomic charge density approx. for the potential

     Check: negative core charge=   -0.000005
     extrapolated charge   16.02376, renormalised to   16.00000
     Generating pointlists ...

     total cpu time spent up to now is       44.0 secs

     Self-consistent Calculation

     iteration #  1     ecut=    30.00 Ry     beta= 0.50
     Davidson diagonalization with overlap
     ethr =  1.00E-06,  avg # of iterations =  5.0

     total cpu time spent up to now is       45.9 secs

     total energy              =    -111.57981253 Ry
     estimated scf accuracy    <       0.00023783 Ry

     total magnetization       =     5.38 Bohr mag/cell
     absolute magnetization    =     5.61 Bohr mag/cell

     iteration #  2     ecut=    30.00 Ry     beta= 0.50
     Davidson diagonalization with overlap
     ethr =  1.49E-06,  avg # of iterations =  3.6

     total cpu time spent up to now is       47.2 secs

     total energy              =    -111.58000439 Ry
     estimated scf accuracy    <       0.00045070 Ry

     total magnetization       =     5.38 Bohr mag/cell
     absolute magnetization    =     5.61 Bohr mag/cell

     iteration #  3     ecut=    30.00 Ry     beta= 0.50
     Davidson diagonalization with overlap
     ethr =  1.49E-06,  avg # of iterations =  1.7

     total cpu time spent up to now is       48.2 secs

     total energy              =    -111.57998474 Ry
     estimated scf accuracy    <       0.00009454 Ry

     total magnetization       =     5.38 Bohr mag/cell
     absolute magnetization    =     5.61 Bohr mag/cell

     iteration #  4     ecut=    30.00 Ry     beta= 0.50
     Davidson diagonalization with overlap
     ethr =  5.91E-07,  avg # of iterations =  3.2

     total cpu time spent up to now is       49.4 secs

     total energy              =    -111.58003153 Ry
     estimated scf accuracy    <       0.00019625 Ry

     total magnetization       =     5.38 Bohr mag/cell
     absolute magnetization    =     5.61 Bohr mag/cell

     iteration #  5     ecut=    30.00 Ry     beta= 0.50
     Davidson diagonalization with overlap
     ethr =  5.91E-07,  avg # of iterations =  1.0

     total cpu time spent up to now is       50.3 secs

     total energy              =    -111.58001454 Ry
     estimated scf accuracy    <       0.00006109 Ry

     total magnetization       =     5.38 Bohr mag/cell
     absolute magnetization    =     5.61 Bohr mag/cell

     iteration #  6     ecut=    30.00 Ry     beta= 0.50
     Davidson diagonalization with overlap
     ethr =  3.82E-07,  avg # of iterations =  2.0

     total cpu time spent up to now is       51.3 secs

     total energy              =    -111.58002600 Ry
     estimated scf accuracy    <       0.00000040 Ry

     total magnetization       =     5.38 Bohr mag/cell
     absolute magnetization    =     5.61 Bohr mag/cell

     iteration #  7     ecut=    30.00 Ry     beta= 0.50
     Davidson diagonalization with overlap
     ethr =  2.53E-09,  avg # of iterations =  4.2

     total cpu time spent up to now is       52.9 secs

     total energy              =    -111.58002664 Ry
     estimated scf accuracy    <       0.00000133 Ry

     total magnetization       =     5.38 Bohr mag/cell
     absolute magnetization    =     5.61 Bohr mag/cell

     iteration #  8     ecut=    30.00 Ry     beta= 0.50
     Davidson diagonalization with overlap
     ethr =  2.53E-09,  avg # of iterations =  2.0

     total cpu time spent up to now is       54.0 secs

     total energy              =    -111.58002662 Ry
     estimated scf accuracy    <       0.00000027 Ry

     total magnetization       =     5.38 Bohr mag/cell
     absolute magnetization    =     5.61 Bohr mag/cell

     iteration #  9     ecut=    30.00 Ry     beta= 0.50
     Davidson diagonalization with overlap
     ethr =  1.71E-09,  avg # of iterations =  2.4

     total cpu time spent up to now is       55.2 secs

     total energy              =    -111.58002670 Ry
     estimated scf accuracy    <          2.6E-09 Ry

     total magnetization       =     5.38 Bohr mag/cell
     absolute magnetization    =     5.61 Bohr mag/cell

     iteration # 10     ecut=    30.00 Ry     beta= 0.50
     Davidson diagonalization with overlap
     ethr =  1.62E-11,  avg # of iterations =  7.7

     total cpu time spent up to now is       57.6 secs

     total energy              =    -111.58002671 Ry
     estimated scf accuracy    <          1.3E-09 Ry

     total magnetization       =     5.38 Bohr mag/cell
     absolute magnetization    =     5.61 Bohr mag/cell

     iteration # 11     ecut=    30.00 Ry     beta= 0.50
     Davidson diagonalization with overlap
     ethr =  8.01E-12,  avg # of iterations =  3.5

     Magnetic moment per site  (integrated on atomic sphere of radius R)
     atom   1 (R=0.412)  charge=  6.4713  magn=  2.7294
     atom   2 (R=0.412)  charge=  6.4713  magn=  2.7294

     total cpu time spent up to now is       59.0 secs

     End of self-consistent calculation

     Number of k-points >= 100: set verbosity='high' to print the bands.

     the Fermi energy is    12.5990 ev

!    total energy              =    -111.58002672 Ry
     estimated scf accuracy    <          1.0E-09 Ry
     smearing contrib. (-TS)   =      -0.00045280 Ry
     internal energy E=F+TS    =    -111.57957392 Ry

     The total energy is F=E-TS. E is the sum of the following terms:
     one-electron contribution =      12.05115196 Ry
     hartree contribution      =      13.97701665 Ry
     xc contribution           =     -52.91260211 Ry
     ewald contribution        =     -84.69514042 Ry

     total magnetization       =     5.38 Bohr mag/cell
     absolute magnetization    =     5.61 Bohr mag/cell

     convergence has been achieved in  11 iterations

     Forces acting on atoms (cartesian axes, Ry/au):

     atom    1 type  1   force =    -0.00000000   -0.00000083    0.00000000
     atom    2 type  1   force =     0.00000000    0.00000083    0.00000000
     The non-local contrib.  to forces
     atom    1 type  1   force =    -0.00000000   -0.00000187    0.00000000
     atom    2 type  1   force =     0.00000000    0.00000193    0.00000000
     The ionic contribution  to forces
     atom    1 type  1   force =     0.00000000    0.00000262   -0.00002595
     atom    2 type  1   force =     0.00000000   -0.00000262    0.00002595
     The local contribution  to forces
     atom    1 type  1   force =    -0.00000000   -0.00000166   -0.00000000
     atom    2 type  1   force =    -0.00000000    0.00000163    0.00008399
     The core correction contribution to forces
     atom    1 type  1   force =    -0.00000000    0.00000008    0.00000002
     atom    2 type  1   force =    -0.00000000   -0.00000008    0.00001362
     The Hubbard contrib.    to forces
     atom    1 type  1   force =     0.00000000    0.00000000    0.00000000
     atom    2 type  1   force =     0.00000000    0.00000000    0.00000000
     The SCF correction term to forces
     atom    1 type  1   force =     0.00000000    0.00000002    0.00000000
     atom    2 type  1   force =     0.00000000   -0.00000001   -0.00000000

     Total force =     0.000001     Total SCF correction =     0.000000


     Computing stress (Cartesian axis) and pressure

          total   stress  (Ry/bohr**3)                   (kbar)     P=       -4.40
  -0.00015195  -0.00000000   0.00000000          -22.35       -0.00        0.00
  -0.00000000  -0.00015197   0.00000000           -0.00      -22.36        0.00
   0.00000000   0.00000000   0.00021413            0.00        0.00       31.50

     Energy error            =      7.6E-04 Ry
     Gradient error          =      8.3E-07 Ry/Bohr
     Cell gradient error     =      3.1E+01 kbar

     number of scf cycles    =   3
     number of bfgs steps    =   2

     enthalpy           old  =    -111.5792677349 Ry
     enthalpy           new  =    -111.5800267153 Ry

     CASE: enthalpy          _new < enthalpy          _old

     new trust radius        =       0.0404368463 bohr
     new conv_thr            =       0.0000000010 Ry

     new unit-cell volume =    166.12329 a.u.^3 (    24.61693 Ang^3 )
     density =      7.53407 g/cm^3

CELL_PARAMETERS (angstrom)
   2.543215469  -0.000000000   0.000000000
  -1.271607734   2.202483011   0.000000000
   0.000000000   0.000000000   4.394790795

ATOMIC_POSITIONS (angstrom)
Fe            0.0000000000       -0.0000019315        0.0000000000
Fe            0.0000000000        1.4683283409        2.1973938341



     Writing config-only to output data dir /home/gridsan/epan1/labutil/lab3_samples/problem1/Lab3/Fe_hcp_a_2.5_ecut_30_nk_8/pwscf.save/
     NEW-OLD atomic charge density approx. for the potential

     Check: negative core charge=   -0.000005
     extrapolated charge   15.98763, renormalised to   16.00000
     Generating pointlists ...

     total cpu time spent up to now is       59.8 secs

     Self-consistent Calculation

     iteration #  1     ecut=    30.00 Ry     beta= 0.50
     Davidson diagonalization with overlap
     ethr =  1.00E-06,  avg # of iterations =  5.7

     total cpu time spent up to now is       61.8 secs

     total energy              =    -111.58042774 Ry
     estimated scf accuracy    <       0.00022272 Ry

     total magnetization       =     5.39 Bohr mag/cell
     absolute magnetization    =     5.61 Bohr mag/cell

     iteration #  2     ecut=    30.00 Ry     beta= 0.50
     Davidson diagonalization with overlap
     ethr =  1.39E-06,  avg # of iterations =  2.9

     total cpu time spent up to now is       63.0 secs

     total energy              =    -111.58051877 Ry
     estimated scf accuracy    <       0.00016014 Ry

     total magnetization       =     5.39 Bohr mag/cell
     absolute magnetization    =     5.61 Bohr mag/cell

     iteration #  3     ecut=    30.00 Ry     beta= 0.50
     Davidson diagonalization with overlap
     ethr =  1.00E-06,  avg # of iterations =  1.5

     total cpu time spent up to now is       63.9 secs

     total energy              =    -111.58053361 Ry
     estimated scf accuracy    <       0.00002483 Ry

     total magnetization       =     5.39 Bohr mag/cell
     absolute magnetization    =     5.61 Bohr mag/cell

     iteration #  4     ecut=    30.00 Ry     beta= 0.50
     Davidson diagonalization with overlap
     ethr =  1.55E-07,  avg # of iterations =  3.3

     total cpu time spent up to now is       65.6 secs

     total energy              =    -111.58054673 Ry
     estimated scf accuracy    <       0.00002383 Ry

     total magnetization       =     5.40 Bohr mag/cell
     absolute magnetization    =     5.61 Bohr mag/cell

     iteration #  5     ecut=    30.00 Ry     beta= 0.50
     Davidson diagonalization with overlap
     ethr =  1.49E-07,  avg # of iterations =  1.0

     total cpu time spent up to now is       66.4 secs

     total energy              =    -111.58053967 Ry
     estimated scf accuracy    <       0.00002555 Ry

     total magnetization       =     5.40 Bohr mag/cell
     absolute magnetization    =     5.61 Bohr mag/cell

     iteration #  6     ecut=    30.00 Ry     beta= 0.50
     Davidson diagonalization with overlap
     ethr =  1.49E-07,  avg # of iterations =  2.4

     total cpu time spent up to now is       67.6 secs

     total energy              =    -111.58054488 Ry
     estimated scf accuracy    <       0.00001061 Ry

     total magnetization       =     5.40 Bohr mag/cell
     absolute magnetization    =     5.61 Bohr mag/cell

     iteration #  7     ecut=    30.00 Ry     beta= 0.50
     Davidson diagonalization with overlap
     ethr =  6.63E-08,  avg # of iterations =  1.4

     total cpu time spent up to now is       68.5 secs

     total energy              =    -111.58054625 Ry
     estimated scf accuracy    <       0.00000024 Ry

     total magnetization       =     5.40 Bohr mag/cell
     absolute magnetization    =     5.61 Bohr mag/cell

     iteration #  8     ecut=    30.00 Ry     beta= 0.50
     Davidson diagonalization with overlap
     ethr =  1.50E-09,  avg # of iterations =  4.1

     total cpu time spent up to now is       70.1 secs

     total energy              =    -111.58054650 Ry
     estimated scf accuracy    <       0.00000022 Ry

     total magnetization       =     5.40 Bohr mag/cell
     absolute magnetization    =     5.61 Bohr mag/cell

     iteration #  9     ecut=    30.00 Ry     beta= 0.50
     Davidson diagonalization with overlap
     ethr =  1.39E-09,  avg # of iterations =  1.5

     total cpu time spent up to now is       71.2 secs

     total energy              =    -111.58054653 Ry
     estimated scf accuracy    <       0.00000004 Ry

     total magnetization       =     5.40 Bohr mag/cell
     absolute magnetization    =     5.61 Bohr mag/cell

     iteration # 10     ecut=    30.00 Ry     beta= 0.50
     Davidson diagonalization with overlap
     ethr =  2.43E-10,  avg # of iterations =  3.3

     total cpu time spent up to now is       72.4 secs

     total energy              =    -111.58054653 Ry
     estimated scf accuracy    <       0.00000001 Ry

     total magnetization       =     5.40 Bohr mag/cell
     absolute magnetization    =     5.61 Bohr mag/cell

     iteration # 11     ecut=    30.00 Ry     beta= 0.50
     Davidson diagonalization with overlap
     ethr =  8.59E-11,  avg # of iterations =  3.8

     total cpu time spent up to now is       73.8 secs

     total energy              =    -111.58054654 Ry
     estimated scf accuracy    <          1.4E-09 Ry

     total magnetization       =     5.40 Bohr mag/cell
     absolute magnetization    =     5.61 Bohr mag/cell

     iteration # 12     ecut=    30.00 Ry     beta= 0.50
     Davidson diagonalization with overlap
     ethr =  8.69E-12,  avg # of iterations =  4.9

     Magnetic moment per site  (integrated on atomic sphere of radius R)
     atom   1 (R=0.412)  charge=  6.4751  magn=  2.7322
     atom   2 (R=0.412)  charge=  6.4750  magn=  2.7322

     total cpu time spent up to now is       75.4 secs

     End of self-consistent calculation

     Number of k-points >= 100: set verbosity='high' to print the bands.

     the Fermi energy is    12.5895 ev

!    total energy              =    -111.58054654 Ry
     estimated scf accuracy    <          2.4E-10 Ry
     smearing contrib. (-TS)   =      -0.00044702 Ry
     internal energy E=F+TS    =    -111.58009952 Ry

     The total energy is F=E-TS. E is the sum of the following terms:
     one-electron contribution =      12.03296086 Ry
     hartree contribution      =      13.99584979 Ry
     xc contribution           =     -52.91834967 Ry
     ewald contribution        =     -84.69056051 Ry

     total magnetization       =     5.40 Bohr mag/cell
     absolute magnetization    =     5.61 Bohr mag/cell

     convergence has been achieved in  12 iterations

     Forces acting on atoms (cartesian axes, Ry/au):

     atom    1 type  1   force =    -0.00000000   -0.00000087    0.00000000
     atom    2 type  1   force =     0.00000000    0.00000087    0.00000000
     The non-local contrib.  to forces
     atom    1 type  1   force =    -0.00000000   -0.00000308    0.00000000
     atom    2 type  1   force =     0.00000000    0.00000313    0.00000000
     The ionic contribution  to forces
     atom    1 type  1   force =     0.00000000    0.00000119   -0.00002663
     atom    2 type  1   force =     0.00000000   -0.00000119    0.00002663
     The local contribution  to forces
     atom    1 type  1   force =     0.00000000    0.00000080    0.00000000
     atom    2 type  1   force =    -0.00000000   -0.00000080    0.00008602
     The core correction contribution to forces
     atom    1 type  1   force =    -0.00000000    0.00000022    0.00000002
     atom    2 type  1   force =    -0.00000000   -0.00000022    0.00001386
     The Hubbard contrib.    to forces
     atom    1 type  1   force =     0.00000000    0.00000000    0.00000000
     atom    2 type  1   force =     0.00000000    0.00000000    0.00000000
     The SCF correction term to forces
     atom    1 type  1   force =     0.00000000    0.00000002    0.00000000
     atom    2 type  1   force =    -0.00000000   -0.00000004   -0.00000000

     Total force =     0.000001     Total SCF correction =     0.000000


     Computing stress (Cartesian axis) and pressure

          total   stress  (Ry/bohr**3)                   (kbar)     P=       -0.13
  -0.00000658  -0.00000000   0.00000000           -0.97       -0.00        0.00
  -0.00000000  -0.00000661   0.00000000           -0.00       -0.97        0.00
   0.00000000   0.00000000   0.00001059            0.00        0.00        1.56

     Energy error            =      5.2E-04 Ry
     Gradient error          =      8.7E-07 Ry/Bohr
     Cell gradient error     =      1.6E+00 kbar

     number of scf cycles    =   4
     number of bfgs steps    =   3

     enthalpy           old  =    -111.5800267153 Ry
     enthalpy           new  =    -111.5805465391 Ry

     CASE: enthalpy          _new < enthalpy          _old

     new trust radius        =       0.0019802132 bohr
     new conv_thr            =       0.0000000010 Ry

     new unit-cell volume =    166.12112 a.u.^3 (    24.61661 Ang^3 )
     density =      7.53417 g/cm^3

CELL_PARAMETERS (angstrom)
   2.542223931  -0.000000000   0.000000000
  -1.271111965   2.201621908   0.000000000
   0.000000000   0.000000000   4.398166814

ATOMIC_POSITIONS (angstrom)
Fe            0.0000000000       -0.0000024621        0.0000000000
Fe            0.0000000000        1.4677548011        2.1990818425



     Writing config-only to output data dir /home/gridsan/epan1/labutil/lab3_samples/problem1/Lab3/Fe_hcp_a_2.5_ecut_30_nk_8/pwscf.save/
     NEW-OLD atomic charge density approx. for the potential

     Check: negative core charge=   -0.000005
     extrapolated charge   15.99979, renormalised to   16.00000
     Generating pointlists ...

     total cpu time spent up to now is       76.3 secs

     Self-consistent Calculation

     iteration #  1     ecut=    30.00 Ry     beta= 0.50
     Davidson diagonalization with overlap
     ethr =  1.00E-06,  avg # of iterations =  2.0

     Threshold (ethr) on eigenvalues was too large:
     Diagonalizing with lowered threshold

     Davidson diagonalization with overlap
     ethr =  1.55E-09,  avg # of iterations =  3.9

     total cpu time spent up to now is       78.8 secs

     total energy              =    -111.58054746 Ry
     estimated scf accuracy    <       0.00000030 Ry

     total magnetization       =     5.40 Bohr mag/cell
     absolute magnetization    =     5.61 Bohr mag/cell

     iteration #  2     ecut=    30.00 Ry     beta= 0.50
     Davidson diagonalization with overlap
     ethr =  1.87E-09,  avg # of iterations =  2.0

     total cpu time spent up to now is       79.8 secs

     total energy              =    -111.58054752 Ry
     estimated scf accuracy    <       0.00000011 Ry

     total magnetization       =     5.40 Bohr mag/cell
     absolute magnetization    =     5.61 Bohr mag/cell

     iteration #  3     ecut=    30.00 Ry     beta= 0.50
     Davidson diagonalization with overlap
     ethr =  6.98E-10,  avg # of iterations =  1.8

     total cpu time spent up to now is       80.8 secs

     total energy              =    -111.58054748 Ry
     estimated scf accuracy    <       0.00000065 Ry

     total magnetization       =     5.40 Bohr mag/cell
     absolute magnetization    =     5.61 Bohr mag/cell

     iteration #  4     ecut=    30.00 Ry     beta= 0.50
     Davidson diagonalization with overlap
     ethr =  6.98E-10,  avg # of iterations =  1.1

     total cpu time spent up to now is       81.6 secs

     total energy              =    -111.58054755 Ry
     estimated scf accuracy    <       0.00000012 Ry

     total magnetization       =     5.40 Bohr mag/cell
     absolute magnetization    =     5.61 Bohr mag/cell

     iteration #  5     ecut=    30.00 Ry     beta= 0.50
     Davidson diagonalization with overlap
     ethr =  6.98E-10,  avg # of iterations =  1.0

     total cpu time spent up to now is       82.5 secs

     total energy              =    -111.58054756 Ry
     estimated scf accuracy    <          3.4E-09 Ry

     total magnetization       =     5.40 Bohr mag/cell
     absolute magnetization    =     5.61 Bohr mag/cell

     iteration #  6     ecut=    30.00 Ry     beta= 0.50
     Davidson diagonalization with overlap
     ethr =  2.10E-11,  avg # of iterations =  3.1

     Magnetic moment per site  (integrated on atomic sphere of radius R)
     atom   1 (R=0.412)  charge=  6.4752  magn=  2.7323
     atom   2 (R=0.412)  charge=  6.4752  magn=  2.7323

     total cpu time spent up to now is       83.7 secs

     End of self-consistent calculation

     Number of k-points >= 100: set verbosity='high' to print the bands.

     the Fermi energy is    12.5888 ev

!    total energy              =    -111.58054756 Ry
     estimated scf accuracy    <          5.6E-10 Ry
     smearing contrib. (-TS)   =      -0.00044635 Ry
     internal energy E=F+TS    =    -111.58010122 Ry

     The total energy is F=E-TS. E is the sum of the following terms:
     one-electron contribution =      12.03044122 Ry
     hartree contribution      =      13.99725976 Ry
     xc contribution           =     -52.91856454 Ry
     ewald contribution        =     -84.68923765 Ry

     total magnetization       =     5.40 Bohr mag/cell
     absolute magnetization    =     5.61 Bohr mag/cell

     convergence has been achieved in   6 iterations

     Forces acting on atoms (cartesian axes, Ry/au):

     atom    1 type  1   force =    -0.00000000   -0.00000058    0.00000000
     atom    2 type  1   force =     0.00000000    0.00000058    0.00000000
     The non-local contrib.  to forces
     atom    1 type  1   force =    -0.00000000   -0.00000397    0.00000000
     atom    2 type  1   force =     0.00000000    0.00000408    0.00000000
     The ionic contribution  to forces
     atom    1 type  1   force =     0.00000000    0.00000029   -0.00002666
     atom    2 type  1   force =     0.00000000   -0.00000029    0.00002666
     The local contribution  to forces
     atom    1 type  1   force =     0.00000000    0.00000259    0.00000000
     atom    2 type  1   force =    -0.00000000   -0.00000268    0.00008612
     The core correction contribution to forces
     atom    1 type  1   force =    -0.00000000    0.00000036    0.00000002
     atom    2 type  1   force =    -0.00000000   -0.00000036    0.00001387
     The Hubbard contrib.    to forces
     atom    1 type  1   force =     0.00000000    0.00000000    0.00000000
     atom    2 type  1   force =     0.00000000    0.00000000    0.00000000
     The SCF correction term to forces
     atom    1 type  1   force =    -0.00000000    0.00000016   -0.00000000
     atom    2 type  1   force =     0.00000000   -0.00000015    0.00000000

     Total force =     0.000001     Total SCF correction =     0.000000
     SCF correction compared to forces is large: reduce conv_thr to get better values


     Computing stress (Cartesian axis) and pressure

          total   stress  (Ry/bohr**3)                   (kbar)     P=       -0.35
  -0.00000191  -0.00000000   0.00000000           -0.28       -0.00        0.00
   0.00000000  -0.00000195   0.00000000            0.00       -0.29        0.00
   0.00000000   0.00000000  -0.00000329            0.00        0.00       -0.48

     Energy error            =      1.0E-06 Ry
     Gradient error          =      5.8E-07 Ry/Bohr
     Cell gradient error     =      4.8E-01 kbar

     bfgs converged in   5 scf cycles and   4 bfgs steps
     (criteria: energy <  1.0E-04 Ry, force <  1.0E-03 Ry/Bohr, cell <  5.0E-01 kbar)

     End of BFGS Geometry Optimization

     Final enthalpy           =    -111.5805475638 Ry

     File /home/gridsan/epan1/labutil/lab3_samples/problem1/Lab3/Fe_hcp_a_2.5_ecut_30_nk_8/pwscf.bfgs deleted, as requested
Begin final coordinates
     new unit-cell volume =    166.12112 a.u.^3 (    24.61661 Ang^3 )
     density =      7.53417 g/cm^3

CELL_PARAMETERS (angstrom)
   2.542223931  -0.000000000   0.000000000
  -1.271111965   2.201621908   0.000000000
   0.000000000   0.000000000   4.398166814

ATOMIC_POSITIONS (angstrom)
Fe            0.0000000000       -0.0000024621        0.0000000000
Fe            0.0000000000        1.4677548011        2.1990818425
End final coordinates



     Writing config-only to output data dir /home/gridsan/epan1/labutil/lab3_samples/problem1/Lab3/Fe_hcp_a_2.5_ecut_30_nk_8/pwscf.save/

     Final scf calculation at the relaxed structure.
     The G-vectors are recalculated for the final unit cell
     Results may differ from those at the preceding step.

     Parallelization info
     --------------------
     sticks:   dense  smooth     PW     G-vecs:    dense   smooth      PW
     Min          47      24      7                 1295      464      87
     Max          48      26      8                 1300      466      92
     Sum         379     199     61                10379     3719     713

     Using Slab Decomposition



     bravais-lattice index     =            0
     lattice parameter (alat)  =       4.7243  a.u.
     unit-cell volume          =     166.1211 (a.u.)^3
     number of atoms/cell      =            2
     number of atomic types    =            1
     number of electrons       =        16.00
     number of Kohn-Sham states=           12
     kinetic-energy cutoff     =      30.0000  Ry
     charge density cutoff     =     240.0000  Ry
     scf convergence threshold =      1.0E-09
     mixing beta               =       0.5000
     number of iterations used =            8  plain     mixing
     press convergence thresh. =      5.0E-01
     Exchange-correlation=  SLA  PW   PBE  PBE
                           (   1   4   3   4   0   0   0)

     celldm(1)=   4.724315  celldm(2)=   0.000000  celldm(3)=   0.000000
     celldm(4)=   0.000000  celldm(5)=   0.000000  celldm(6)=   0.000000

     crystal axes: (cart. coord. in units of alat)
               a(1) = (   1.016890  -0.000000   0.000000 )  
               a(2) = (  -0.508445   0.880649   0.000000 )  
               a(3) = (   0.000000   0.000000   1.759267 )  

     reciprocal axes: (cart. coord. in units 2 pi/alat)
               b(1) = (  0.983391  0.567763 -0.000000 )  
               b(2) = (  0.000000  1.135526 -0.000000 )  
               b(3) = ( -0.000000 -0.000000  0.568419 )  


     PseudoPot. # 1 for Fe read from file:
     /home/gridsan/epan1/labutil/lab3_samples/pseudopotentials/Fe.pbe-nd-rrkjus.UPF
     MD5 check sum: 398036227a04b607635f6f5e8dfd8242
     Pseudo is Ultrasoft + core correction, Zval =  8.0
     Generated by new atomic code, or converted to UPF format
     Using radial grid of  957 points,  6 beta functions with: 
                l(1) =   0
                l(2) =   0
                l(3) =   1
                l(4) =   1
                l(5) =   2
                l(6) =   2
     Q(r) pseudized with 0 coefficients 


     atomic species   valence    mass     pseudopotential
        Fe             8.00    55.84500     Fe( 1.00)

     Starting magnetic structure 
     atomic species   magnetization
        Fe           0.422

      4 Sym. Ops. (no inversion) found



   Cartesian axes

     site n.     atom                  positions (alat units)
         1           Fe  tau(   1) = (   0.0000000  -0.0000010   0.0000000  )
         2           Fe  tau(   2) = (   0.0000000   0.5871019   0.8796327  )

     number of k points=   105  Methfessel-Paxton smearing, width (Ry)=  0.0200

     Number of k-points >= 100: set verbosity='high' to print them.

     Dense  grid:    10379 G-vectors     FFT dimensions: (  24,  24,  45)

     Smooth grid:     3719 G-vectors     FFT dimensions: (  18,  18,  30)

     Estimated max dynamical RAM per process >      10.04 MB

     Estimated total dynamical RAM >      80.29 MB
     Generating pointlists ...

     Initial potential from superposition of free atoms

     starting charge      15.9987, renormalised to      16.0000
     Starting wfcs are   12 randomized atomic wfcs

     total cpu time spent up to now is       84.8 secs

     Self-consistent Calculation

     iteration #  1     ecut=    30.00 Ry     beta= 0.50
     Davidson diagonalization with overlap
     c_bands:  1 eigenvalues not converged
     c_bands:  1 eigenvalues not converged
     c_bands:  1 eigenvalues not converged
     c_bands:  1 eigenvalues not converged
     c_bands:  1 eigenvalues not converged
     c_bands:  1 eigenvalues not converged
     c_bands:  1 eigenvalues not converged
     c_bands:  1 eigenvalues not converged
     c_bands:  1 eigenvalues not converged
     c_bands:  1 eigenvalues not converged
     c_bands:  1 eigenvalues not converged
     c_bands:  1 eigenvalues not converged
     c_bands:  1 eigenvalues not converged
     c_bands:  1 eigenvalues not converged
     c_bands:  1 eigenvalues not converged
     c_bands:  1 eigenvalues not converged
     c_bands:  1 eigenvalues not converged
     ethr =  1.00E-06,  avg # of iterations = 15.5

     total cpu time spent up to now is       89.4 secs

     total energy              =    -111.31212971 Ry
     estimated scf accuracy    <       0.69863788 Ry

     total magnetization       =     5.18 Bohr mag/cell
     absolute magnetization    =     5.18 Bohr mag/cell

     iteration #  2     ecut=    30.00 Ry     beta= 0.50
     Davidson diagonalization with overlap
     ethr =  4.37E-03,  avg # of iterations =  2.3

     total cpu time spent up to now is       90.6 secs

     total energy              =    -111.55059212 Ry
     estimated scf accuracy    <       0.14805043 Ry

     total magnetization       =     5.34 Bohr mag/cell
     absolute magnetization    =     5.36 Bohr mag/cell

     iteration #  3     ecut=    30.00 Ry     beta= 0.50
     Davidson diagonalization with overlap
     ethr =  9.25E-04,  avg # of iterations =  1.4

     total cpu time spent up to now is       91.5 secs

     total energy              =    -111.57273216 Ry
     estimated scf accuracy    <       0.00979384 Ry

     total magnetization       =     5.40 Bohr mag/cell
     absolute magnetization    =     5.44 Bohr mag/cell

     iteration #  4     ecut=    30.00 Ry     beta= 0.50
     Davidson diagonalization with overlap
     ethr =  6.12E-05,  avg # of iterations =  3.3

     total cpu time spent up to now is       92.8 secs

     total energy              =    -111.57662616 Ry
     estimated scf accuracy    <       0.00888085 Ry

     total magnetization       =     5.40 Bohr mag/cell
     absolute magnetization    =     5.53 Bohr mag/cell

     iteration #  5     ecut=    30.00 Ry     beta= 0.50
     Davidson diagonalization with overlap
     ethr =  5.55E-05,  avg # of iterations =  2.6

     total cpu time spent up to now is       93.9 secs

     total energy              =    -111.58153434 Ry
     estimated scf accuracy    <       0.00895098 Ry

     total magnetization       =     5.38 Bohr mag/cell
     absolute magnetization    =     5.58 Bohr mag/cell

     iteration #  6     ecut=    30.00 Ry     beta= 0.50
     Davidson diagonalization with overlap
     ethr =  5.55E-05,  avg # of iterations =  1.0

     total cpu time spent up to now is       96.0 secs

     total energy              =    -111.58038162 Ry
     estimated scf accuracy    <       0.00471684 Ry

     total magnetization       =     5.38 Bohr mag/cell
     absolute magnetization    =     5.59 Bohr mag/cell

     iteration #  7     ecut=    30.00 Ry     beta= 0.50
     Davidson diagonalization with overlap
     ethr =  2.95E-05,  avg # of iterations =  1.0

     total cpu time spent up to now is       96.9 secs

     total energy              =    -111.58063444 Ry
     estimated scf accuracy    <       0.00046665 Ry

     total magnetization       =     5.39 Bohr mag/cell
     absolute magnetization    =     5.60 Bohr mag/cell

     iteration #  8     ecut=    30.00 Ry     beta= 0.50
     Davidson diagonalization with overlap
     ethr =  2.92E-06,  avg # of iterations =  2.4

     total cpu time spent up to now is       98.0 secs

     total energy              =    -111.58079367 Ry
     estimated scf accuracy    <       0.00000379 Ry

     total magnetization       =     5.39 Bohr mag/cell
     absolute magnetization    =     5.60 Bohr mag/cell

     iteration #  9     ecut=    30.00 Ry     beta= 0.50
     Davidson diagonalization with overlap
     ethr =  2.37E-08,  avg # of iterations =  7.6

     total cpu time spent up to now is      100.4 secs

     total energy              =    -111.58079982 Ry
     estimated scf accuracy    <       0.00002045 Ry

     total magnetization       =     5.39 Bohr mag/cell
     absolute magnetization    =     5.61 Bohr mag/cell

     iteration # 10     ecut=    30.00 Ry     beta= 0.50
     Davidson diagonalization with overlap
     ethr =  2.37E-08,  avg # of iterations =  4.2

     total cpu time spent up to now is      102.7 secs

     total energy              =    -111.58080776 Ry
     estimated scf accuracy    <       0.00000649 Ry

     total magnetization       =     5.40 Bohr mag/cell
     absolute magnetization    =     5.61 Bohr mag/cell

     iteration # 11     ecut=    30.00 Ry     beta= 0.50
     Davidson diagonalization with overlap
     ethr =  2.37E-08,  avg # of iterations =  1.0

     total cpu time spent up to now is      103.5 secs

     total energy              =    -111.58080692 Ry
     estimated scf accuracy    <       0.00000252 Ry

     total magnetization       =     5.40 Bohr mag/cell
     absolute magnetization    =     5.61 Bohr mag/cell

     iteration # 12     ecut=    30.00 Ry     beta= 0.50
     Davidson diagonalization with overlap
     ethr =  1.58E-08,  avg # of iterations =  2.0

     total cpu time spent up to now is      104.5 secs

     total energy              =    -111.58080736 Ry
     estimated scf accuracy    <       0.00000004 Ry

     total magnetization       =     5.40 Bohr mag/cell
     absolute magnetization    =     5.61 Bohr mag/cell

     iteration # 13     ecut=    30.00 Ry     beta= 0.50
     Davidson diagonalization with overlap
     ethr =  2.57E-10,  avg # of iterations =  5.9

     total cpu time spent up to now is      106.9 secs

     total energy              =    -111.58080746 Ry
     estimated scf accuracy    <       0.00000004 Ry

     total magnetization       =     5.40 Bohr mag/cell
     absolute magnetization    =     5.61 Bohr mag/cell

     iteration # 14     ecut=    30.00 Ry     beta= 0.50
     Davidson diagonalization with overlap
     ethr =  2.54E-10,  avg # of iterations =  1.1

     total cpu time spent up to now is      107.8 secs

     total energy              =    -111.58080746 Ry
     estimated scf accuracy    <          9.8E-09 Ry

     total magnetization       =     5.40 Bohr mag/cell
     absolute magnetization    =     5.61 Bohr mag/cell

     iteration # 15     ecut=    30.00 Ry     beta= 0.50
     Davidson diagonalization with overlap
     ethr =  6.13E-11,  avg # of iterations =  2.9

     Magnetic moment per site  (integrated on atomic sphere of radius R)
     atom   1 (R=0.412)  charge=  6.4759  magn=  2.7321
     atom   2 (R=0.412)  charge=  6.4753  magn=  2.7320

     total cpu time spent up to now is      109.0 secs

     End of self-consistent calculation

     Number of k-points >= 100: set verbosity='high' to print the bands.

     the Fermi energy is    12.5863 ev

!    total energy              =    -111.58080746 Ry
     estimated scf accuracy    <          1.4E-11 Ry
     smearing contrib. (-TS)   =      -0.00044516 Ry
     internal energy E=F+TS    =    -111.58036231 Ry

     The total energy is F=E-TS. E is the sum of the following terms:
     one-electron contribution =      12.02971213 Ry
     hartree contribution      =      13.99581278 Ry
     xc contribution           =     -52.91664964 Ry
     ewald contribution        =     -84.68923758 Ry

     total magnetization       =     5.40 Bohr mag/cell
     absolute magnetization    =     5.61 Bohr mag/cell

     convergence has been achieved in  15 iterations

     Forces acting on atoms (cartesian axes, Ry/au):

     atom    1 type  1   force =    -0.00000000   -0.00000108    0.00000000
     atom    2 type  1   force =     0.00000000    0.00000108    0.00000000
     The non-local contrib.  to forces
     atom    1 type  1   force =    -0.00000000   -0.00000372    0.00000000
     atom    2 type  1   force =     0.00000000    0.00000398    0.00000000
     The ionic contribution  to forces
     atom    1 type  1   force =     0.00000000    0.00000029   -0.00002666
     atom    2 type  1   force =    -0.00000000   -0.00000029    0.00002666
     The local contribution  to forces
     atom    1 type  1   force =    -0.00000000    0.00000193   -0.00000000
     atom    2 type  1   force =    -0.00000000   -0.00000235    0.00008610
     The core correction contribution to forces
     atom    1 type  1   force =    -0.00000000    0.00000024   -0.00000000
     atom    2 type  1   force =    -0.00000000   -0.00000029    0.00001387
     The Hubbard contrib.    to forces
     atom    1 type  1   force =     0.00000000    0.00000000    0.00000000
     atom    2 type  1   force =     0.00000000    0.00000000    0.00000000
     The SCF correction term to forces
     atom    1 type  1   force =    -0.00000000   -0.00000001   -0.00000000
     atom    2 type  1   force =    -0.00000000   -0.00000016    0.00000000

     Total force =     0.000002     Total SCF correction =     0.000000
     SCF correction compared to forces is large: reduce conv_thr to get better values


     Computing stress (Cartesian axis) and pressure

          total   stress  (Ry/bohr**3)                   (kbar)     P=       -7.01
  -0.00003820  -0.00000000   0.00000000           -5.62       -0.00        0.00
  -0.00000000  -0.00003824   0.00000000           -0.00       -5.63        0.00
   0.00000000   0.00000000  -0.00006647            0.00        0.00       -9.78


     init_run     :      0.94s CPU      1.05s WALL (       2 calls)
     electrons    :    109.77s CPU    102.85s WALL (       6 calls)
     update_pot   :      0.29s CPU      0.32s WALL (       4 calls)
     forces       :      0.87s CPU      1.25s WALL (       6 calls)
     stress       :      2.81s CPU      3.41s WALL (       6 calls)

     Called by init_run:
     wfcinit      :      0.41s CPU      0.46s WALL (       2 calls)
     potinit      :      0.13s CPU      0.13s WALL (       2 calls)
     hinit0       :      0.34s CPU      0.36s WALL (       2 calls)

     Called by electrons:
     c_bands      :     97.50s CPU     90.57s WALL (      76 calls)
     sum_band     :     10.84s CPU     10.20s WALL (      76 calls)
     v_of_rho     :      0.60s CPU      0.77s WALL (      81 calls)
     newd         :      0.33s CPU      0.34s WALL (      81 calls)
     mix_rho      :      0.32s CPU      0.33s WALL (      76 calls)

     Called by c_bands:
     init_us_2    :      1.36s CPU      1.28s WALL (   34860 calls)
     init_us_2:cp :      1.29s CPU      1.18s WALL (   34860 calls)
     cegterg      :     86.95s CPU     78.17s WALL (   15960 calls)

     Called by *egterg:
     cdiaghg      :     19.07s CPU     17.22s WALL (   63589 calls)
     h_psi        :     54.65s CPU     49.14s WALL (   65059 calls)
     s_psi        :      1.70s CPU      1.52s WALL (   65059 calls)
     g_psi        :      0.22s CPU      0.20s WALL (   48679 calls)

     Called by h_psi:
     h_psi:calbec :      4.37s CPU      3.95s WALL (   65059 calls)
     vloc_psi     :     48.48s CPU     43.57s WALL (   65059 calls)
     add_vuspsi   :      1.32s CPU      1.19s WALL (   65059 calls)

     General routines
     calbec       :      5.82s CPU      5.35s WALL (   87319 calls)
     fft          :      0.46s CPU      0.44s WALL (    2259 calls)
     ffts         :      0.15s CPU      0.15s WALL (     314 calls)
     fftw         :     50.78s CPU     45.65s WALL ( 1345276 calls)
     interpolate  :      0.15s CPU      0.15s WALL (     162 calls)

     Parallel routines

     PWSCF        :   1m55.28s CPU   1m50.35s WALL


   This run was terminated on:  18: 3:13   1Nov2023            

=------------------------------------------------------------------------------=
   JOB DONE.
=------------------------------------------------------------------------------=
