
     Program PWSCF v.7.2 starts on 18Oct2023 at  5:18: 7 

     This program is part of the open-source Quantum ESPRESSO suite
     for quantum simulation of materials; please cite
         "P. Giannozzi et al., J. Phys.:Condens. Matter 21 395502 (2009);
         "P. Giannozzi et al., J. Phys.:Condens. Matter 29 465901 (2017);
         "P. Giannozzi et al., J. Chem. Phys. 152 154105 (2020);
          URL http://www.quantum-espresso.org", 
     in publications or presentations arising from this work. More details at
     http://www.quantum-espresso.org/quote

     Parallel version (MPI), running on     1 processors

     MPI processes distributed on     1 nodes
     41986 MiB available memory on the printing compute node when the environment starts

     Waiting for input...
     Reading input from standard input
Warning: card &CELL ignored
Warning: card / ignored

     Current dimensions of program PWSCF are:
     Max number of different atomic species (ntypx) = 10
     Max number of k-points (npk) =  40000
     Max angular momentum in pseudopotentials (lmaxx) =  4
     file Ge.pz-dn-rrkjus_psl.0.2.2.UPF: wavefunction(s)  3D renormalized
     Message from routine setup:
     using ibrav=0 with symmetry is DISCOURAGED, use correct ibrav instead

     Subspace diagonalization in iterative solution of the eigenvalue problem:
     a serial algorithm will be used


     G-vector sticks info
     --------------------
     sticks:   dense  smooth     PW     G-vecs:    dense   smooth      PW
     Sum         367     367    121                 4645     4645     893

     Using Slab Decomposition



     bravais-lattice index     =            0
     lattice parameter (alat)  =       6.6812  a.u.
     unit-cell volume          =     210.8855 (a.u.)^3
     number of atoms/cell      =            2
     number of atomic types    =            1
     number of electrons       =        28.00
     number of Kohn-Sham states=           14
     kinetic-energy cutoff     =      30.0000  Ry
     charge density cutoff     =     120.0000  Ry
     scf convergence threshold =      1.0E-07
     mixing beta               =       0.5000
     number of iterations used =            8  plain     mixing
     Exchange-correlation= LDA
                           (   1   1   0   0   0   0   0)

     celldm(1)=   6.681191  celldm(2)=   0.000000  celldm(3)=   0.000000
     celldm(4)=   0.000000  celldm(5)=   0.000000  celldm(6)=   0.000000

     crystal axes: (cart. coord. in units of alat)
               a(1) = (   0.000000   0.707107   0.707107 )  
               a(2) = (   0.707107   0.000000   0.707107 )  
               a(3) = (   0.707107   0.707107   0.000000 )  

     reciprocal axes: (cart. coord. in units 2 pi/alat)
               b(1) = ( -0.707107  0.707107  0.707107 )  
               b(2) = (  0.707107 -0.707107  0.707107 )  
               b(3) = (  0.707107  0.707107 -0.707107 )  


     PseudoPot. # 1 for Ge read from file:
     ../Ge.pz-dn-rrkjus_psl.0.2.2.UPF
     MD5 check sum: 9948ad5293734715c8cf6021b6c26e6d
     Pseudo is Ultrasoft + core correction, Zval = 14.0
     Generated using "atomic" code by A. Dal Corso  v.5.0.2 svn rev. 9415
     Using radial grid of 1207 points,  6 beta functions with: 
                l(1) =   0
                l(2) =   0
                l(3) =   1
                l(4) =   1
                l(5) =   2
                l(6) =   2
     Q(r) pseudized with 0 coefficients 


     atomic species   valence    mass     pseudopotential
        Ge            14.00    72.63000     Ge( 1.00)

     48 Sym. Ops., with inversion, found (24 have fractional translation)



   Cartesian axes

     site n.     atom                  positions (alat units)
         1           Ge  tau(   1) = (   0.0000000   0.0000000   0.0000000  )
         2           Ge  tau(   2) = (   0.3535534   0.3535534   0.3535534  )

     number of k points=    35
                       cart. coord. in units 2pi/alat
        k(    1) = (   0.0000000   0.0000000   0.0000000), wk =   0.0027435
        k(    2) = (   0.0785674   0.0785674  -0.0785674), wk =   0.0219479
        k(    3) = (   0.1571348   0.1571348  -0.1571348), wk =   0.0219479
        k(    4) = (   0.2357023   0.2357023  -0.2357023), wk =   0.0219479
        k(    5) = (   0.3142697   0.3142697  -0.3142697), wk =   0.0219479
        k(    6) = (   0.1571348   0.0000000   0.0000000), wk =   0.0164609
        k(    7) = (   0.2357023   0.0785674  -0.0785674), wk =   0.0658436
        k(    8) = (   0.3142697   0.1571348  -0.1571348), wk =   0.0658436
        k(    9) = (   0.3928371   0.2357023  -0.2357023), wk =   0.0658436
        k(   10) = (  -0.2357023  -0.3928371   0.3928371), wk =   0.0658436
        k(   11) = (  -0.1571348  -0.3142697   0.3142697), wk =   0.0658436
        k(   12) = (  -0.0785674  -0.2357023   0.2357023), wk =   0.0658436
        k(   13) = (  -0.0000000  -0.1571348   0.1571348), wk =   0.0329218
        k(   14) = (   0.3142697   0.0000000   0.0000000), wk =   0.0164609
        k(   15) = (   0.3928371   0.0785674  -0.0785674), wk =   0.0658436
        k(   16) = (   0.4714045   0.1571348  -0.1571348), wk =   0.0658436
        k(   17) = (  -0.1571348  -0.4714045   0.4714045), wk =   0.0658436
        k(   18) = (  -0.0785674  -0.3928371   0.3928371), wk =   0.0658436
        k(   19) = (   0.0000000  -0.3142697   0.3142697), wk =   0.0329218
        k(   20) = (   0.4714045   0.0000000   0.0000000), wk =   0.0164609
        k(   21) = (   0.5499719   0.0785674  -0.0785674), wk =   0.0658436
        k(   22) = (  -0.0785674  -0.5499719   0.5499719), wk =   0.0658436
        k(   23) = (  -0.0000000  -0.4714045   0.4714045), wk =   0.0329218
        k(   24) = (   0.6285394   0.0000000   0.0000000), wk =   0.0164609
        k(   25) = (   0.0000000  -0.6285394   0.6285394), wk =   0.0329218
        k(   26) = (   0.3142697   0.1571348   0.0000000), wk =   0.0658436
        k(   27) = (   0.3928371   0.2357023  -0.0785674), wk =   0.1316872
        k(   28) = (  -0.2357023  -0.3928371   0.5499719), wk =   0.1316872
        k(   29) = (   0.4714045   0.1571348   0.0000000), wk =   0.0658436
        k(   30) = (  -0.1571348  -0.4714045   0.6285394), wk =   0.1316872
        k(   31) = (  -0.0785674  -0.3928371   0.5499719), wk =   0.1316872
        k(   32) = (   0.0000000  -0.3142697   0.4714045), wk =   0.0658436
        k(   33) = (  -0.0785674  -0.5499719   0.7071068), wk =   0.0658436
        k(   34) = (  -0.0000000  -0.4714045   0.6285394), wk =   0.0658436
        k(   35) = (  -0.0785674  -0.3928371   0.7071068), wk =   0.0658436

     Dense  grid:     4645 G-vectors     FFT dimensions: (  24,  24,  24)

     Estimated max dynamical RAM per process >      22.83 MB

     Check: negative core charge=   -0.000280

     Initial potential from superposition of free atoms

     starting charge      27.9988, renormalised to      28.0000
     Starting wfcs are   18 randomized atomic wfcs

     total cpu time spent up to now is        1.6 secs

     Self-consistent Calculation

     iteration #  1     ecut=    30.00 Ry     beta= 0.50
     Davidson diagonalization with overlap
     ethr =  1.00E-02,  avg # of iterations =  2.0

     Threshold (ethr) on eigenvalues was too large:
     Diagonalizing with lowered threshold

     Davidson diagonalization with overlap
     ethr =  2.05E-04,  avg # of iterations =  1.9

     total cpu time spent up to now is        3.9 secs

     total energy              =    -421.63631008 Ry
     estimated scf accuracy    <       0.05870815 Ry

     iteration #  2     ecut=    30.00 Ry     beta= 0.50
     Davidson diagonalization with overlap
     ethr =  2.10E-04,  avg # of iterations =  1.2

     total cpu time spent up to now is        5.0 secs

     total energy              =    -421.63444783 Ry
     estimated scf accuracy    <       0.00929685 Ry

     iteration #  3     ecut=    30.00 Ry     beta= 0.50
     Davidson diagonalization with overlap
     ethr =  3.32E-05,  avg # of iterations =  2.1

     total cpu time spent up to now is        6.3 secs

     total energy              =    -421.63543376 Ry
     estimated scf accuracy    <       0.00009815 Ry

     iteration #  4     ecut=    30.00 Ry     beta= 0.50
     Davidson diagonalization with overlap
     ethr =  3.51E-07,  avg # of iterations =  3.9

     total cpu time spent up to now is        8.0 secs

     total energy              =    -421.63548123 Ry
     estimated scf accuracy    <       0.00001435 Ry

     iteration #  5     ecut=    30.00 Ry     beta= 0.50
     Davidson diagonalization with overlap
     ethr =  5.13E-08,  avg # of iterations =  2.1

     total cpu time spent up to now is        9.3 secs

     total energy              =    -421.63548301 Ry
     estimated scf accuracy    <       0.00000093 Ry

     iteration #  6     ecut=    30.00 Ry     beta= 0.50
     Davidson diagonalization with overlap
     ethr =  3.34E-09,  avg # of iterations =  2.4

     total cpu time spent up to now is       10.9 secs

     total energy              =    -421.63548332 Ry
     estimated scf accuracy    <       0.00000011 Ry

     iteration #  7     ecut=    30.00 Ry     beta= 0.50
     Davidson diagonalization with overlap
     ethr =  4.02E-10,  avg # of iterations =  2.3

     total cpu time spent up to now is       12.3 secs

     End of self-consistent calculation

          k = 0.0000 0.0000 0.0000 (   561 PWs)   bands (ev):

   -11.8819 -11.8819 -11.8819 -11.7757 -11.7757 -11.2665 -11.2665 -11.2665
   -11.2050 -11.2050  -2.1456  14.1541  14.1541  14.1541

          k = 0.0786 0.0786-0.0786 (   576 PWs)   bands (ev):

   -11.8967 -11.8967 -11.8742 -11.7744 -11.7744 -11.2964 -11.2964 -11.2908
   -11.1895 -11.1895  -1.9346  12.0388  13.6860  13.6860

          k = 0.1571 0.1571-0.1571 (   582 PWs)   bands (ev):

   -11.9206 -11.9206 -11.8647 -11.7376 -11.7376 -11.3206 -11.3206 -11.3081
   -11.1746 -11.1746  -1.3086   9.0859  12.9423  12.9423

          k = 0.2357 0.2357-0.2357 (   589 PWs)   bands (ev):

   -11.9306 -11.9306 -11.8594 -11.7147 -11.7147 -11.3328 -11.3328 -11.3205
   -11.1689 -11.1689  -0.3097   6.4279  12.3766  12.3766

          k = 0.3143 0.3143-0.3143 (   592 PWs)   bands (ev):

   -11.9387 -11.9387 -11.8432 -11.7052 -11.7052 -11.3343 -11.3343 -11.3341
   -11.1688 -11.1688   0.8176   4.4513  12.0841  12.0841

          k = 0.1571 0.0000 0.0000 (   569 PWs)   bands (ev):

   -11.9002 -11.8858 -11.8858 -11.7677 -11.7459 -11.3456 -11.2618 -11.2618
   -11.2172 -11.1754  -1.8639  12.5576  12.9086  12.9086

          k = 0.2357 0.0786-0.0786 (   580 PWs)   bands (ev):

   -11.9300 -11.9054 -11.8772 -11.7497 -11.7047 -11.3975 -11.2723 -11.2626
   -11.2092 -11.1652  -1.3748  10.0298  12.1350  12.4302

          k = 0.3143 0.1571-0.1571 (   588 PWs)   bands (ev):

   -11.9526 -11.9227 -11.8573 -11.7193 -11.6733 -11.4214 -11.2972 -11.2933
   -11.1892 -11.1452  -0.4919   7.3387  11.6440  11.6464

          k = 0.3928 0.2357-0.2357 (   588 PWs)   bands (ev):

   -11.9600 -11.9358 -11.8267 -11.6945 -11.6709 -11.4109 -11.3291 -11.3169
   -11.1700 -11.1378   0.6551   5.1043  10.9832  11.5072

          k =-0.2357-0.3928 0.3928 (   583 PWs)   bands (ev):

   -11.9622 -11.9434 -11.8069 -11.6880 -11.6742 -11.3710 -11.3583 -11.3403
   -11.1482 -11.1348   1.2206   4.2652  10.5843  11.7284

          k =-0.1571-0.3143 0.3143 (   582 PWs)   bands (ev):

   -11.9477 -11.9459 -11.8187 -11.7110 -11.6666 -11.3754 -11.3593 -11.3106
   -11.1595 -11.1388   0.2618   5.7794  10.5169  12.2682

          k =-0.0786-0.2357 0.2357 (   587 PWs)   bands (ev):

   -11.9450 -11.9313 -11.8481 -11.7317 -11.6892 -11.3720 -11.3525 -11.2694
   -11.1951 -11.1443  -0.8283   8.2068  10.8311  13.0278

          k =-0.0000-0.1571 0.1571 (   578 PWs)   bands (ev):

   -11.9261 -11.9014 -11.8705 -11.7588 -11.7314 -11.3381 -11.3249 -11.2413
   -11.2190 -11.1609  -1.5846  10.7251  11.7586  13.7307

          k = 0.3143 0.0000 0.0000 (   576 PWs)   bands (ev):

   -11.9145 -11.9112 -11.9112 -11.7139 -11.6485 -11.4694 -11.2675 -11.2148
   -11.2148 -11.1794  -1.0229   9.9373  11.3113  11.3113

          k = 0.3928 0.0786-0.0786 (   581 PWs)   bands (ev):

   -11.9492 -11.9253 -11.8725 -11.6802 -11.6010 -11.5216 -11.3061 -11.2429
   -11.1824 -11.1502  -0.2671   8.0153  10.3985  10.7735

          k = 0.4714 0.1571-0.1571 (   587 PWs)   bands (ev):

   -11.9792 -11.9389 -11.8268 -11.6527 -11.5897 -11.5191 -11.3544 -11.2941
   -11.1606 -11.1145   0.8206   5.9077   9.3599  10.6146

          k =-0.1571-0.4714 0.4714 (   580 PWs)   bands (ev):

   -11.9882 -11.9521 -11.7832 -11.6180 -11.6080 -11.4814 -11.3963 -11.3402
   -11.1326 -11.0949   1.7702   4.5303   8.6222  10.8526

          k =-0.0786-0.3928 0.3928 (   585 PWs)   bands (ev):

   -11.9824 -11.9590 -11.7753 -11.6606 -11.6044 -11.4281 -11.4232 -11.3517
   -11.1236 -11.1125   1.1731   5.3815   8.3260  11.4528

          k = 0.0000-0.3143 0.3143 (   586 PWs)   bands (ev):

   -11.9620 -11.9586 -11.7992 -11.7124 -11.6335 -11.4160 -11.3819 -11.3076
   -11.1512 -11.1235   0.0395   7.1617   8.8078  12.2962

          k = 0.4714 0.0000 0.0000 (   576 PWs)   bands (ev):

   -11.9323 -11.9323 -11.8881 -11.6315 -11.5986 -11.5279 -11.3426 -11.2179
   -11.1613 -11.1613   0.3617   7.1991  10.1508  10.1508

          k = 0.5500 0.0786-0.0786 (   589 PWs)   bands (ev):

   -11.9674 -11.9474 -11.8378 -11.6458 -11.6002 -11.4848 -11.3957 -11.2823
   -11.1394 -11.1243   1.3548   5.7531   9.0731   9.9038

          k =-0.0786-0.5500 0.5500 (   580 PWs)   bands (ev):

   -11.9935 -11.9501 -11.7811 -11.6228 -11.5514 -11.4878 -11.4416 -11.3423
   -11.1206 -11.0855   2.4695   4.4984   7.7762  10.0664

          k =-0.0000-0.4714 0.4714 (   578 PWs)   bands (ev):

   -12.0016 -11.9516 -11.7657 -11.5734 -11.5449 -11.5237 -11.4604 -11.3618
   -11.1122 -11.0779   2.2618   4.7316   7.2590  10.6165

          k = 0.6285 0.0000 0.0000 (   596 PWs)   bands (ev):

   -11.9563 -11.9563 -11.8290 -11.7316 -11.5431 -11.4415 -11.4106 -11.3062
   -11.1316 -11.1316   2.2520   4.5742   9.5498   9.5498

          k = 0.0000-0.6285 0.6285 (   598 PWs)   bands (ev):

   -11.9767 -11.9553 -11.7843 -11.7387 -11.5073 -11.4976 -11.3921 -11.3585
   -11.1228 -11.1077   3.3213   3.5170   8.6555   9.6065

          k = 0.3143 0.1571 0.0000 (   587 PWs)   bands (ev):

   -11.9472 -11.9309 -11.8592 -11.7229 -11.6573 -11.4492 -11.3050 -11.2568
   -11.1968 -11.1493  -0.7532   8.7518  10.2416  12.1466

          k = 0.3928 0.2357-0.0786 (   586 PWs)   bands (ev):

   -11.9679 -11.9496 -11.8170 -11.6876 -11.6207 -11.4709 -11.3293 -11.3157
   -11.1587 -11.1236   0.2378   6.6338   9.4300  11.4216

          k =-0.2357-0.3928 0.5500 (   586 PWs)   bands (ev):

   -11.9796 -11.9546 -11.7860 -11.6657 -11.6201 -11.4551 -11.3700 -11.3418
   -11.1399 -11.1134   1.3619   4.7810   9.2106  10.8940

          k = 0.4714 0.1571 0.0000 (   587 PWs)   bands (ev):

   -11.9601 -11.9544 -11.8346 -11.6496 -11.5706 -11.5505 -11.3492 -11.2826
   -11.1464 -11.1346   0.6047   6.7526   9.1851  10.1968

          k =-0.1571-0.4714 0.6285 (   583 PWs)   bands (ev):

   -11.9862 -11.9635 -11.7748 -11.6110 -11.5791 -11.5207 -11.4031 -11.3382
   -11.1244 -11.0984   1.7413   5.2351   8.2627   9.7225

          k =-0.0786-0.3928 0.5500 (   587 PWs)   bands (ev):

   -11.9977 -11.9705 -11.7497 -11.6021 -11.5448 -11.5330 -11.4424 -11.3683
   -11.1134 -11.0878   2.2793   4.6044   7.7142   9.8982

          k = 0.0000-0.3143 0.4714 (   579 PWs)   bands (ev):

   -11.9835 -11.9673 -11.7621 -11.6532 -11.5641 -11.5063 -11.3888 -11.3494
   -11.1142 -11.1025   1.2923   5.7436   7.8941  10.5694

          k =-0.0786-0.5500 0.7071 (   587 PWs)   bands (ev):

   -11.9724 -11.9699 -11.7755 -11.6865 -11.5468 -11.4448 -11.4399 -11.3425
   -11.1148 -11.1115   2.4266   4.5698   8.7434   9.0306

          k =-0.0000-0.4714 0.6285 (   594 PWs)   bands (ev):

   -11.9970 -11.9731 -11.7363 -11.6491 -11.5260 -11.4928 -11.4640 -11.3870
   -11.1083 -11.0932   3.1876   3.9253   7.6898   9.1736

          k =-0.0786-0.3928 0.7071 (   587 PWs)   bands (ev):

   -11.9915 -11.9851 -11.7094 -11.6134 -11.5683 -11.4789 -11.4715 -11.3929
   -11.0974 -11.0915   2.8430   4.3803   7.7595   8.6721

     highest occupied level (ev):    14.1541

!    total energy              =    -421.63548331 Ry
     estimated scf accuracy    <       0.00000005 Ry

     The total energy is the sum of the following terms:
     one-electron contribution =    -232.57127483 Ry
     hartree contribution      =     146.61307061 Ry
     xc contribution           =    -112.19253110 Ry
     ewald contribution        =    -223.48474799 Ry

     convergence has been achieved in   7 iterations

     Forces acting on atoms (cartesian axes, Ry/au):

     atom    1 type  1   force =     0.00000000   -0.00000000    0.00000000
     atom    2 type  1   force =     0.00000000    0.00000000    0.00000000
     The non-local contrib.  to forces
     atom    1 type  1   force =     0.00000000    0.00000000    0.00000000
     atom    2 type  1   force =     0.00000000    0.00000000    0.00000000
     The ionic contribution  to forces
     atom    1 type  1   force =     0.00000000    0.00000000    0.00000000
     atom    2 type  1   force =    -0.00000000   -0.00000000   -0.00000000
     The local contribution  to forces
     atom    1 type  1   force =    -0.00000000   -0.00000000   -0.00000000
     atom    2 type  1   force =    -0.00000000   -0.00000000   -0.00000000
     The core correction contribution to forces
     atom    1 type  1   force =    -0.00000000   -0.00000000   -0.00000000
     atom    2 type  1   force =    -0.00000000   -0.00000000   -0.00000000
     The Hubbard contrib.    to forces
     atom    1 type  1   force =     0.00000000    0.00000000    0.00000000
     atom    2 type  1   force =     0.00000000    0.00000000    0.00000000
     The SCF correction term to forces
     atom    1 type  1   force =    -0.00000000    0.00000000   -0.00000000
     atom    2 type  1   force =    -0.00000000    0.00000000   -0.00000000

     Total force =     0.000000     Total SCF correction =     0.000000


     Computing stress (Cartesian axis) and pressure

          total   stress  (Ry/bohr**3)                   (kbar)     P=      337.52
   0.00229443   0.00000000   0.00000000          337.52        0.00        0.00
   0.00000000   0.00229443   0.00000000            0.00      337.52        0.00
   0.00000000   0.00000000   0.00229443            0.00        0.00      337.52


     init_run     :      1.46s CPU      1.24s WALL (       1 calls)
     electrons    :     14.77s CPU     10.78s WALL (       1 calls)
     forces       :      0.19s CPU      0.12s WALL (       1 calls)
     stress       :      1.93s CPU      1.38s WALL (       1 calls)

     Called by init_run:
     wfcinit      :      0.97s CPU      0.70s WALL (       1 calls)
     potinit      :      0.00s CPU      0.01s WALL (       1 calls)
     hinit0       :      0.47s CPU      0.49s WALL (       1 calls)

     Called by electrons:
     c_bands      :     12.21s CPU      8.84s WALL (       8 calls)
     sum_band     :      2.31s CPU      1.70s WALL (       8 calls)
     v_of_rho     :      0.03s CPU      0.04s WALL (       8 calls)
     newd         :      0.17s CPU      0.14s WALL (       8 calls)
     mix_rho      :      0.02s CPU      0.03s WALL (       8 calls)

     Called by c_bands:
     init_us_2    :      0.50s CPU      0.37s WALL (     665 calls)
     init_us_2:cp :      0.49s CPU      0.36s WALL (     665 calls)
     cegterg      :     11.05s CPU      7.85s WALL (     280 calls)

     Called by *egterg:
     cdiaghg      :      0.78s CPU      0.55s WALL (     871 calls)
     h_psi        :     10.03s CPU      7.14s WALL (     941 calls)
     s_psi        :      0.18s CPU      0.12s WALL (     941 calls)
     g_psi        :      0.08s CPU      0.05s WALL (     626 calls)

     Called by h_psi:
     h_psi:calbec :      0.22s CPU      0.16s WALL (     941 calls)
     vloc_psi     :      9.55s CPU      6.78s WALL (     941 calls)
     add_vuspsi   :      0.19s CPU      0.14s WALL (     941 calls)

     General routines
     calbec       :      0.33s CPU      0.23s WALL (    1396 calls)
     fft          :      0.19s CPU      0.19s WALL (      41 calls)
     ffts         :      0.01s CPU      0.01s WALL (       8 calls)
     fftw         :      9.86s CPU      7.00s WALL (   24904 calls)

     Parallel routines

     PWSCF        :     18.54s CPU     13.88s WALL


   This run was terminated on:   5:18:21  18Oct2023            

=------------------------------------------------------------------------------=
   JOB DONE.
=------------------------------------------------------------------------------=
