
     Program PWSCF v.7.2 starts on  3Nov2023 at 10:56: 9 

     This program is part of the open-source Quantum ESPRESSO suite
     for quantum simulation of materials; please cite
         "P. Giannozzi et al., J. Phys.:Condens. Matter 21 395502 (2009);
         "P. Giannozzi et al., J. Phys.:Condens. Matter 29 465901 (2017);
         "P. Giannozzi et al., J. Chem. Phys. 152 154105 (2020);
          URL http://www.quantum-espresso.org", 
     in publications or presentations arising from this work. More details at
     http://www.quantum-espresso.org/quote

     Parallel version (MPI), running on     8 processors

     MPI processes distributed on     8 nodes
     185887 MiB available memory on the printing compute node when the environment starts

     Waiting for input...
     Reading input from standard input

     Current dimensions of program PWSCF are:
     Max number of different atomic species (ntypx) = 10
     Max number of k-points (npk) =  40000
     Max angular momentum in pseudopotentials (lmaxx) =  4
     file Cu.pz-d-rrkjus.UPF: wavefunction(s)  3D renormalized
     Message from routine setup:
     using ibrav=0 with symmetry is DISCOURAGED, use correct ibrav instead

     R & G space division:  proc/nbgrp/npool/nimage =       8
     Subspace diagonalization in iterative solution of the eigenvalue problem:
     a serial algorithm will be used


     Parallelization info
     --------------------
     sticks:   dense  smooth     PW     G-vecs:    dense   smooth      PW
     Min          59      30     10                  858      305      65
     Max          60      31     11                  861      308      68
     Sum         475     241     85                 6879     2445     531

     Using Slab Decomposition



     bravais-lattice index     =            0
     lattice parameter (alat)  =       4.6768  a.u.
     unit-cell volume          =      72.3337 (a.u.)^3
     number of atoms/cell      =            1
     number of atomic types    =            1
     number of electrons       =        11.00
     number of Kohn-Sham states=           10
     kinetic-energy cutoff     =      40.0000  Ry
     charge density cutoff     =     320.0000  Ry
     scf convergence threshold =      1.0E-07
     mixing beta               =       0.5000
     number of iterations used =            8  plain     mixing
     energy convergence thresh.=      1.0E-04
     force convergence thresh. =      1.0E-03
     press convergence thresh. =      5.0E-01
     Exchange-correlation=  SLA  PZ   NOGX NOGC
                           (   1   1   0   0   0   0   0)
     nstep                     =           50


     celldm(1)=   4.676834  celldm(2)=   0.000000  celldm(3)=   0.000000
     celldm(4)=   0.000000  celldm(5)=   0.000000  celldm(6)=   0.000000

     crystal axes: (cart. coord. in units of alat)
               a(1) = (   0.000000   0.707107   0.707107 )  
               a(2) = (   0.707107   0.000000   0.707107 )  
               a(3) = (   0.707107   0.707107   0.000000 )  

     reciprocal axes: (cart. coord. in units 2 pi/alat)
               b(1) = ( -0.707107  0.707107  0.707107 )  
               b(2) = (  0.707107 -0.707107  0.707107 )  
               b(3) = (  0.707107  0.707107 -0.707107 )  


     PseudoPot. # 1 for Cu read from file:
     /home/gridsan/epan1/labutil/lab3_samples/pseudopotentials/Cu.pz-d-rrkjus.UPF
     MD5 check sum: fd38ae683e239c95a66f426e1f8e5fc7
     Pseudo is Ultrasoft, Zval = 11.0
     Generated by new atomic code, or converted to UPF format
     Using radial grid of  899 points,  3 beta functions with: 
                l(1) =   2
                l(2) =   2
                l(3) =   1
     Q(r) pseudized with 0 coefficients 


     atomic species   valence    mass     pseudopotential
        Cu            11.00    63.54600     Cu( 1.00)

     Starting magnetic structure 
     atomic species   magnetization
        Cu           0.700

     48 Sym. Ops., with inversion, found



   Cartesian axes

     site n.     atom                  positions (alat units)
         1           Cu  tau(   1) = (   0.0000000   0.0000000   0.0000000  )

     number of k points=    72  Methfessel-Paxton smearing, width (Ry)=  0.0200
                       cart. coord. in units 2pi/alat
        k(    1) = (   0.0000000   0.0000000   0.0000000), wk =   0.0005787
        k(    2) = (   0.0589256   0.0589256  -0.0589256), wk =   0.0046296
        k(    3) = (   0.1178511   0.1178511  -0.1178511), wk =   0.0046296
        k(    4) = (   0.1767767   0.1767767  -0.1767767), wk =   0.0046296
        k(    5) = (   0.2357023   0.2357023  -0.2357023), wk =   0.0046296
        k(    6) = (   0.2946278   0.2946278  -0.2946278), wk =   0.0046296
        k(    7) = (  -0.3535534  -0.3535534   0.3535534), wk =   0.0023148
        k(    8) = (   0.1178511   0.0000000   0.0000000), wk =   0.0034722
        k(    9) = (   0.1767767   0.0589256  -0.0589256), wk =   0.0138889
        k(   10) = (   0.2357023   0.1178511  -0.1178511), wk =   0.0138889
        k(   11) = (   0.2946278   0.1767767  -0.1767767), wk =   0.0138889
        k(   12) = (   0.3535534   0.2357023  -0.2357023), wk =   0.0138889
        k(   13) = (  -0.2946278  -0.4124790   0.4124790), wk =   0.0138889
        k(   14) = (  -0.2357023  -0.3535534   0.3535534), wk =   0.0138889
        k(   15) = (  -0.1767767  -0.2946278   0.2946278), wk =   0.0138889
        k(   16) = (  -0.1178511  -0.2357023   0.2357023), wk =   0.0138889
        k(   17) = (  -0.0589256  -0.1767767   0.1767767), wk =   0.0138889
        k(   18) = (  -0.0000000  -0.1178511   0.1178511), wk =   0.0069444
        k(   19) = (   0.2357023   0.0000000   0.0000000), wk =   0.0034722
        k(   20) = (   0.2946278   0.0589256  -0.0589256), wk =   0.0138889
        k(   21) = (   0.3535534   0.1178511  -0.1178511), wk =   0.0138889
        k(   22) = (   0.4124790   0.1767767  -0.1767767), wk =   0.0138889
        k(   23) = (  -0.2357023  -0.4714045   0.4714045), wk =   0.0138889
        k(   24) = (  -0.1767767  -0.4124790   0.4124790), wk =   0.0138889
        k(   25) = (  -0.1178511  -0.3535534   0.3535534), wk =   0.0138889
        k(   26) = (  -0.0589256  -0.2946278   0.2946278), wk =   0.0138889
        k(   27) = (   0.0000000  -0.2357023   0.2357023), wk =   0.0069444
        k(   28) = (   0.3535534   0.0000000   0.0000000), wk =   0.0034722
        k(   29) = (   0.4124790   0.0589256  -0.0589256), wk =   0.0138889
        k(   30) = (   0.4714045   0.1178511  -0.1178511), wk =   0.0138889
        k(   31) = (  -0.1767767  -0.5303301   0.5303301), wk =   0.0138889
        k(   32) = (  -0.1178511  -0.4714045   0.4714045), wk =   0.0138889
        k(   33) = (  -0.0589256  -0.4124790   0.4124790), wk =   0.0138889
        k(   34) = (   0.0000000  -0.3535534   0.3535534), wk =   0.0069444
        k(   35) = (   0.4714045   0.0000000   0.0000000), wk =   0.0034722
        k(   36) = (   0.5303301   0.0589256  -0.0589256), wk =   0.0138889
        k(   37) = (  -0.1178511  -0.5892557   0.5892557), wk =   0.0138889
        k(   38) = (  -0.0589256  -0.5303301   0.5303301), wk =   0.0138889
        k(   39) = (  -0.0000000  -0.4714045   0.4714045), wk =   0.0069444
        k(   40) = (   0.5892557   0.0000000   0.0000000), wk =   0.0034722
        k(   41) = (  -0.0589256  -0.6481812   0.6481812), wk =   0.0138889
        k(   42) = (   0.0000000  -0.5892557   0.5892557), wk =   0.0069444
        k(   43) = (  -0.7071068   0.0000000   0.0000000), wk =   0.0017361
        k(   44) = (   0.2357023   0.1178511  -0.0000000), wk =   0.0138889
        k(   45) = (   0.2946278   0.1767767  -0.0589256), wk =   0.0277778
        k(   46) = (   0.3535534   0.2357023  -0.1178511), wk =   0.0277778
        k(   47) = (  -0.2946278  -0.4124790   0.5303301), wk =   0.0277778
        k(   48) = (  -0.2357023  -0.3535534   0.4714045), wk =   0.0138889
        k(   49) = (   0.3535534   0.1178511   0.0000000), wk =   0.0138889
        k(   50) = (   0.4124790   0.1767767  -0.0589256), wk =   0.0277778
        k(   51) = (  -0.2357023  -0.4714045   0.5892557), wk =   0.0277778
        k(   52) = (  -0.1767767  -0.4124790   0.5303301), wk =   0.0277778
        k(   53) = (  -0.1178511  -0.3535534   0.4714045), wk =   0.0277778
        k(   54) = (  -0.0589256  -0.2946278   0.4124790), wk =   0.0277778
        k(   55) = (   0.0000000  -0.2357023   0.3535534), wk =   0.0138889
        k(   56) = (   0.4714045   0.1178511   0.0000000), wk =   0.0138889
        k(   57) = (  -0.1767767  -0.5303301   0.6481812), wk =   0.0277778
        k(   58) = (  -0.1178511  -0.4714045   0.5892557), wk =   0.0277778
        k(   59) = (  -0.0589256  -0.4124790   0.5303301), wk =   0.0277778
        k(   60) = (  -0.0000000  -0.3535534   0.4714045), wk =   0.0138889
        k(   61) = (  -0.1178511  -0.5892557   0.7071068), wk =   0.0138889
        k(   62) = (  -0.0589256  -0.5303301   0.6481812), wk =   0.0277778
        k(   63) = (  -0.0000000  -0.4714045   0.5892557), wk =   0.0138889
        k(   64) = (  -0.7071068   0.1178511   0.0000000), wk =   0.0069444
        k(   65) = (  -0.2357023  -0.4714045   0.7071068), wk =   0.0138889
        k(   66) = (  -0.1767767  -0.4124790   0.6481812), wk =   0.0277778
        k(   67) = (  -0.1178511  -0.3535534   0.5892557), wk =   0.0138889
        k(   68) = (  -0.1178511  -0.4714045   0.7071068), wk =   0.0138889
        k(   69) = (  -0.0589256  -0.4124790   0.6481812), wk =   0.0277778
        k(   70) = (   0.0000000  -0.3535534   0.5892557), wk =   0.0138889
        k(   71) = (  -0.7071068   0.2357023   0.0000000), wk =   0.0069444
        k(   72) = (  -0.7071068   0.3535534   0.0000000), wk =   0.0034722

     Dense  grid:     6879 G-vectors     FFT dimensions: (  27,  27,  27)

     Smooth grid:     2445 G-vectors     FFT dimensions: (  20,  20,  20)

     Estimated max dynamical RAM per process >       4.20 MB

     Estimated total dynamical RAM >      33.61 MB
     Generating pointlists ...
     new r_m :   0.4125 (alat units)  1.9292 (a.u.) for type    1

     Initial potential from superposition of free atoms

     starting charge      10.9997, renormalised to      11.0000
     Starting wfcs are    6 randomized atomic wfcs +    4 random wfcs

     total cpu time spent up to now is        0.4 secs

     Self-consistent Calculation

     iteration #  1     ecut=    40.00 Ry     beta= 0.50
     Davidson diagonalization with overlap
     ethr =  1.00E-02,  avg # of iterations =  6.1

     total cpu time spent up to now is        1.1 secs

     total energy              =     -86.95695210 Ry
     estimated scf accuracy    <       1.46222423 Ry

     total magnetization       =     1.77 Bohr mag/cell
     absolute magnetization    =     1.89 Bohr mag/cell

     iteration #  2     ecut=    40.00 Ry     beta= 0.50
     Davidson diagonalization with overlap
     ethr =  1.00E-02,  avg # of iterations =  1.5

     total cpu time spent up to now is        1.5 secs

     total energy              =     -87.61450404 Ry
     estimated scf accuracy    <       0.74472785 Ry

     total magnetization       =     0.31 Bohr mag/cell
     absolute magnetization    =     0.51 Bohr mag/cell

     iteration #  3     ecut=    40.00 Ry     beta= 0.50
     Davidson diagonalization with overlap
     ethr =  6.77E-03,  avg # of iterations =  1.0

     negative rho (up, down):  0.000E+00 2.440E-07

     total cpu time spent up to now is        1.9 secs

     total energy              =     -87.79657626 Ry
     estimated scf accuracy    <       0.21864517 Ry

     total magnetization       =     0.30 Bohr mag/cell
     absolute magnetization    =     0.51 Bohr mag/cell

     iteration #  4     ecut=    40.00 Ry     beta= 0.50
     Davidson diagonalization with overlap
     ethr =  1.99E-03,  avg # of iterations =  1.5

     total cpu time spent up to now is        2.2 secs

     total energy              =     -87.82910935 Ry
     estimated scf accuracy    <       0.04650113 Ry

     total magnetization       =    -0.04 Bohr mag/cell
     absolute magnetization    =     0.05 Bohr mag/cell

     iteration #  5     ecut=    40.00 Ry     beta= 0.50
     Davidson diagonalization with overlap
     ethr =  4.23E-04,  avg # of iterations =  1.2

     total cpu time spent up to now is        2.6 secs

     total energy              =     -87.84117910 Ry
     estimated scf accuracy    <       0.00180069 Ry

     total magnetization       =    -0.04 Bohr mag/cell
     absolute magnetization    =     0.04 Bohr mag/cell

     iteration #  6     ecut=    40.00 Ry     beta= 0.50
     Davidson diagonalization with overlap
     ethr =  1.64E-05,  avg # of iterations =  1.6

     total cpu time spent up to now is        3.0 secs

     total energy              =     -87.84214173 Ry
     estimated scf accuracy    <       0.00030045 Ry

     total magnetization       =     0.02 Bohr mag/cell
     absolute magnetization    =     0.04 Bohr mag/cell

     iteration #  7     ecut=    40.00 Ry     beta= 0.50
     Davidson diagonalization with overlap
     ethr =  2.73E-06,  avg # of iterations =  1.6

     total cpu time spent up to now is        3.4 secs

     total energy              =     -87.84222234 Ry
     estimated scf accuracy    <       0.00002217 Ry

     total magnetization       =     0.00 Bohr mag/cell
     absolute magnetization    =     0.01 Bohr mag/cell

     iteration #  8     ecut=    40.00 Ry     beta= 0.50
     Davidson diagonalization with overlap
     ethr =  2.02E-07,  avg # of iterations =  1.5

     total cpu time spent up to now is        3.8 secs

     total energy              =     -87.84222887 Ry
     estimated scf accuracy    <       0.00000063 Ry

     total magnetization       =     0.00 Bohr mag/cell
     absolute magnetization    =     0.00 Bohr mag/cell

     iteration #  9     ecut=    40.00 Ry     beta= 0.50
     Davidson diagonalization with overlap
     ethr =  5.70E-09,  avg # of iterations =  1.6

     Magnetic moment per site  (integrated on atomic sphere of radius R)
     atom   1 (R=0.412)  charge=  9.7762  magn= -0.0000

     total cpu time spent up to now is        4.2 secs

     End of self-consistent calculation

     Number of k-points >= 100: set verbosity='high' to print the bands.

     the Fermi energy is    15.5126 ev

!    total energy              =     -87.84222907 Ry
     estimated scf accuracy    <       0.00000004 Ry
     smearing contrib. (-TS)   =       0.00002003 Ry
     internal energy E=F+TS    =     -87.84224909 Ry

     The total energy is F=E-TS. E is the sum of the following terms:
     one-electron contribution =      -8.04118372 Ry
     hartree contribution      =      18.16343886 Ry
     xc contribution           =     -14.08714780 Ry
     ewald contribution        =     -83.87735643 Ry

     total magnetization       =    -0.00 Bohr mag/cell
     absolute magnetization    =     0.00 Bohr mag/cell

     convergence has been achieved in   9 iterations

     Forces acting on atoms (cartesian axes, Ry/au):

     atom    1 type  1   force =     0.00000000    0.00000000    0.00000000
     The non-local contrib.  to forces
     atom    1 type  1   force =     0.00000000   -0.00000000   -0.00000000
     The ionic contribution  to forces
     atom    1 type  1   force =    -0.00000000   -0.00000000   -0.00000000
     The local contribution  to forces
     atom    1 type  1   force =    -0.00000000   -0.00000000   -0.00000000
     The core correction contribution to forces
     atom    1 type  1   force =     0.00000000    0.00000000    0.00000000
     The Hubbard contrib.    to forces
     atom    1 type  1   force =     0.00000000    0.00000000    0.00000000
     The SCF correction term to forces
     atom    1 type  1   force =     0.00000000    0.00000000    0.00000000

     Total force =     0.000000     Total SCF correction =     0.000000


     Computing stress (Cartesian axis) and pressure

          total   stress  (Ry/bohr**3)                   (kbar)     P=       87.58
   0.00059533  -0.00000000  -0.00000000           87.58       -0.00       -0.00
  -0.00000000   0.00059533  -0.00000000           -0.00       87.58       -0.00
  -0.00000000  -0.00000000   0.00059533           -0.00       -0.00       87.58


     BFGS Geometry Optimization
     Energy error            =      0.0E+00 Ry
     Gradient error          =      0.0E+00 Ry/Bohr
     Cell gradient error     =      8.8E+01 kbar

     number of scf cycles    =   1
     number of bfgs steps    =   0

     enthalpy           new  =     -87.8422290652 Ry

     new trust radius        =       0.0253160995 bohr
     new conv_thr            =       0.0000001000 Ry

     new unit-cell volume =     75.61169 a.u.^3 (    11.20450 Ang^3 )
     density =      9.41770 g/cm^3

CELL_PARAMETERS (angstrom)
  -0.000000000   1.776045606   1.776045606
   1.776045606  -0.000000000   1.776045606
   1.776045606   1.776045606  -0.000000000

ATOMIC_POSITIONS (angstrom)
Cu            0.0000000000        0.0000000000        0.0000000000



     Writing config-only to output data dir /home/gridsan/epan1/labutil/lab3_samples/problem3/Lab3/Cu_a_3.5_ecut_40_nk_12/pwscf.save/
     NEW-OLD atomic charge density approx. for the potential
     extrapolated charge   11.47687, renormalised to   11.00000
     Generating pointlists ...

     total cpu time spent up to now is        4.4 secs

     Self-consistent Calculation

     iteration #  1     ecut=    40.00 Ry     beta= 0.50
     Davidson diagonalization with overlap
     ethr =  1.00E-06,  avg # of iterations =  4.4

     total cpu time spent up to now is        5.2 secs

     total energy              =     -87.66546809 Ry
     estimated scf accuracy    <       0.16899957 Ry

     total magnetization       =     0.00 Bohr mag/cell
     absolute magnetization    =     0.00 Bohr mag/cell

     iteration #  2     ecut=    40.00 Ry     beta= 0.50
     Davidson diagonalization with overlap
     ethr =  1.54E-03,  avg # of iterations =  2.0

     total cpu time spent up to now is        5.7 secs

     total energy              =     -87.84718865 Ry
     estimated scf accuracy    <       0.25922662 Ry

     total magnetization       =    -0.00 Bohr mag/cell
     absolute magnetization    =     0.00 Bohr mag/cell

     iteration #  3     ecut=    40.00 Ry     beta= 0.50
     Davidson diagonalization with overlap
     ethr =  1.54E-03,  avg # of iterations =  1.0

     total cpu time spent up to now is        6.0 secs

     total energy              =     -87.84543906 Ry
     estimated scf accuracy    <       0.05769013 Ry

     total magnetization       =    -0.00 Bohr mag/cell
     absolute magnetization    =     0.00 Bohr mag/cell

     iteration #  4     ecut=    40.00 Ry     beta= 0.50
     Davidson diagonalization with overlap
     ethr =  5.24E-04,  avg # of iterations =  1.0

     total cpu time spent up to now is        6.4 secs

     total energy              =     -87.84449075 Ry
     estimated scf accuracy    <       0.01592755 Ry

     total magnetization       =    -0.00 Bohr mag/cell
     absolute magnetization    =     0.00 Bohr mag/cell

     iteration #  5     ecut=    40.00 Ry     beta= 0.50
     Davidson diagonalization with overlap
     ethr =  1.45E-04,  avg # of iterations =  1.0

     total cpu time spent up to now is        6.8 secs

     total energy              =     -87.84217889 Ry
     estimated scf accuracy    <       0.00606970 Ry

     total magnetization       =    -0.00 Bohr mag/cell
     absolute magnetization    =     0.00 Bohr mag/cell

     iteration #  6     ecut=    40.00 Ry     beta= 0.50
     Davidson diagonalization with overlap
     ethr =  5.52E-05,  avg # of iterations =  1.0

     total cpu time spent up to now is        7.2 secs

     total energy              =     -87.84306168 Ry
     estimated scf accuracy    <       0.00006111 Ry

     total magnetization       =    -0.00 Bohr mag/cell
     absolute magnetization    =     0.00 Bohr mag/cell

     iteration #  7     ecut=    40.00 Ry     beta= 0.50
     Davidson diagonalization with overlap
     ethr =  5.56E-07,  avg # of iterations =  2.0

     total cpu time spent up to now is        7.7 secs

     total energy              =     -87.84305464 Ry
     estimated scf accuracy    <       0.00015314 Ry

     total magnetization       =     0.00 Bohr mag/cell
     absolute magnetization    =     0.00 Bohr mag/cell

     iteration #  8     ecut=    40.00 Ry     beta= 0.50
     Davidson diagonalization with overlap
     ethr =  5.56E-07,  avg # of iterations =  2.0

     total cpu time spent up to now is        8.1 secs

     total energy              =     -87.84309763 Ry
     estimated scf accuracy    <       0.00000984 Ry

     total magnetization       =     0.00 Bohr mag/cell
     absolute magnetization    =     0.00 Bohr mag/cell

     iteration #  9     ecut=    40.00 Ry     beta= 0.50
     Davidson diagonalization with overlap
     ethr =  8.95E-08,  avg # of iterations =  1.0

     total cpu time spent up to now is        8.5 secs

     total energy              =     -87.84309724 Ry
     estimated scf accuracy    <       0.00000240 Ry

     total magnetization       =     0.00 Bohr mag/cell
     absolute magnetization    =     0.00 Bohr mag/cell

     iteration # 10     ecut=    40.00 Ry     beta= 0.50
     Davidson diagonalization with overlap
     ethr =  2.18E-08,  avg # of iterations =  1.0

     total cpu time spent up to now is        8.9 secs

     total energy              =     -87.84309738 Ry
     estimated scf accuracy    <       0.00000019 Ry

     total magnetization       =     0.00 Bohr mag/cell
     absolute magnetization    =     0.00 Bohr mag/cell

     iteration # 11     ecut=    40.00 Ry     beta= 0.50
     Davidson diagonalization with overlap
     ethr =  1.72E-09,  avg # of iterations =  1.2

     Magnetic moment per site  (integrated on atomic sphere of radius R)
     atom   1 (R=0.412)  charge=  9.7301  magn=  0.0000

     total cpu time spent up to now is        9.3 secs

     End of self-consistent calculation

     Number of k-points >= 100: set verbosity='high' to print the bands.

     the Fermi energy is    14.6016 ev

!    total energy              =     -87.84309742 Ry
     estimated scf accuracy    <          1.4E-09 Ry
     smearing contrib. (-TS)   =       0.00000140 Ry
     internal energy E=F+TS    =     -87.84309882 Ry

     The total energy is F=E-TS. E is the sum of the following terms:
     one-electron contribution =      -9.91473024 Ry
     hartree contribution      =      18.77905529 Ry
     xc contribution           =     -14.06012404 Ry
     ewald contribution        =     -82.64729983 Ry

     total magnetization       =     0.00 Bohr mag/cell
     absolute magnetization    =     0.00 Bohr mag/cell

     convergence has been achieved in  11 iterations

     Forces acting on atoms (cartesian axes, Ry/au):

     atom    1 type  1   force =     0.00000000    0.00000000    0.00000000
     The non-local contrib.  to forces
     atom    1 type  1   force =     0.00000000    0.00000000   -0.00000000
     The ionic contribution  to forces
     atom    1 type  1   force =    -0.00000000   -0.00000000   -0.00000000
     The local contribution  to forces
     atom    1 type  1   force =    -0.00000000   -0.00000000   -0.00000000
     The core correction contribution to forces
     atom    1 type  1   force =     0.00000000    0.00000000    0.00000000
     The Hubbard contrib.    to forces
     atom    1 type  1   force =     0.00000000    0.00000000    0.00000000
     The SCF correction term to forces
     atom    1 type  1   force =     0.00000000    0.00000000   -0.00000000

     Total force =     0.000000     Total SCF correction =     0.000000


     Computing stress (Cartesian axis) and pressure

          total   stress  (Ry/bohr**3)                   (kbar)     P=       -2.84
  -0.00001934   0.00000000   0.00000000           -2.84        0.00        0.00
   0.00000000  -0.00001934   0.00000000            0.00       -2.84        0.00
   0.00000000   0.00000000  -0.00001934            0.00        0.00       -2.84

     Energy error            =      8.7E-04 Ry
     Gradient error          =      0.0E+00 Ry/Bohr
     Cell gradient error     =      2.8E+00 kbar

     number of scf cycles    =   2
     number of bfgs steps    =   1

     enthalpy           old  =     -87.8422290652 Ry
     enthalpy           new  =     -87.8430974185 Ry

     CASE: enthalpy          _new < enthalpy          _old

     new trust radius        =       0.0008255908 bohr
     new conv_thr            =       0.0000000010 Ry

     new unit-cell volume =     75.50406 a.u.^3 (    11.18855 Ang^3 )
     density =      9.43113 g/cm^3

CELL_PARAMETERS (angstrom)
  -0.000000000   1.775202477   1.775202477
   1.775202477  -0.000000000   1.775202477
   1.775202477   1.775202477  -0.000000000

ATOMIC_POSITIONS (angstrom)
Cu            0.0000000000        0.0000000000        0.0000000000



     Writing config-only to output data dir /home/gridsan/epan1/labutil/lab3_samples/problem3/Lab3/Cu_a_3.5_ecut_40_nk_12/pwscf.save/
     NEW-OLD atomic charge density approx. for the potential
     extrapolated charge   10.98432, renormalised to   11.00000
     Generating pointlists ...

     total cpu time spent up to now is        9.6 secs

     Self-consistent Calculation

     iteration #  1     ecut=    40.00 Ry     beta= 0.50
     Davidson diagonalization with overlap
     ethr =  1.00E-06,  avg # of iterations =  2.0

     total cpu time spent up to now is       10.1 secs

     total energy              =     -87.84292628 Ry
     estimated scf accuracy    <       0.00016169 Ry

     total magnetization       =    -0.00 Bohr mag/cell
     absolute magnetization    =     0.00 Bohr mag/cell

     iteration #  2     ecut=    40.00 Ry     beta= 0.50
     Davidson diagonalization with overlap
     ethr =  1.47E-06,  avg # of iterations =  2.0

     total cpu time spent up to now is       10.6 secs

     total energy              =     -87.84309121 Ry
     estimated scf accuracy    <       0.00028251 Ry

     total magnetization       =    -0.00 Bohr mag/cell
     absolute magnetization    =     0.00 Bohr mag/cell

     iteration #  3     ecut=    40.00 Ry     beta= 0.50
     Davidson diagonalization with overlap
     ethr =  1.47E-06,  avg # of iterations =  1.0

     total cpu time spent up to now is       10.9 secs

     total energy              =     -87.84310473 Ry
     estimated scf accuracy    <       0.00004848 Ry

     total magnetization       =    -0.00 Bohr mag/cell
     absolute magnetization    =     0.00 Bohr mag/cell

     iteration #  4     ecut=    40.00 Ry     beta= 0.50
     Davidson diagonalization with overlap
     ethr =  4.41E-07,  avg # of iterations =  1.0

     total cpu time spent up to now is       11.3 secs

     total energy              =     -87.84309107 Ry
     estimated scf accuracy    <       0.00003308 Ry

     total magnetization       =    -0.00 Bohr mag/cell
     absolute magnetization    =     0.00 Bohr mag/cell

     iteration #  5     ecut=    40.00 Ry     beta= 0.50
     Davidson diagonalization with overlap
     ethr =  3.01E-07,  avg # of iterations =  1.0

     total cpu time spent up to now is       11.7 secs

     total energy              =     -87.84309474 Ry
     estimated scf accuracy    <       0.00000092 Ry

     total magnetization       =     0.00 Bohr mag/cell
     absolute magnetization    =     0.00 Bohr mag/cell

     iteration #  6     ecut=    40.00 Ry     beta= 0.50
     Davidson diagonalization with overlap
     ethr =  8.36E-09,  avg # of iterations =  2.0

     total cpu time spent up to now is       12.2 secs

     total energy              =     -87.84309500 Ry
     estimated scf accuracy    <       0.00000110 Ry

     total magnetization       =     0.00 Bohr mag/cell
     absolute magnetization    =     0.00 Bohr mag/cell

     iteration #  7     ecut=    40.00 Ry     beta= 0.50
     Davidson diagonalization with overlap
     ethr =  8.36E-09,  avg # of iterations =  1.1

     Magnetic moment per site  (integrated on atomic sphere of radius R)
     atom   1 (R=0.412)  charge=  9.7315  magn= -0.0000

     total cpu time spent up to now is       12.5 secs

     End of self-consistent calculation

     Number of k-points >= 100: set verbosity='high' to print the bands.

     the Fermi energy is    14.6300 ev

!    total energy              =     -87.84309520 Ry
     estimated scf accuracy    <          9.9E-10 Ry
     smearing contrib. (-TS)   =       0.00000209 Ry
     internal energy E=F+TS    =     -87.84309729 Ry

     The total energy is F=E-TS. E is the sum of the following terms:
     one-electron contribution =      -9.85500617 Ry
     hartree contribution      =      18.75948154 Ry
     xc contribution           =     -14.06101962 Ry
     ewald contribution        =     -82.68655305 Ry

     total magnetization       =     0.00 Bohr mag/cell
     absolute magnetization    =     0.00 Bohr mag/cell

     convergence has been achieved in   7 iterations

     Forces acting on atoms (cartesian axes, Ry/au):

     atom    1 type  1   force =     0.00000000    0.00000000    0.00000000
     The non-local contrib.  to forces
     atom    1 type  1   force =     0.00000000   -0.00000000    0.00000000
     The ionic contribution  to forces
     atom    1 type  1   force =    -0.00000000   -0.00000000   -0.00000000
     The local contribution  to forces
     atom    1 type  1   force =    -0.00000000   -0.00000000    0.00000000
     The core correction contribution to forces
     atom    1 type  1   force =     0.00000000    0.00000000    0.00000000
     The Hubbard contrib.    to forces
     atom    1 type  1   force =     0.00000000    0.00000000    0.00000000
     The SCF correction term to forces
     atom    1 type  1   force =     0.00000000    0.00000000    0.00000000

     Total force =     0.000000     Total SCF correction =     0.000000


     Computing stress (Cartesian axis) and pressure

          total   stress  (Ry/bohr**3)                   (kbar)     P=        1.16
   0.00000789   0.00000000  -0.00000000            1.16        0.00       -0.00
   0.00000000   0.00000789  -0.00000000            0.00        1.16       -0.00
  -0.00000000  -0.00000000   0.00000789           -0.00       -0.00        1.16

     Energy error            =      2.2E-06 Ry
     Gradient error          =      0.0E+00 Ry/Bohr
     Cell gradient error     =      1.2E+00 kbar

     number of scf cycles    =   3
     number of bfgs steps    =   2

     enthalpy           old  =     -87.8430974185 Ry
     enthalpy           new  =     -87.8430951993 Ry

     CASE: enthalpy          _new > enthalpy          _old

     new trust radius        =       0.0001997775 bohr
     new conv_thr            =       0.0000000010 Ry

     new unit-cell volume =     75.58563 a.u.^3 (    11.20063 Ang^3 )
     density =      9.42095 g/cm^3

CELL_PARAMETERS (angstrom)
  -0.000000000   1.775841536   1.775841536
   1.775841536  -0.000000000   1.775841536
   1.775841536   1.775841536  -0.000000000

ATOMIC_POSITIONS (angstrom)
Cu            0.0000000000        0.0000000000        0.0000000000



     Writing config-only to output data dir /home/gridsan/epan1/labutil/lab3_samples/problem3/Lab3/Cu_a_3.5_ecut_40_nk_12/pwscf.save/
     NEW-OLD atomic charge density approx. for the potential
     extrapolated charge   11.01187, renormalised to   11.00000
     Generating pointlists ...

     total cpu time spent up to now is       12.8 secs

     Self-consistent Calculation

     iteration #  1     ecut=    40.00 Ry     beta= 0.50
     Davidson diagonalization with overlap
     ethr =  1.00E-06,  avg # of iterations =  2.0

     total cpu time spent up to now is       13.3 secs

     total energy              =     -87.84299959 Ry
     estimated scf accuracy    <       0.00009409 Ry

     total magnetization       =     0.00 Bohr mag/cell
     absolute magnetization    =     0.00 Bohr mag/cell

     iteration #  2     ecut=    40.00 Ry     beta= 0.50
     Davidson diagonalization with overlap
     ethr =  8.55E-07,  avg # of iterations =  2.0

     total cpu time spent up to now is       13.8 secs

     total energy              =     -87.84309556 Ry
     estimated scf accuracy    <       0.00016365 Ry

     total magnetization       =     0.00 Bohr mag/cell
     absolute magnetization    =     0.00 Bohr mag/cell

     iteration #  3     ecut=    40.00 Ry     beta= 0.50
     Davidson diagonalization with overlap
     ethr =  8.55E-07,  avg # of iterations =  1.0

     total cpu time spent up to now is       14.3 secs

     total energy              =     -87.84310260 Ry
     estimated scf accuracy    <       0.00002833 Ry

     total magnetization       =     0.00 Bohr mag/cell
     absolute magnetization    =     0.00 Bohr mag/cell

     iteration #  4     ecut=    40.00 Ry     beta= 0.50
     Davidson diagonalization with overlap
     ethr =  2.58E-07,  avg # of iterations =  1.0

     total cpu time spent up to now is       14.8 secs

     total energy              =     -87.84309461 Ry
     estimated scf accuracy    <       0.00001726 Ry

     total magnetization       =     0.00 Bohr mag/cell
     absolute magnetization    =     0.00 Bohr mag/cell

     iteration #  5     ecut=    40.00 Ry     beta= 0.50
     Davidson diagonalization with overlap
     ethr =  1.57E-07,  avg # of iterations =  1.0

     total cpu time spent up to now is       15.2 secs

     total energy              =     -87.84309773 Ry
     estimated scf accuracy    <       0.00000001 Ry

     total magnetization       =    -0.00 Bohr mag/cell
     absolute magnetization    =     0.00 Bohr mag/cell

     iteration #  6     ecut=    40.00 Ry     beta= 0.50
     Davidson diagonalization with overlap
     ethr =  1.15E-10,  avg # of iterations =  2.8

     total cpu time spent up to now is       15.7 secs

     total energy              =     -87.84309765 Ry
     estimated scf accuracy    <       0.00000039 Ry

     total magnetization       =    -0.00 Bohr mag/cell
     absolute magnetization    =     0.00 Bohr mag/cell

     iteration #  7     ecut=    40.00 Ry     beta= 0.50
     Davidson diagonalization with overlap
     ethr =  1.15E-10,  avg # of iterations =  2.0

     Magnetic moment per site  (integrated on atomic sphere of radius R)
     atom   1 (R=0.412)  charge=  9.7304  magn= -0.0000

     total cpu time spent up to now is       16.2 secs

     End of self-consistent calculation

     Number of k-points >= 100: set verbosity='high' to print the bands.

     the Fermi energy is    14.6083 ev

!    total energy              =     -87.84309773 Ry
     estimated scf accuracy    <          9.7E-10 Ry
     smearing contrib. (-TS)   =       0.00000158 Ry
     internal energy E=F+TS    =     -87.84309931 Ry

     The total energy is F=E-TS. E is the sum of the following terms:
     one-electron contribution =      -9.90048425 Ry
     hartree contribution      =      18.77457716 Ry
     xc contribution           =     -14.06039502 Ry
     ewald contribution        =     -82.65679721 Ry

     total magnetization       =    -0.00 Bohr mag/cell
     absolute magnetization    =     0.00 Bohr mag/cell

     convergence has been achieved in   7 iterations

     Forces acting on atoms (cartesian axes, Ry/au):

     atom    1 type  1   force =     0.00000000    0.00000000    0.00000000
     The non-local contrib.  to forces
     atom    1 type  1   force =     0.00000000    0.00000000    0.00000000
     The ionic contribution  to forces
     atom    1 type  1   force =    -0.00000000   -0.00000000   -0.00000000
     The local contribution  to forces
     atom    1 type  1   force =    -0.00000000   -0.00000000   -0.00000000
     The core correction contribution to forces
     atom    1 type  1   force =     0.00000000    0.00000000    0.00000000
     The Hubbard contrib.    to forces
     atom    1 type  1   force =     0.00000000    0.00000000    0.00000000
     The SCF correction term to forces
     atom    1 type  1   force =    -0.00000000    0.00000000    0.00000000

     Total force =     0.000000     Total SCF correction =     0.000000


     Computing stress (Cartesian axis) and pressure

          total   stress  (Ry/bohr**3)                   (kbar)     P=       -0.76
  -0.00000519   0.00000000   0.00000000           -0.76        0.00        0.00
   0.00000000  -0.00000519  -0.00000000            0.00       -0.76       -0.00
  -0.00000000   0.00000000  -0.00000519           -0.00        0.00       -0.76

     Energy error            =      3.1E-07 Ry
     Gradient error          =      0.0E+00 Ry/Bohr
     Cell gradient error     =      7.6E-01 kbar

     number of scf cycles    =   4
     number of bfgs steps    =   2

     enthalpy           old  =     -87.8430974185 Ry
     enthalpy           new  =     -87.8430977299 Ry

     CASE: enthalpy          _new < enthalpy          _old

     small trust_radius: resetting bfgs history

     new trust radius        =       0.0001000000 bohr
     new conv_thr            =       0.0000000010 Ry

     new unit-cell volume =     75.57259 a.u.^3 (    11.19870 Ang^3 )
     density =      9.42258 g/cm^3

CELL_PARAMETERS (angstrom)
  -0.000000000   1.775739406   1.775739406
   1.775739406  -0.000000000   1.775739406
   1.775739406   1.775739406  -0.000000000

ATOMIC_POSITIONS (angstrom)
Cu            0.0000000000        0.0000000000        0.0000000000



     Writing config-only to output data dir /home/gridsan/epan1/labutil/lab3_samples/problem3/Lab3/Cu_a_3.5_ecut_40_nk_12/pwscf.save/
     NEW-OLD atomic charge density approx. for the potential
     extrapolated charge   10.99810, renormalised to   11.00000
     Generating pointlists ...

     total cpu time spent up to now is       16.6 secs

     Self-consistent Calculation

     iteration #  1     ecut=    40.00 Ry     beta= 0.50
     Davidson diagonalization with overlap
     ethr =  1.00E-06,  avg # of iterations =  2.0

     Threshold (ethr) on eigenvalues was too large:
     Diagonalizing with lowered threshold

     Davidson diagonalization with overlap
     ethr =  2.01E-08,  avg # of iterations =  1.0

     total cpu time spent up to now is       17.5 secs

     total energy              =     -87.84309404 Ry
     estimated scf accuracy    <       0.00000222 Ry

     total magnetization       =    -0.00 Bohr mag/cell
     absolute magnetization    =     0.00 Bohr mag/cell

     iteration #  2     ecut=    40.00 Ry     beta= 0.50
     Davidson diagonalization with overlap
     ethr =  2.02E-08,  avg # of iterations =  2.0

     total cpu time spent up to now is       18.0 secs

     total energy              =     -87.84309640 Ry
     estimated scf accuracy    <       0.00000410 Ry

     total magnetization       =    -0.00 Bohr mag/cell
     absolute magnetization    =     0.00 Bohr mag/cell

     iteration #  3     ecut=    40.00 Ry     beta= 0.50
     Davidson diagonalization with overlap
     ethr =  2.02E-08,  avg # of iterations =  1.0

     total cpu time spent up to now is       18.3 secs

     total energy              =     -87.84309657 Ry
     estimated scf accuracy    <       0.00000074 Ry

     total magnetization       =    -0.00 Bohr mag/cell
     absolute magnetization    =     0.00 Bohr mag/cell

     iteration #  4     ecut=    40.00 Ry     beta= 0.50
     Davidson diagonalization with overlap
     ethr =  6.73E-09,  avg # of iterations =  1.0

     total cpu time spent up to now is       18.7 secs

     total energy              =     -87.84309636 Ry
     estimated scf accuracy    <       0.00000047 Ry

     total magnetization       =    -0.00 Bohr mag/cell
     absolute magnetization    =     0.00 Bohr mag/cell

     iteration #  5     ecut=    40.00 Ry     beta= 0.50
     Davidson diagonalization with overlap
     ethr =  4.29E-09,  avg # of iterations =  1.0

     total cpu time spent up to now is       19.1 secs

     total energy              =     -87.84309643 Ry
     estimated scf accuracy    <          4.5E-09 Ry

     total magnetization       =     0.00 Bohr mag/cell
     absolute magnetization    =     0.00 Bohr mag/cell

     iteration #  6     ecut=    40.00 Ry     beta= 0.50
     Davidson diagonalization with overlap
     ethr =  4.10E-11,  avg # of iterations =  2.0

     total cpu time spent up to now is       19.6 secs

     total energy              =     -87.84309643 Ry
     estimated scf accuracy    <       0.00000001 Ry

     total magnetization       =     0.00 Bohr mag/cell
     absolute magnetization    =     0.00 Bohr mag/cell

     iteration #  7     ecut=    40.00 Ry     beta= 0.50
     Davidson diagonalization with overlap
     ethr =  4.10E-11,  avg # of iterations =  2.0

     Magnetic moment per site  (integrated on atomic sphere of radius R)
     atom   1 (R=0.412)  charge=  9.7306  magn=  0.0000

     total cpu time spent up to now is       20.1 secs

     End of self-consistent calculation

     Number of k-points >= 100: set verbosity='high' to print the bands.

     the Fermi energy is    14.6119 ev

!    total energy              =     -87.84309644 Ry
     estimated scf accuracy    <          2.6E-11 Ry
     smearing contrib. (-TS)   =       0.00000166 Ry
     internal energy E=F+TS    =     -87.84309809 Ry

     The total energy is F=E-TS. E is the sum of the following terms:
     one-electron contribution =      -9.89306279 Ry
     hartree contribution      =      18.77196955 Ry
     xc contribution           =     -14.06045370 Ry
     ewald contribution        =     -82.66155115 Ry

     total magnetization       =     0.00 Bohr mag/cell
     absolute magnetization    =     0.00 Bohr mag/cell

     convergence has been achieved in   7 iterations

     Forces acting on atoms (cartesian axes, Ry/au):

     atom    1 type  1   force =     0.00000000    0.00000000    0.00000000
     The non-local contrib.  to forces
     atom    1 type  1   force =     0.00000000    0.00000000    0.00000000
     The ionic contribution  to forces
     atom    1 type  1   force =    -0.00000000   -0.00000000   -0.00000000
     The local contribution  to forces
     atom    1 type  1   force =    -0.00000000   -0.00000000   -0.00000000
     The core correction contribution to forces
     atom    1 type  1   force =     0.00000000    0.00000000    0.00000000
     The Hubbard contrib.    to forces
     atom    1 type  1   force =     0.00000000    0.00000000    0.00000000
     The SCF correction term to forces
     atom    1 type  1   force =    -0.00000000   -0.00000000    0.00000000

     Total force =     0.000000     Total SCF correction =     0.000000


     Computing stress (Cartesian axis) and pressure

          total   stress  (Ry/bohr**3)                   (kbar)     P=       -1.28
  -0.00000868   0.00000000   0.00000000           -1.28        0.00        0.00
   0.00000000  -0.00000868   0.00000000            0.00       -1.28        0.00
   0.00000000   0.00000000  -0.00000868            0.00        0.00       -1.28

     Energy error            =      1.3E-06 Ry
     Gradient error          =      0.0E+00 Ry/Bohr
     Cell gradient error     =      1.3E+00 kbar

     number of scf cycles    =   5
     number of bfgs steps    =   3

     enthalpy           old  =     -87.8430977299 Ry
     enthalpy           new  =     -87.8430964356 Ry

     CASE: enthalpy          _new > enthalpy          _old

     new trust radius        =       0.0000024840 bohr

     trust_radius < trust_radius_min

     resetting bfgs history

     Message from routine bfgs:
     history already reset at previous step: stopping
     new conv_thr            =       0.0000000010 Ry

     new unit-cell volume =     75.55622 a.u.^3 (    11.19628 Ang^3 )
     density =      9.42462 g/cm^3

CELL_PARAMETERS (angstrom)
  -0.000000000   1.775611177   1.775611177
   1.775611177  -0.000000000   1.775611177
   1.775611177   1.775611177  -0.000000000

ATOMIC_POSITIONS (angstrom)
Cu            0.0000000000        0.0000000000        0.0000000000



     Writing config-only to output data dir /home/gridsan/epan1/labutil/lab3_samples/problem3/Lab3/Cu_a_3.5_ecut_40_nk_12/pwscf.save/
     NEW-OLD atomic charge density approx. for the potential
     extrapolated charge   10.99762, renormalised to   11.00000
     Generating pointlists ...

     total cpu time spent up to now is       20.4 secs

     Self-consistent Calculation

     iteration #  1     ecut=    40.00 Ry     beta= 0.50
     Davidson diagonalization with overlap
     ethr =  1.00E-06,  avg # of iterations =  2.0

     Threshold (ethr) on eigenvalues was too large:
     Diagonalizing with lowered threshold

     Davidson diagonalization with overlap
     ethr =  3.42E-08,  avg # of iterations =  1.0

     total cpu time spent up to now is       21.2 secs

     total energy              =     -87.84309119 Ry
     estimated scf accuracy    <       0.00000378 Ry

     total magnetization       =     0.00 Bohr mag/cell
     absolute magnetization    =     0.00 Bohr mag/cell

     iteration #  2     ecut=    40.00 Ry     beta= 0.50
     Davidson diagonalization with overlap
     ethr =  3.43E-08,  avg # of iterations =  2.0

     total cpu time spent up to now is       21.7 secs

     total energy              =     -87.84309504 Ry
     estimated scf accuracy    <       0.00000660 Ry

     total magnetization       =     0.00 Bohr mag/cell
     absolute magnetization    =     0.00 Bohr mag/cell

     iteration #  3     ecut=    40.00 Ry     beta= 0.50
     Davidson diagonalization with overlap
     ethr =  3.43E-08,  avg # of iterations =  1.0

     total cpu time spent up to now is       22.1 secs

     total energy              =     -87.84309536 Ry
     estimated scf accuracy    <       0.00000114 Ry

     total magnetization       =     0.00 Bohr mag/cell
     absolute magnetization    =     0.00 Bohr mag/cell

     iteration #  4     ecut=    40.00 Ry     beta= 0.50
     Davidson diagonalization with overlap
     ethr =  1.03E-08,  avg # of iterations =  1.0

     total cpu time spent up to now is       22.5 secs

     total energy              =     -87.84309502 Ry
     estimated scf accuracy    <       0.00000078 Ry

     total magnetization       =     0.00 Bohr mag/cell
     absolute magnetization    =     0.00 Bohr mag/cell

     iteration #  5     ecut=    40.00 Ry     beta= 0.50
     Davidson diagonalization with overlap
     ethr =  7.11E-09,  avg # of iterations =  1.0

     total cpu time spent up to now is       22.8 secs

     total energy              =     -87.84309513 Ry
     estimated scf accuracy    <       0.00000001 Ry

     total magnetization       =     0.00 Bohr mag/cell
     absolute magnetization    =     0.00 Bohr mag/cell

     iteration #  6     ecut=    40.00 Ry     beta= 0.50
     Davidson diagonalization with overlap
     ethr =  1.21E-10,  avg # of iterations =  2.0

     total cpu time spent up to now is       23.3 secs

     total energy              =     -87.84309513 Ry
     estimated scf accuracy    <       0.00000003 Ry

     total magnetization       =     0.00 Bohr mag/cell
     absolute magnetization    =     0.00 Bohr mag/cell

     iteration #  7     ecut=    40.00 Ry     beta= 0.50
     Davidson diagonalization with overlap
     ethr =  1.21E-10,  avg # of iterations =  1.5

     Magnetic moment per site  (integrated on atomic sphere of radius R)
     atom   1 (R=0.412)  charge=  9.7308  magn=  0.0000

     total cpu time spent up to now is       23.7 secs

     End of self-consistent calculation

     Number of k-points >= 100: set verbosity='high' to print the bands.

     the Fermi energy is    14.6162 ev

!    total energy              =     -87.84309513 Ry
     estimated scf accuracy    <          4.0E-12 Ry
     smearing contrib. (-TS)   =       0.00000176 Ry
     internal energy E=F+TS    =     -87.84309689 Ry

     The total energy is F=E-TS. E is the sum of the following terms:
     one-electron contribution =      -9.88394955 Ry
     hartree contribution      =      18.76895447 Ry
     xc contribution           =     -14.06058109 Ry
     ewald contribution        =     -82.66752073 Ry

     total magnetization       =     0.00 Bohr mag/cell
     absolute magnetization    =     0.00 Bohr mag/cell

     convergence has been achieved in   7 iterations

     Forces acting on atoms (cartesian axes, Ry/au):

     atom    1 type  1   force =     0.00000000    0.00000000    0.00000000
     The non-local contrib.  to forces
     atom    1 type  1   force =     0.00000000    0.00000000   -0.00000000
     The ionic contribution  to forces
     atom    1 type  1   force =    -0.00000000   -0.00000000   -0.00000000
     The local contribution  to forces
     atom    1 type  1   force =     0.00000000    0.00000000   -0.00000000
     The core correction contribution to forces
     atom    1 type  1   force =     0.00000000    0.00000000    0.00000000
     The Hubbard contrib.    to forces
     atom    1 type  1   force =     0.00000000    0.00000000    0.00000000
     The SCF correction term to forces
     atom    1 type  1   force =    -0.00000000   -0.00000000    0.00000000

     Total force =     0.000000     Total SCF correction =     0.000000


     Computing stress (Cartesian axis) and pressure

          total   stress  (Ry/bohr**3)                   (kbar)     P=       -0.82
  -0.00000558   0.00000000  -0.00000000           -0.82        0.00       -0.00
   0.00000000  -0.00000558   0.00000000            0.00       -0.82        0.00
  -0.00000000   0.00000000  -0.00000558           -0.00        0.00       -0.82

     Message from routine bfgs:
     history already reset at previous step: exiting
     Energy error            =      2.6E-06 Ry
     Gradient error          =      0.0E+00 Ry/Bohr
     Cell gradient error     =      8.2E-01 kbar
Begin final coordinates
     new unit-cell volume =     75.55622 a.u.^3 (    11.19628 Ang^3 )
     density =      9.42462 g/cm^3

CELL_PARAMETERS (angstrom)
  -0.000000000   1.775611177   1.775611177
   1.775611177  -0.000000000   1.775611177
   1.775611177   1.775611177  -0.000000000

ATOMIC_POSITIONS (angstrom)
Cu            0.0000000000        0.0000000000        0.0000000000
End final coordinates



     Writing config-only to output data dir /home/gridsan/epan1/labutil/lab3_samples/problem3/Lab3/Cu_a_3.5_ecut_40_nk_12/pwscf.save/

     init_run     :      0.32s CPU      0.32s WALL (       1 calls)
     electrons    :     20.50s CPU     21.83s WALL (       6 calls)
     update_pot   :      0.21s CPU      0.21s WALL (       5 calls)
     forces       :      0.43s CPU      0.39s WALL (       6 calls)
     stress       :      0.70s CPU      0.70s WALL (       6 calls)

     Called by init_run:
     wfcinit      :      0.10s CPU      0.10s WALL (       1 calls)
     potinit      :      0.11s CPU      0.11s WALL (       1 calls)
     hinit0       :      0.11s CPU      0.11s WALL (       1 calls)

     Called by electrons:
     c_bands      :     17.79s CPU     19.23s WALL (      50 calls)
     sum_band     :      2.42s CPU      2.30s WALL (      50 calls)
     v_of_rho     :      0.08s CPU      0.08s WALL (      54 calls)
     newd         :      0.10s CPU      0.10s WALL (      54 calls)
     mix_rho      :      0.05s CPU      0.05s WALL (      50 calls)

     Called by c_bands:
     init_us_2    :      0.37s CPU      0.35s WALL (   16272 calls)
     init_us_2:cp :      0.34s CPU      0.33s WALL (   16272 calls)
     cegterg      :     14.41s CPU     14.05s WALL (    7200 calls)

     Called by *egterg:
     cdiaghg      :      3.37s CPU      3.28s WALL (   17817 calls)
     h_psi        :      8.39s CPU      8.18s WALL (   18969 calls)
     s_psi        :      0.14s CPU      0.14s WALL (   18969 calls)
     g_psi        :      0.04s CPU      0.04s WALL (   11625 calls)

     Called by h_psi:
     h_psi:calbec :      0.81s CPU      0.79s WALL (   18969 calls)
     vloc_psi     :      7.32s CPU      7.14s WALL (   18969 calls)
     add_vuspsi   :      0.15s CPU      0.15s WALL (   18969 calls)

     General routines
     calbec       :      1.32s CPU      1.26s WALL (   30489 calls)
     fft          :      0.18s CPU      0.18s WALL (     609 calls)
     ffts         :      0.11s CPU      0.11s WALL (     208 calls)
     fftw         :      7.37s CPU      7.13s WALL (  408398 calls)
     interpolate  :      0.12s CPU      0.12s WALL (     108 calls)
     davcio       :      0.00s CPU      0.00s WALL (     144 calls)

     Parallel routines

     PWSCF        :     22.47s CPU     23.98s WALL


   This run was terminated on:  10:56:33   3Nov2023            

=------------------------------------------------------------------------------=
   JOB DONE.
=------------------------------------------------------------------------------=
