Header of the LAMMPS data file 

2048 atoms 
1 atom types

0.0 32.8  xlo xhi
0.0 32.8  ylo yhi
0.0 32.8  zlo zhi

Masses 

1  107.8682

Atoms # atomic 

1 1 0.00000 0.00000 0.00000 
2 1 0.00000 2.05000 2.05000 
3 1 2.05000 0.00000 2.05000 
4 1 2.05000 2.05000 0.00000 
5 1 0.00000 0.00000 4.10000 
6 1 0.00000 2.05000 6.15000 
7 1 2.05000 0.00000 6.15000 
8 1 2.05000 2.05000 4.10000 
9 1 0.00000 0.00000 8.20000 
10 1 0.00000 2.05000 10.25000 
11 1 2.05000 0.00000 10.25000 
12 1 2.05000 2.05000 8.20000 
13 1 0.00000 0.00000 12.30000 
14 1 0.00000 2.05000 14.35000 
15 1 2.05000 0.00000 14.35000 
16 1 2.05000 2.05000 12.30000 
17 1 0.00000 0.00000 16.40000 
18 1 0.00000 2.05000 18.45000 
19 1 2.05000 0.00000 18.45000 
20 1 2.05000 2.05000 16.40000 
21 1 0.00000 0.00000 20.50000 
22 1 0.00000 2.05000 22.55000 
23 1 2.05000 0.00000 22.55000 
24 1 2.05000 2.05000 20.50000 
25 1 0.00000 0.00000 24.60000 
26 1 0.00000 2.05000 26.65000 
27 1 2.05000 0.00000 26.65000 
28 1 2.05000 2.05000 24.60000 
29 1 0.00000 0.00000 28.70000 
30 1 0.00000 2.05000 30.75000 
31 1 2.05000 0.00000 30.75000 
32 1 2.05000 2.05000 28.70000 
33 1 0.00000 4.10000 0.00000 
34 1 0.00000 6.15000 2.05000 
35 1 2.05000 4.10000 2.05000 
36 1 2.05000 6.15000 0.00000 
37 1 0.00000 4.10000 4.10000 
38 1 0.00000 6.15000 6.15000 
39 1 2.05000 4.10000 6.15000 
40 1 2.05000 6.15000 4.10000 
41 1 0.00000 4.10000 8.20000 
42 1 0.00000 6.15000 10.25000 
43 1 2.05000 4.10000 10.25000 
44 1 2.05000 6.15000 8.20000 
45 1 0.00000 4.10000 12.30000 
46 1 0.00000 6.15000 14.35000 
47 1 2.05000 4.10000 14.35000 
48 1 2.05000 6.15000 12.30000 
49 1 0.00000 4.10000 16.40000 
50 1 0.00000 6.15000 18.45000 
51 1 2.05000 4.10000 18.45000 
52 1 2.05000 6.15000 16.40000 
53 1 0.00000 4.10000 20.50000 
54 1 0.00000 6.15000 22.55000 
55 1 2.05000 4.10000 22.55000 
56 1 2.05000 6.15000 20.50000 
57 1 0.00000 4.10000 24.60000 
58 1 0.00000 6.15000 26.65000 
59 1 2.05000 4.10000 26.65000 
60 1 2.05000 6.15000 24.60000 
61 1 0.00000 4.10000 28.70000 
62 1 0.00000 6.15000 30.75000 
63 1 2.05000 4.10000 30.75000 
64 1 2.05000 6.15000 28.70000 
65 1 0.00000 8.20000 0.00000 
66 1 0.00000 10.25000 2.05000 
67 1 2.05000 8.20000 2.05000 
68 1 2.05000 10.25000 0.00000 
69 1 0.00000 8.20000 4.10000 
70 1 0.00000 10.25000 6.15000 
71 1 2.05000 8.20000 6.15000 
72 1 2.05000 10.25000 4.10000 
73 1 0.00000 8.20000 8.20000 
74 1 0.00000 10.25000 10.25000 
75 1 2.05000 8.20000 10.25000 
76 1 2.05000 10.25000 8.20000 
77 1 0.00000 8.20000 12.30000 
78 1 0.00000 10.25000 14.35000 
79 1 2.05000 8.20000 14.35000 
80 1 2.05000 10.25000 12.30000 
81 1 0.00000 8.20000 16.40000 
82 1 0.00000 10.25000 18.45000 
83 1 2.05000 8.20000 18.45000 
84 1 2.05000 10.25000 16.40000 
85 1 0.00000 8.20000 20.50000 
86 1 0.00000 10.25000 22.55000 
87 1 2.05000 8.20000 22.55000 
88 1 2.05000 10.25000 20.50000 
89 1 0.00000 8.20000 24.60000 
90 1 0.00000 10.25000 26.65000 
91 1 2.05000 8.20000 26.65000 
92 1 2.05000 10.25000 24.60000 
93 1 0.00000 8.20000 28.70000 
94 1 0.00000 10.25000 30.75000 
95 1 2.05000 8.20000 30.75000 
96 1 2.05000 10.25000 28.70000 
97 1 0.00000 12.30000 0.00000 
98 1 0.00000 14.35000 2.05000 
99 1 2.05000 12.30000 2.05000 
100 1 2.05000 14.35000 0.00000 
101 1 0.00000 12.30000 4.10000 
102 1 0.00000 14.35000 6.15000 
103 1 2.05000 12.30000 6.15000 
104 1 2.05000 14.35000 4.10000 
105 1 0.00000 12.30000 8.20000 
106 1 0.00000 14.35000 10.25000 
107 1 2.05000 12.30000 10.25000 
108 1 2.05000 14.35000 8.20000 
109 1 0.00000 12.30000 12.30000 
110 1 0.00000 14.35000 14.35000 
111 1 2.05000 12.30000 14.35000 
112 1 2.05000 14.35000 12.30000 
113 1 0.00000 12.30000 16.40000 
114 1 0.00000 14.35000 18.45000 
115 1 2.05000 12.30000 18.45000 
116 1 2.05000 14.35000 16.40000 
117 1 0.00000 12.30000 20.50000 
118 1 0.00000 14.35000 22.55000 
119 1 2.05000 12.30000 22.55000 
120 1 2.05000 14.35000 20.50000 
121 1 0.00000 12.30000 24.60000 
122 1 0.00000 14.35000 26.65000 
123 1 2.05000 12.30000 26.65000 
124 1 2.05000 14.35000 24.60000 
125 1 0.00000 12.30000 28.70000 
126 1 0.00000 14.35000 30.75000 
127 1 2.05000 12.30000 30.75000 
128 1 2.05000 14.35000 28.70000 
129 1 0.00000 16.40000 0.00000 
130 1 0.00000 18.45000 2.05000 
131 1 2.05000 16.40000 2.05000 
132 1 2.05000 18.45000 0.00000 
133 1 0.00000 16.40000 4.10000 
134 1 0.00000 18.45000 6.15000 
135 1 2.05000 16.40000 6.15000 
136 1 2.05000 18.45000 4.10000 
137 1 0.00000 16.40000 8.20000 
138 1 0.00000 18.45000 10.25000 
139 1 2.05000 16.40000 10.25000 
140 1 2.05000 18.45000 8.20000 
141 1 0.00000 16.40000 12.30000 
142 1 0.00000 18.45000 14.35000 
143 1 2.05000 16.40000 14.35000 
144 1 2.05000 18.45000 12.30000 
145 1 0.00000 16.40000 16.40000 
146 1 0.00000 18.45000 18.45000 
147 1 2.05000 16.40000 18.45000 
148 1 2.05000 18.45000 16.40000 
149 1 0.00000 16.40000 20.50000 
150 1 0.00000 18.45000 22.55000 
151 1 2.05000 16.40000 22.55000 
152 1 2.05000 18.45000 20.50000 
153 1 0.00000 16.40000 24.60000 
154 1 0.00000 18.45000 26.65000 
155 1 2.05000 16.40000 26.65000 
156 1 2.05000 18.45000 24.60000 
157 1 0.00000 16.40000 28.70000 
158 1 0.00000 18.45000 30.75000 
159 1 2.05000 16.40000 30.75000 
160 1 2.05000 18.45000 28.70000 
161 1 0.00000 20.50000 0.00000 
162 1 0.00000 22.55000 2.05000 
163 1 2.05000 20.50000 2.05000 
164 1 2.05000 22.55000 0.00000 
165 1 0.00000 20.50000 4.10000 
166 1 0.00000 22.55000 6.15000 
167 1 2.05000 20.50000 6.15000 
168 1 2.05000 22.55000 4.10000 
169 1 0.00000 20.50000 8.20000 
170 1 0.00000 22.55000 10.25000 
171 1 2.05000 20.50000 10.25000 
172 1 2.05000 22.55000 8.20000 
173 1 0.00000 20.50000 12.30000 
174 1 0.00000 22.55000 14.35000 
175 1 2.05000 20.50000 14.35000 
176 1 2.05000 22.55000 12.30000 
177 1 0.00000 20.50000 16.40000 
178 1 0.00000 22.55000 18.45000 
179 1 2.05000 20.50000 18.45000 
180 1 2.05000 22.55000 16.40000 
181 1 0.00000 20.50000 20.50000 
182 1 0.00000 22.55000 22.55000 
183 1 2.05000 20.50000 22.55000 
184 1 2.05000 22.55000 20.50000 
185 1 0.00000 20.50000 24.60000 
186 1 0.00000 22.55000 26.65000 
187 1 2.05000 20.50000 26.65000 
188 1 2.05000 22.55000 24.60000 
189 1 0.00000 20.50000 28.70000 
190 1 0.00000 22.55000 30.75000 
191 1 2.05000 20.50000 30.75000 
192 1 2.05000 22.55000 28.70000 
193 1 0.00000 24.60000 0.00000 
194 1 0.00000 26.65000 2.05000 
195 1 2.05000 24.60000 2.05000 
196 1 2.05000 26.65000 0.00000 
197 1 0.00000 24.60000 4.10000 
198 1 0.00000 26.65000 6.15000 
199 1 2.05000 24.60000 6.15000 
200 1 2.05000 26.65000 4.10000 
201 1 0.00000 24.60000 8.20000 
202 1 0.00000 26.65000 10.25000 
203 1 2.05000 24.60000 10.25000 
204 1 2.05000 26.65000 8.20000 
205 1 0.00000 24.60000 12.30000 
206 1 0.00000 26.65000 14.35000 
207 1 2.05000 24.60000 14.35000 
208 1 2.05000 26.65000 12.30000 
209 1 0.00000 24.60000 16.40000 
210 1 0.00000 26.65000 18.45000 
211 1 2.05000 24.60000 18.45000 
212 1 2.05000 26.65000 16.40000 
213 1 0.00000 24.60000 20.50000 
214 1 0.00000 26.65000 22.55000 
215 1 2.05000 24.60000 22.55000 
216 1 2.05000 26.65000 20.50000 
217 1 0.00000 24.60000 24.60000 
218 1 0.00000 26.65000 26.65000 
219 1 2.05000 24.60000 26.65000 
220 1 2.05000 26.65000 24.60000 
221 1 0.00000 24.60000 28.70000 
222 1 0.00000 26.65000 30.75000 
223 1 2.05000 24.60000 30.75000 
224 1 2.05000 26.65000 28.70000 
225 1 0.00000 28.70000 0.00000 
226 1 0.00000 30.75000 2.05000 
227 1 2.05000 28.70000 2.05000 
228 1 2.05000 30.75000 0.00000 
229 1 0.00000 28.70000 4.10000 
230 1 0.00000 30.75000 6.15000 
231 1 2.05000 28.70000 6.15000 
232 1 2.05000 30.75000 4.10000 
233 1 0.00000 28.70000 8.20000 
234 1 0.00000 30.75000 10.25000 
235 1 2.05000 28.70000 10.25000 
236 1 2.05000 30.75000 8.20000 
237 1 0.00000 28.70000 12.30000 
238 1 0.00000 30.75000 14.35000 
239 1 2.05000 28.70000 14.35000 
240 1 2.05000 30.75000 12.30000 
241 1 0.00000 28.70000 16.40000 
242 1 0.00000 30.75000 18.45000 
243 1 2.05000 28.70000 18.45000 
244 1 2.05000 30.75000 16.40000 
245 1 0.00000 28.70000 20.50000 
246 1 0.00000 30.75000 22.55000 
247 1 2.05000 28.70000 22.55000 
248 1 2.05000 30.75000 20.50000 
249 1 0.00000 28.70000 24.60000 
250 1 0.00000 30.75000 26.65000 
251 1 2.05000 28.70000 26.65000 
252 1 2.05000 30.75000 24.60000 
253 1 0.00000 28.70000 28.70000 
254 1 0.00000 30.75000 30.75000 
255 1 2.05000 28.70000 30.75000 
256 1 2.05000 30.75000 28.70000 
257 1 4.10000 0.00000 0.00000 
258 1 4.10000 2.05000 2.05000 
259 1 6.15000 0.00000 2.05000 
260 1 6.15000 2.05000 0.00000 
261 1 4.10000 0.00000 4.10000 
262 1 4.10000 2.05000 6.15000 
263 1 6.15000 0.00000 6.15000 
264 1 6.15000 2.05000 4.10000 
265 1 4.10000 0.00000 8.20000 
266 1 4.10000 2.05000 10.25000 
267 1 6.15000 0.00000 10.25000 
268 1 6.15000 2.05000 8.20000 
269 1 4.10000 0.00000 12.30000 
270 1 4.10000 2.05000 14.35000 
271 1 6.15000 0.00000 14.35000 
272 1 6.15000 2.05000 12.30000 
273 1 4.10000 0.00000 16.40000 
274 1 4.10000 2.05000 18.45000 
275 1 6.15000 0.00000 18.45000 
276 1 6.15000 2.05000 16.40000 
277 1 4.10000 0.00000 20.50000 
278 1 4.10000 2.05000 22.55000 
279 1 6.15000 0.00000 22.55000 
280 1 6.15000 2.05000 20.50000 
281 1 4.10000 0.00000 24.60000 
282 1 4.10000 2.05000 26.65000 
283 1 6.15000 0.00000 26.65000 
284 1 6.15000 2.05000 24.60000 
285 1 4.10000 0.00000 28.70000 
286 1 4.10000 2.05000 30.75000 
287 1 6.15000 0.00000 30.75000 
288 1 6.15000 2.05000 28.70000 
289 1 4.10000 4.10000 0.00000 
290 1 4.10000 6.15000 2.05000 
291 1 6.15000 4.10000 2.05000 
292 1 6.15000 6.15000 0.00000 
293 1 4.10000 4.10000 4.10000 
294 1 4.10000 6.15000 6.15000 
295 1 6.15000 4.10000 6.15000 
296 1 6.15000 6.15000 4.10000 
297 1 4.10000 4.10000 8.20000 
298 1 4.10000 6.15000 10.25000 
299 1 6.15000 4.10000 10.25000 
300 1 6.15000 6.15000 8.20000 
301 1 4.10000 4.10000 12.30000 
302 1 4.10000 6.15000 14.35000 
303 1 6.15000 4.10000 14.35000 
304 1 6.15000 6.15000 12.30000 
305 1 4.10000 4.10000 16.40000 
306 1 4.10000 6.15000 18.45000 
307 1 6.15000 4.10000 18.45000 
308 1 6.15000 6.15000 16.40000 
309 1 4.10000 4.10000 20.50000 
310 1 4.10000 6.15000 22.55000 
311 1 6.15000 4.10000 22.55000 
312 1 6.15000 6.15000 20.50000 
313 1 4.10000 4.10000 24.60000 
314 1 4.10000 6.15000 26.65000 
315 1 6.15000 4.10000 26.65000 
316 1 6.15000 6.15000 24.60000 
317 1 4.10000 4.10000 28.70000 
318 1 4.10000 6.15000 30.75000 
319 1 6.15000 4.10000 30.75000 
320 1 6.15000 6.15000 28.70000 
321 1 4.10000 8.20000 0.00000 
322 1 4.10000 10.25000 2.05000 
323 1 6.15000 8.20000 2.05000 
324 1 6.15000 10.25000 0.00000 
325 1 4.10000 8.20000 4.10000 
326 1 4.10000 10.25000 6.15000 
327 1 6.15000 8.20000 6.15000 
328 1 6.15000 10.25000 4.10000 
329 1 4.10000 8.20000 8.20000 
330 1 4.10000 10.25000 10.25000 
331 1 6.15000 8.20000 10.25000 
332 1 6.15000 10.25000 8.20000 
333 1 4.10000 8.20000 12.30000 
334 1 4.10000 10.25000 14.35000 
335 1 6.15000 8.20000 14.35000 
336 1 6.15000 10.25000 12.30000 
337 1 4.10000 8.20000 16.40000 
338 1 4.10000 10.25000 18.45000 
339 1 6.15000 8.20000 18.45000 
340 1 6.15000 10.25000 16.40000 
341 1 4.10000 8.20000 20.50000 
342 1 4.10000 10.25000 22.55000 
343 1 6.15000 8.20000 22.55000 
344 1 6.15000 10.25000 20.50000 
345 1 4.10000 8.20000 24.60000 
346 1 4.10000 10.25000 26.65000 
347 1 6.15000 8.20000 26.65000 
348 1 6.15000 10.25000 24.60000 
349 1 4.10000 8.20000 28.70000 
350 1 4.10000 10.25000 30.75000 
351 1 6.15000 8.20000 30.75000 
352 1 6.15000 10.25000 28.70000 
353 1 4.10000 12.30000 0.00000 
354 1 4.10000 14.35000 2.05000 
355 1 6.15000 12.30000 2.05000 
356 1 6.15000 14.35000 0.00000 
357 1 4.10000 12.30000 4.10000 
358 1 4.10000 14.35000 6.15000 
359 1 6.15000 12.30000 6.15000 
360 1 6.15000 14.35000 4.10000 
361 1 4.10000 12.30000 8.20000 
362 1 4.10000 14.35000 10.25000 
363 1 6.15000 12.30000 10.25000 
364 1 6.15000 14.35000 8.20000 
365 1 4.10000 12.30000 12.30000 
366 1 4.10000 14.35000 14.35000 
367 1 6.15000 12.30000 14.35000 
368 1 6.15000 14.35000 12.30000 
369 1 4.10000 12.30000 16.40000 
370 1 4.10000 14.35000 18.45000 
371 1 6.15000 12.30000 18.45000 
372 1 6.15000 14.35000 16.40000 
373 1 4.10000 12.30000 20.50000 
374 1 4.10000 14.35000 22.55000 
375 1 6.15000 12.30000 22.55000 
376 1 6.15000 14.35000 20.50000 
377 1 4.10000 12.30000 24.60000 
378 1 4.10000 14.35000 26.65000 
379 1 6.15000 12.30000 26.65000 
380 1 6.15000 14.35000 24.60000 
381 1 4.10000 12.30000 28.70000 
382 1 4.10000 14.35000 30.75000 
383 1 6.15000 12.30000 30.75000 
384 1 6.15000 14.35000 28.70000 
385 1 4.10000 16.40000 0.00000 
386 1 4.10000 18.45000 2.05000 
387 1 6.15000 16.40000 2.05000 
388 1 6.15000 18.45000 0.00000 
389 1 4.10000 16.40000 4.10000 
390 1 4.10000 18.45000 6.15000 
391 1 6.15000 16.40000 6.15000 
392 1 6.15000 18.45000 4.10000 
393 1 4.10000 16.40000 8.20000 
394 1 4.10000 18.45000 10.25000 
395 1 6.15000 16.40000 10.25000 
396 1 6.15000 18.45000 8.20000 
397 1 4.10000 16.40000 12.30000 
398 1 4.10000 18.45000 14.35000 
399 1 6.15000 16.40000 14.35000 
400 1 6.15000 18.45000 12.30000 
401 1 4.10000 16.40000 16.40000 
402 1 4.10000 18.45000 18.45000 
403 1 6.15000 16.40000 18.45000 
404 1 6.15000 18.45000 16.40000 
405 1 4.10000 16.40000 20.50000 
406 1 4.10000 18.45000 22.55000 
407 1 6.15000 16.40000 22.55000 
408 1 6.15000 18.45000 20.50000 
409 1 4.10000 16.40000 24.60000 
410 1 4.10000 18.45000 26.65000 
411 1 6.15000 16.40000 26.65000 
412 1 6.15000 18.45000 24.60000 
413 1 4.10000 16.40000 28.70000 
414 1 4.10000 18.45000 30.75000 
415 1 6.15000 16.40000 30.75000 
416 1 6.15000 18.45000 28.70000 
417 1 4.10000 20.50000 0.00000 
418 1 4.10000 22.55000 2.05000 
419 1 6.15000 20.50000 2.05000 
420 1 6.15000 22.55000 0.00000 
421 1 4.10000 20.50000 4.10000 
422 1 4.10000 22.55000 6.15000 
423 1 6.15000 20.50000 6.15000 
424 1 6.15000 22.55000 4.10000 
425 1 4.10000 20.50000 8.20000 
426 1 4.10000 22.55000 10.25000 
427 1 6.15000 20.50000 10.25000 
428 1 6.15000 22.55000 8.20000 
429 1 4.10000 20.50000 12.30000 
430 1 4.10000 22.55000 14.35000 
431 1 6.15000 20.50000 14.35000 
432 1 6.15000 22.55000 12.30000 
433 1 4.10000 20.50000 16.40000 
434 1 4.10000 22.55000 18.45000 
435 1 6.15000 20.50000 18.45000 
436 1 6.15000 22.55000 16.40000 
437 1 4.10000 20.50000 20.50000 
438 1 4.10000 22.55000 22.55000 
439 1 6.15000 20.50000 22.55000 
440 1 6.15000 22.55000 20.50000 
441 1 4.10000 20.50000 24.60000 
442 1 4.10000 22.55000 26.65000 
443 1 6.15000 20.50000 26.65000 
444 1 6.15000 22.55000 24.60000 
445 1 4.10000 20.50000 28.70000 
446 1 4.10000 22.55000 30.75000 
447 1 6.15000 20.50000 30.75000 
448 1 6.15000 22.55000 28.70000 
449 1 4.10000 24.60000 0.00000 
450 1 4.10000 26.65000 2.05000 
451 1 6.15000 24.60000 2.05000 
452 1 6.15000 26.65000 0.00000 
453 1 4.10000 24.60000 4.10000 
454 1 4.10000 26.65000 6.15000 
455 1 6.15000 24.60000 6.15000 
456 1 6.15000 26.65000 4.10000 
457 1 4.10000 24.60000 8.20000 
458 1 4.10000 26.65000 10.25000 
459 1 6.15000 24.60000 10.25000 
460 1 6.15000 26.65000 8.20000 
461 1 4.10000 24.60000 12.30000 
462 1 4.10000 26.65000 14.35000 
463 1 6.15000 24.60000 14.35000 
464 1 6.15000 26.65000 12.30000 
465 1 4.10000 24.60000 16.40000 
466 1 4.10000 26.65000 18.45000 
467 1 6.15000 24.60000 18.45000 
468 1 6.15000 26.65000 16.40000 
469 1 4.10000 24.60000 20.50000 
470 1 4.10000 26.65000 22.55000 
471 1 6.15000 24.60000 22.55000 
472 1 6.15000 26.65000 20.50000 
473 1 4.10000 24.60000 24.60000 
474 1 4.10000 26.65000 26.65000 
475 1 6.15000 24.60000 26.65000 
476 1 6.15000 26.65000 24.60000 
477 1 4.10000 24.60000 28.70000 
478 1 4.10000 26.65000 30.75000 
479 1 6.15000 24.60000 30.75000 
480 1 6.15000 26.65000 28.70000 
481 1 4.10000 28.70000 0.00000 
482 1 4.10000 30.75000 2.05000 
483 1 6.15000 28.70000 2.05000 
484 1 6.15000 30.75000 0.00000 
485 1 4.10000 28.70000 4.10000 
486 1 4.10000 30.75000 6.15000 
487 1 6.15000 28.70000 6.15000 
488 1 6.15000 30.75000 4.10000 
489 1 4.10000 28.70000 8.20000 
490 1 4.10000 30.75000 10.25000 
491 1 6.15000 28.70000 10.25000 
492 1 6.15000 30.75000 8.20000 
493 1 4.10000 28.70000 12.30000 
494 1 4.10000 30.75000 14.35000 
495 1 6.15000 28.70000 14.35000 
496 1 6.15000 30.75000 12.30000 
497 1 4.10000 28.70000 16.40000 
498 1 4.10000 30.75000 18.45000 
499 1 6.15000 28.70000 18.45000 
500 1 6.15000 30.75000 16.40000 
501 1 4.10000 28.70000 20.50000 
502 1 4.10000 30.75000 22.55000 
503 1 6.15000 28.70000 22.55000 
504 1 6.15000 30.75000 20.50000 
505 1 4.10000 28.70000 24.60000 
506 1 4.10000 30.75000 26.65000 
507 1 6.15000 28.70000 26.65000 
508 1 6.15000 30.75000 24.60000 
509 1 4.10000 28.70000 28.70000 
510 1 4.10000 30.75000 30.75000 
511 1 6.15000 28.70000 30.75000 
512 1 6.15000 30.75000 28.70000 
513 1 8.20000 0.00000 0.00000 
514 1 8.20000 2.05000 2.05000 
515 1 10.25000 0.00000 2.05000 
516 1 10.25000 2.05000 0.00000 
517 1 8.20000 0.00000 4.10000 
518 1 8.20000 2.05000 6.15000 
519 1 10.25000 0.00000 6.15000 
520 1 10.25000 2.05000 4.10000 
521 1 8.20000 0.00000 8.20000 
522 1 8.20000 2.05000 10.25000 
523 1 10.25000 0.00000 10.25000 
524 1 10.25000 2.05000 8.20000 
525 1 8.20000 0.00000 12.30000 
526 1 8.20000 2.05000 14.35000 
527 1 10.25000 0.00000 14.35000 
528 1 10.25000 2.05000 12.30000 
529 1 8.20000 0.00000 16.40000 
530 1 8.20000 2.05000 18.45000 
531 1 10.25000 0.00000 18.45000 
532 1 10.25000 2.05000 16.40000 
533 1 8.20000 0.00000 20.50000 
534 1 8.20000 2.05000 22.55000 
535 1 10.25000 0.00000 22.55000 
536 1 10.25000 2.05000 20.50000 
537 1 8.20000 0.00000 24.60000 
538 1 8.20000 2.05000 26.65000 
539 1 10.25000 0.00000 26.65000 
540 1 10.25000 2.05000 24.60000 
541 1 8.20000 0.00000 28.70000 
542 1 8.20000 2.05000 30.75000 
543 1 10.25000 0.00000 30.75000 
544 1 10.25000 2.05000 28.70000 
545 1 8.20000 4.10000 0.00000 
546 1 8.20000 6.15000 2.05000 
547 1 10.25000 4.10000 2.05000 
548 1 10.25000 6.15000 0.00000 
549 1 8.20000 4.10000 4.10000 
550 1 8.20000 6.15000 6.15000 
551 1 10.25000 4.10000 6.15000 
552 1 10.25000 6.15000 4.10000 
553 1 8.20000 4.10000 8.20000 
554 1 8.20000 6.15000 10.25000 
555 1 10.25000 4.10000 10.25000 
556 1 10.25000 6.15000 8.20000 
557 1 8.20000 4.10000 12.30000 
558 1 8.20000 6.15000 14.35000 
559 1 10.25000 4.10000 14.35000 
560 1 10.25000 6.15000 12.30000 
561 1 8.20000 4.10000 16.40000 
562 1 8.20000 6.15000 18.45000 
563 1 10.25000 4.10000 18.45000 
564 1 10.25000 6.15000 16.40000 
565 1 8.20000 4.10000 20.50000 
566 1 8.20000 6.15000 22.55000 
567 1 10.25000 4.10000 22.55000 
568 1 10.25000 6.15000 20.50000 
569 1 8.20000 4.10000 24.60000 
570 1 8.20000 6.15000 26.65000 
571 1 10.25000 4.10000 26.65000 
572 1 10.25000 6.15000 24.60000 
573 1 8.20000 4.10000 28.70000 
574 1 8.20000 6.15000 30.75000 
575 1 10.25000 4.10000 30.75000 
576 1 10.25000 6.15000 28.70000 
577 1 8.20000 8.20000 0.00000 
578 1 8.20000 10.25000 2.05000 
579 1 10.25000 8.20000 2.05000 
580 1 10.25000 10.25000 0.00000 
581 1 8.20000 8.20000 4.10000 
582 1 8.20000 10.25000 6.15000 
583 1 10.25000 8.20000 6.15000 
584 1 10.25000 10.25000 4.10000 
585 1 8.20000 8.20000 8.20000 
586 1 8.20000 10.25000 10.25000 
587 1 10.25000 8.20000 10.25000 
588 1 10.25000 10.25000 8.20000 
589 1 8.20000 8.20000 12.30000 
590 1 8.20000 10.25000 14.35000 
591 1 10.25000 8.20000 14.35000 
592 1 10.25000 10.25000 12.30000 
593 1 8.20000 8.20000 16.40000 
594 1 8.20000 10.25000 18.45000 
595 1 10.25000 8.20000 18.45000 
596 1 10.25000 10.25000 16.40000 
597 1 8.20000 8.20000 20.50000 
598 1 8.20000 10.25000 22.55000 
599 1 10.25000 8.20000 22.55000 
600 1 10.25000 10.25000 20.50000 
601 1 8.20000 8.20000 24.60000 
602 1 8.20000 10.25000 26.65000 
603 1 10.25000 8.20000 26.65000 
604 1 10.25000 10.25000 24.60000 
605 1 8.20000 8.20000 28.70000 
606 1 8.20000 10.25000 30.75000 
607 1 10.25000 8.20000 30.75000 
608 1 10.25000 10.25000 28.70000 
609 1 8.20000 12.30000 0.00000 
610 1 8.20000 14.35000 2.05000 
611 1 10.25000 12.30000 2.05000 
612 1 10.25000 14.35000 0.00000 
613 1 8.20000 12.30000 4.10000 
614 1 8.20000 14.35000 6.15000 
615 1 10.25000 12.30000 6.15000 
616 1 10.25000 14.35000 4.10000 
617 1 8.20000 12.30000 8.20000 
618 1 8.20000 14.35000 10.25000 
619 1 10.25000 12.30000 10.25000 
620 1 10.25000 14.35000 8.20000 
621 1 8.20000 12.30000 12.30000 
622 1 8.20000 14.35000 14.35000 
623 1 10.25000 12.30000 14.35000 
624 1 10.25000 14.35000 12.30000 
625 1 8.20000 12.30000 16.40000 
626 1 8.20000 14.35000 18.45000 
627 1 10.25000 12.30000 18.45000 
628 1 10.25000 14.35000 16.40000 
629 1 8.20000 12.30000 20.50000 
630 1 8.20000 14.35000 22.55000 
631 1 10.25000 12.30000 22.55000 
632 1 10.25000 14.35000 20.50000 
633 1 8.20000 12.30000 24.60000 
634 1 8.20000 14.35000 26.65000 
635 1 10.25000 12.30000 26.65000 
636 1 10.25000 14.35000 24.60000 
637 1 8.20000 12.30000 28.70000 
638 1 8.20000 14.35000 30.75000 
639 1 10.25000 12.30000 30.75000 
640 1 10.25000 14.35000 28.70000 
641 1 8.20000 16.40000 0.00000 
642 1 8.20000 18.45000 2.05000 
643 1 10.25000 16.40000 2.05000 
644 1 10.25000 18.45000 0.00000 
645 1 8.20000 16.40000 4.10000 
646 1 8.20000 18.45000 6.15000 
647 1 10.25000 16.40000 6.15000 
648 1 10.25000 18.45000 4.10000 
649 1 8.20000 16.40000 8.20000 
650 1 8.20000 18.45000 10.25000 
651 1 10.25000 16.40000 10.25000 
652 1 10.25000 18.45000 8.20000 
653 1 8.20000 16.40000 12.30000 
654 1 8.20000 18.45000 14.35000 
655 1 10.25000 16.40000 14.35000 
656 1 10.25000 18.45000 12.30000 
657 1 8.20000 16.40000 16.40000 
658 1 8.20000 18.45000 18.45000 
659 1 10.25000 16.40000 18.45000 
660 1 10.25000 18.45000 16.40000 
661 1 8.20000 16.40000 20.50000 
662 1 8.20000 18.45000 22.55000 
663 1 10.25000 16.40000 22.55000 
664 1 10.25000 18.45000 20.50000 
665 1 8.20000 16.40000 24.60000 
666 1 8.20000 18.45000 26.65000 
667 1 10.25000 16.40000 26.65000 
668 1 10.25000 18.45000 24.60000 
669 1 8.20000 16.40000 28.70000 
670 1 8.20000 18.45000 30.75000 
671 1 10.25000 16.40000 30.75000 
672 1 10.25000 18.45000 28.70000 
673 1 8.20000 20.50000 0.00000 
674 1 8.20000 22.55000 2.05000 
675 1 10.25000 20.50000 2.05000 
676 1 10.25000 22.55000 0.00000 
677 1 8.20000 20.50000 4.10000 
678 1 8.20000 22.55000 6.15000 
679 1 10.25000 20.50000 6.15000 
680 1 10.25000 22.55000 4.10000 
681 1 8.20000 20.50000 8.20000 
682 1 8.20000 22.55000 10.25000 
683 1 10.25000 20.50000 10.25000 
684 1 10.25000 22.55000 8.20000 
685 1 8.20000 20.50000 12.30000 
686 1 8.20000 22.55000 14.35000 
687 1 10.25000 20.50000 14.35000 
688 1 10.25000 22.55000 12.30000 
689 1 8.20000 20.50000 16.40000 
690 1 8.20000 22.55000 18.45000 
691 1 10.25000 20.50000 18.45000 
692 1 10.25000 22.55000 16.40000 
693 1 8.20000 20.50000 20.50000 
694 1 8.20000 22.55000 22.55000 
695 1 10.25000 20.50000 22.55000 
696 1 10.25000 22.55000 20.50000 
697 1 8.20000 20.50000 24.60000 
698 1 8.20000 22.55000 26.65000 
699 1 10.25000 20.50000 26.65000 
700 1 10.25000 22.55000 24.60000 
701 1 8.20000 20.50000 28.70000 
702 1 8.20000 22.55000 30.75000 
703 1 10.25000 20.50000 30.75000 
704 1 10.25000 22.55000 28.70000 
705 1 8.20000 24.60000 0.00000 
706 1 8.20000 26.65000 2.05000 
707 1 10.25000 24.60000 2.05000 
708 1 10.25000 26.65000 0.00000 
709 1 8.20000 24.60000 4.10000 
710 1 8.20000 26.65000 6.15000 
711 1 10.25000 24.60000 6.15000 
712 1 10.25000 26.65000 4.10000 
713 1 8.20000 24.60000 8.20000 
714 1 8.20000 26.65000 10.25000 
715 1 10.25000 24.60000 10.25000 
716 1 10.25000 26.65000 8.20000 
717 1 8.20000 24.60000 12.30000 
718 1 8.20000 26.65000 14.35000 
719 1 10.25000 24.60000 14.35000 
720 1 10.25000 26.65000 12.30000 
721 1 8.20000 24.60000 16.40000 
722 1 8.20000 26.65000 18.45000 
723 1 10.25000 24.60000 18.45000 
724 1 10.25000 26.65000 16.40000 
725 1 8.20000 24.60000 20.50000 
726 1 8.20000 26.65000 22.55000 
727 1 10.25000 24.60000 22.55000 
728 1 10.25000 26.65000 20.50000 
729 1 8.20000 24.60000 24.60000 
730 1 8.20000 26.65000 26.65000 
731 1 10.25000 24.60000 26.65000 
732 1 10.25000 26.65000 24.60000 
733 1 8.20000 24.60000 28.70000 
734 1 8.20000 26.65000 30.75000 
735 1 10.25000 24.60000 30.75000 
736 1 10.25000 26.65000 28.70000 
737 1 8.20000 28.70000 0.00000 
738 1 8.20000 30.75000 2.05000 
739 1 10.25000 28.70000 2.05000 
740 1 10.25000 30.75000 0.00000 
741 1 8.20000 28.70000 4.10000 
742 1 8.20000 30.75000 6.15000 
743 1 10.25000 28.70000 6.15000 
744 1 10.25000 30.75000 4.10000 
745 1 8.20000 28.70000 8.20000 
746 1 8.20000 30.75000 10.25000 
747 1 10.25000 28.70000 10.25000 
748 1 10.25000 30.75000 8.20000 
749 1 8.20000 28.70000 12.30000 
750 1 8.20000 30.75000 14.35000 
751 1 10.25000 28.70000 14.35000 
752 1 10.25000 30.75000 12.30000 
753 1 8.20000 28.70000 16.40000 
754 1 8.20000 30.75000 18.45000 
755 1 10.25000 28.70000 18.45000 
756 1 10.25000 30.75000 16.40000 
757 1 8.20000 28.70000 20.50000 
758 1 8.20000 30.75000 22.55000 
759 1 10.25000 28.70000 22.55000 
760 1 10.25000 30.75000 20.50000 
761 1 8.20000 28.70000 24.60000 
762 1 8.20000 30.75000 26.65000 
763 1 10.25000 28.70000 26.65000 
764 1 10.25000 30.75000 24.60000 
765 1 8.20000 28.70000 28.70000 
766 1 8.20000 30.75000 30.75000 
767 1 10.25000 28.70000 30.75000 
768 1 10.25000 30.75000 28.70000 
769 1 12.30000 0.00000 0.00000 
770 1 12.30000 2.05000 2.05000 
771 1 14.35000 0.00000 2.05000 
772 1 14.35000 2.05000 0.00000 
773 1 12.30000 0.00000 4.10000 
774 1 12.30000 2.05000 6.15000 
775 1 14.35000 0.00000 6.15000 
776 1 14.35000 2.05000 4.10000 
777 1 12.30000 0.00000 8.20000 
778 1 12.30000 2.05000 10.25000 
779 1 14.35000 0.00000 10.25000 
780 1 14.35000 2.05000 8.20000 
781 1 12.30000 0.00000 12.30000 
782 1 12.30000 2.05000 14.35000 
783 1 14.35000 0.00000 14.35000 
784 1 14.35000 2.05000 12.30000 
785 1 12.30000 0.00000 16.40000 
786 1 12.30000 2.05000 18.45000 
787 1 14.35000 0.00000 18.45000 
788 1 14.35000 2.05000 16.40000 
789 1 12.30000 0.00000 20.50000 
790 1 12.30000 2.05000 22.55000 
791 1 14.35000 0.00000 22.55000 
792 1 14.35000 2.05000 20.50000 
793 1 12.30000 0.00000 24.60000 
794 1 12.30000 2.05000 26.65000 
795 1 14.35000 0.00000 26.65000 
796 1 14.35000 2.05000 24.60000 
797 1 12.30000 0.00000 28.70000 
798 1 12.30000 2.05000 30.75000 
799 1 14.35000 0.00000 30.75000 
800 1 14.35000 2.05000 28.70000 
801 1 12.30000 4.10000 0.00000 
802 1 12.30000 6.15000 2.05000 
803 1 14.35000 4.10000 2.05000 
804 1 14.35000 6.15000 0.00000 
805 1 12.30000 4.10000 4.10000 
806 1 12.30000 6.15000 6.15000 
807 1 14.35000 4.10000 6.15000 
808 1 14.35000 6.15000 4.10000 
809 1 12.30000 4.10000 8.20000 
810 1 12.30000 6.15000 10.25000 
811 1 14.35000 4.10000 10.25000 
812 1 14.35000 6.15000 8.20000 
813 1 12.30000 4.10000 12.30000 
814 1 12.30000 6.15000 14.35000 
815 1 14.35000 4.10000 14.35000 
816 1 14.35000 6.15000 12.30000 
817 1 12.30000 4.10000 16.40000 
818 1 12.30000 6.15000 18.45000 
819 1 14.35000 4.10000 18.45000 
820 1 14.35000 6.15000 16.40000 
821 1 12.30000 4.10000 20.50000 
822 1 12.30000 6.15000 22.55000 
823 1 14.35000 4.10000 22.55000 
824 1 14.35000 6.15000 20.50000 
825 1 12.30000 4.10000 24.60000 
826 1 12.30000 6.15000 26.65000 
827 1 14.35000 4.10000 26.65000 
828 1 14.35000 6.15000 24.60000 
829 1 12.30000 4.10000 28.70000 
830 1 12.30000 6.15000 30.75000 
831 1 14.35000 4.10000 30.75000 
832 1 14.35000 6.15000 28.70000 
833 1 12.30000 8.20000 0.00000 
834 1 12.30000 10.25000 2.05000 
835 1 14.35000 8.20000 2.05000 
836 1 14.35000 10.25000 0.00000 
837 1 12.30000 8.20000 4.10000 
838 1 12.30000 10.25000 6.15000 
839 1 14.35000 8.20000 6.15000 
840 1 14.35000 10.25000 4.10000 
841 1 12.30000 8.20000 8.20000 
842 1 12.30000 10.25000 10.25000 
843 1 14.35000 8.20000 10.25000 
844 1 14.35000 10.25000 8.20000 
845 1 12.30000 8.20000 12.30000 
846 1 12.30000 10.25000 14.35000 
847 1 14.35000 8.20000 14.35000 
848 1 14.35000 10.25000 12.30000 
849 1 12.30000 8.20000 16.40000 
850 1 12.30000 10.25000 18.45000 
851 1 14.35000 8.20000 18.45000 
852 1 14.35000 10.25000 16.40000 
853 1 12.30000 8.20000 20.50000 
854 1 12.30000 10.25000 22.55000 
855 1 14.35000 8.20000 22.55000 
856 1 14.35000 10.25000 20.50000 
857 1 12.30000 8.20000 24.60000 
858 1 12.30000 10.25000 26.65000 
859 1 14.35000 8.20000 26.65000 
860 1 14.35000 10.25000 24.60000 
861 1 12.30000 8.20000 28.70000 
862 1 12.30000 10.25000 30.75000 
863 1 14.35000 8.20000 30.75000 
864 1 14.35000 10.25000 28.70000 
865 1 12.30000 12.30000 0.00000 
866 1 12.30000 14.35000 2.05000 
867 1 14.35000 12.30000 2.05000 
868 1 14.35000 14.35000 0.00000 
869 1 12.30000 12.30000 4.10000 
870 1 12.30000 14.35000 6.15000 
871 1 14.35000 12.30000 6.15000 
872 1 14.35000 14.35000 4.10000 
873 1 12.30000 12.30000 8.20000 
874 1 12.30000 14.35000 10.25000 
875 1 14.35000 12.30000 10.25000 
876 1 14.35000 14.35000 8.20000 
877 1 12.30000 12.30000 12.30000 
878 1 12.30000 14.35000 14.35000 
879 1 14.35000 12.30000 14.35000 
880 1 14.35000 14.35000 12.30000 
881 1 12.30000 12.30000 16.40000 
882 1 12.30000 14.35000 18.45000 
883 1 14.35000 12.30000 18.45000 
884 1 14.35000 14.35000 16.40000 
885 1 12.30000 12.30000 20.50000 
886 1 12.30000 14.35000 22.55000 
887 1 14.35000 12.30000 22.55000 
888 1 14.35000 14.35000 20.50000 
889 1 12.30000 12.30000 24.60000 
890 1 12.30000 14.35000 26.65000 
891 1 14.35000 12.30000 26.65000 
892 1 14.35000 14.35000 24.60000 
893 1 12.30000 12.30000 28.70000 
894 1 12.30000 14.35000 30.75000 
895 1 14.35000 12.30000 30.75000 
896 1 14.35000 14.35000 28.70000 
897 1 12.30000 16.40000 0.00000 
898 1 12.30000 18.45000 2.05000 
899 1 14.35000 16.40000 2.05000 
900 1 14.35000 18.45000 0.00000 
901 1 12.30000 16.40000 4.10000 
902 1 12.30000 18.45000 6.15000 
903 1 14.35000 16.40000 6.15000 
904 1 14.35000 18.45000 4.10000 
905 1 12.30000 16.40000 8.20000 
906 1 12.30000 18.45000 10.25000 
907 1 14.35000 16.40000 10.25000 
908 1 14.35000 18.45000 8.20000 
909 1 12.30000 16.40000 12.30000 
910 1 12.30000 18.45000 14.35000 
911 1 14.35000 16.40000 14.35000 
912 1 14.35000 18.45000 12.30000 
913 1 12.30000 16.40000 16.40000 
914 1 12.30000 18.45000 18.45000 
915 1 14.35000 16.40000 18.45000 
916 1 14.35000 18.45000 16.40000 
917 1 12.30000 16.40000 20.50000 