LAMMPS (29 Oct 2020)
Reading data file ...
  orthogonal box = (0.0000000 0.0000000 0.0000000) to (32.800000 32.800000 32.800000)
  1 by 1 by 1 MPI processor grid
  reading atoms ...
  2048 atoms
  read_data CPU = 0.003 seconds
Reading eam potential file /home/gridsan/epan1/3320_atomistic_shared/lammps/potentials/Ag_u3.eam with DATE: 2007-06-11
Neighbor list info ...
  update every 1 steps, delay 10 steps, check yes
  max neighbors/atom: 2000, page size: 100000
  master list distance cutoff = 7.55
  ghost atom cutoff = 7.55
  binsize = 3.775, bins = 9 9 9
  2 neighbor lists, perpetual/occasional/extra = 1 1 0
  (1) pair eam, perpetual
      attributes: half, newton on
      pair build: half/bin/atomonly/newton
      stencil: half/bin/3d/newton
      bin: standard
  (2) compute rdf, occasional, copy from (1)
      attributes: half, newton on
      pair build: copy
      stencil: none
      bin: none
Setting up Verlet run ...
  Unit style    : metal
  Current step  : 0
  Time step     : 0.001
Per MPI rank memory allocation (min/avg/max) = 3.870 | 3.870 | 3.870 Mbytes
Step PotEng KinEng TotEng Temp Press Density c_msdall[4] 
       0   -5836.1956    682.65643   -5153.5392         2580     13198.19    10.395806            0 
     100   -5422.1167    375.17235   -5046.9444     1417.909    78095.543    10.395806   0.16030619 
     200   -5339.2961    519.75698   -4819.5392    1964.3454    96654.781    10.395806   0.21845686 
     300   -5200.7265    633.36172   -4567.3648    2393.6979    122794.66    10.395806   0.29107074 
     400   -5082.2061    697.80569   -4384.4004    2637.2544    143846.23    10.395806   0.37331319 
     500   -5069.9212    684.97027   -4384.9509    2588.7448    146323.22    10.395806   0.43307937 
     600   -5090.7699    671.29986     -4419.47    2537.0795    142404.73    10.395806   0.44964036 
     700   -5101.2031    682.80629   -4418.3968    2580.5664    140100.89    10.395806    0.4581343 
     800   -5097.0352    670.95931   -4426.0759    2535.7924    141555.66    10.395806   0.47827656 
     900   -5081.8304    682.17245    -4399.658    2578.1709    144151.08    10.395806   0.50502253 
    1000   -5080.4183    682.77125    -4397.647    2580.4339    143186.29    10.395806   0.52791514 
    1100   -5092.9557    700.20726   -4392.7484    2646.3308     142074.2    10.395806   0.52591776 
    1200   -5103.4415    684.37233   -4419.0692     2586.485    139808.32    10.395806   0.51221688 
    1300   -5072.8955    651.96236   -4420.9332    2463.9962    144256.44    10.395806   0.51842316 
    1400   -5064.9079    698.22801   -4366.6799    2638.8505    147412.95    10.395806   0.52004003 
    1500    -5057.562    670.09975   -4387.4623    2532.5439     146853.3    10.395806   0.52240518 
    1600   -5083.1234     675.5692   -4407.5542    2553.2148    143063.55    10.395806   0.52077555 
    1700   -5057.5667    680.05218   -4377.5145    2570.1576    147237.45    10.395806   0.52333189 
    1800   -5054.1376    671.27044   -4382.8671    2536.9683    148049.97    10.395806   0.52787683 
    1900   -5070.0562    685.52472   -4384.5315    2590.8403    146425.29    10.395806   0.52862992 
    2000   -5049.0572    661.24429   -4387.8129    2499.0759    148861.46    10.395806   0.54430316 
    2100   -5044.4503    694.06093   -4350.3894    2623.1016    150252.43    10.395806   0.55105129 
    2200   -5060.3657    695.21547   -4365.1502     2627.465    147622.83    10.395806   0.56758241 
    2300   -5082.7793    701.29827   -4381.4811    2650.4541    144958.33    10.395806   0.59324746 
    2400   -5040.9821    669.75047   -4371.2316    2531.2238    150822.43    10.395806   0.64727616 
    2500   -5039.5225    702.30148    -4337.221    2654.2456    151145.48    10.395806    0.6993995 
    2600   -5042.7021    661.44462   -4381.2575    2499.8331    149235.37    10.395806   0.74870809 
    2700    -5046.982    686.57946   -4360.4026    2594.8265    149863.07    10.395806   0.80658076 
    2800   -5019.4306    685.40791   -4334.0227    2590.3988    154813.28    10.395806   0.89539871 
    2900   -5022.1003    669.42238   -4352.6779    2529.9838    153363.15    10.395806   0.98374704 
    3000   -5019.8655    672.47896   -4347.3865    2541.5357    154037.72    10.395806    1.0533911 
    3100   -4997.9385    689.16581   -4308.7727    2604.6012    158876.17    10.395806    1.1353441 
    3200   -4994.9914    672.10557   -4322.8859    2540.1245    158566.78    10.395806     1.223709 
    3300   -4993.3124    694.69471   -4298.6177    2625.4969     159371.7    10.395806    1.3034082 
    3400    -4975.779    682.38553   -4293.3935    2578.9762    161514.62    10.395806    1.4005709 
    3500   -4972.3627    674.82068   -4297.5421    2550.3859    162497.57    10.395806    1.5123461 
    3600   -4973.6703    690.51806   -4283.1522    2609.7119     160835.9    10.395806    1.6284351 
    3700   -4981.7858    676.04441   -4305.7414    2555.0108    161163.97    10.395806    1.7815375 
    3800   -4939.1956     667.5436    -4271.652    2522.8833    167462.61    10.395806    1.9813414 
    3900   -4932.0864     681.2463   -4250.8401    2574.6706    168556.09    10.395806    2.0993369 
    4000   -4943.7975    708.96742   -4234.8301    2679.4385    167828.06    10.395806    2.2235827 
    4100   -4960.7965    679.51138   -4281.2851    2568.1137    165212.61    10.395806     2.371555 
    4200   -4935.9743    672.66705   -4263.3073    2542.2466    168751.56    10.395806    2.5950923 
    4300   -4928.5538    683.49318   -4245.0607    2583.1624    170073.96    10.395806    2.7934225 
    4400   -4899.7979    695.87155   -4203.9264    2629.9446    175344.42    10.395806    3.0116402 
    4500   -4893.6243    680.40432     -4213.22    2571.4885    174527.37    10.395806    3.2108185 
    4600   -4892.8982    688.16775   -4204.7305    2600.8292     175509.8    10.395806    3.4332241 
    4700   -4899.2219    657.76425   -4241.4576    2485.9237    173971.27    10.395806    3.6642714 
    4800   -4915.2806    691.70452   -4223.5761    2614.1959    172218.09    10.395806    3.9440535 
    4900    -4900.713     692.5823   -4208.1307    2617.5133    174433.23    10.395806    4.2239166 
    5000   -4888.9505    671.84468   -4217.1058    2539.1385    175131.72    10.395806    4.5249016 
    5100   -4893.4855    661.20654    -4232.279    2498.9333    174694.34    10.395806    4.7876174 
    5200   -4893.0116    687.79156   -4205.2201    2599.4074    175130.66    10.395806     5.046217 
    5300   -4904.8529    676.69943   -4228.1535    2557.4864    173452.84    10.395806    5.3650524 
    5400   -4910.5724    660.24832   -4250.3241    2495.3118     171776.8    10.395806    5.6311276 
    5500   -4913.6557    697.00726   -4216.6484    2634.2369    171668.28    10.395806    5.9403352 
    5600    -4887.006    690.83401    -4196.172    2610.9059    175811.97    10.395806    6.2796195 
    5700   -4876.7841    679.68603   -4197.0981    2568.7738    178560.87    10.395806    6.5577312 
    5800   -4885.6721    694.54764   -4191.1245    2624.9411     176779.6    10.395806    6.8804027 
    5900   -4872.6658    679.52353   -4193.1423    2568.1596    178526.86    10.395806    7.2026155 
    6000   -4887.5991    668.35451   -4219.2446     2525.948    176679.64    10.395806    7.5415208 
    6100   -4865.5459    678.36096   -4187.1849    2563.7659    179351.15    10.395806    7.7948633 
    6200   -4870.7327    670.41697   -4200.3158    2533.7427    178215.87    10.395806    8.0702857 
    6300   -4887.6511    656.36774   -4231.2834    2480.6457    175806.45    10.395806     8.347629 
    6400   -4872.7112     681.0475   -4191.6637    2573.9193    178309.15    10.395806    8.6404909 
    6500   -4867.5165     701.6301   -4165.8864    2651.7082    179302.22    10.395806    8.8325192 
    6600   -4864.8764    657.02245   -4207.8539    2483.1201    179368.85    10.395806    9.1037004 
    6700   -4888.0131    701.33655   -4186.6766    2650.5988    176216.08    10.395806    9.3922283 
    6800   -4901.6542     680.9017   -4220.7525    2573.3682    173501.27    10.395806    9.6480762 
    6900   -4891.3498    677.94216   -4213.4076    2562.1831     175226.6    10.395806    9.9920899 
    7000   -4859.5655    693.58546     -4165.98    2621.3046    180491.89    10.395806    10.245694 
    7100   -4880.5017     679.0986   -4201.4031    2566.5537    177842.28    10.395806    10.587882 
    7200   -4896.7904    683.80883   -4212.9816    2584.3553    175625.94    10.395806    10.879415 
    7300   -4907.5609    681.94766   -4225.6133    2577.3213    173364.82    10.395806    11.215606 
    7400   -4894.5109    681.28397   -4213.2269     2574.813    175820.04    10.395806    11.542255 
    7500   -4874.4954    684.61527   -4189.8801    2587.4031    178895.25    10.395806    11.877623 
    7600    -4885.803    665.42097    -4220.382    2514.8611    175858.54    10.395806     12.10166 
    7700   -4909.7936    679.75872   -4230.0349    2569.0485    173823.72    10.395806    12.244261 
    7800   -4883.1355    688.35916   -4194.7764    2601.5526    176539.39    10.395806     12.41426 
    7900   -4886.5866    665.01191   -4221.5747    2513.3151    175544.59    10.395806    12.662081 
    8000    -4884.979     678.3123   -4206.6667     2563.582    176038.43    10.395806    12.879078 
    8100   -4880.5328    703.92002   -4176.6127    2660.3626    176998.73    10.395806    13.263328 
    8200   -4885.2095    678.65549    -4206.554     2564.879    175812.67    10.395806    13.514352 
    8300   -4884.5378    667.86001   -4216.6778    2524.0791    176310.45    10.395806    13.796635 
    8400   -4877.3438    697.29007   -4180.0538    2635.3057    177557.78    10.395806    13.975435 
    8500   -4889.6308    676.02752   -4213.6033     2554.947       176338    10.395806    14.258193 
    8600   -4893.1682    700.82609   -4192.3421    2648.6696    176237.38    10.395806    14.469061 
    8700   -4884.8582    676.78906   -4208.0691    2557.8251    176446.94    10.395806    14.666447 
    8800   -4885.2398    708.43667   -4176.8031    2677.4326    177695.09    10.395806    14.931255 
    8900   -4892.3293    686.36472   -4205.9646    2594.0149    176556.31    10.395806     15.25487 
    9000   -4884.3986    689.46195   -4194.9367    2605.7205    177415.78    10.395806    15.576725 
    9100   -4893.8067    695.83828   -4197.9684    2629.8189    175448.62    10.395806    15.911638 
    9200   -4899.6212    665.44483   -4234.1764    2514.9513    173511.35    10.395806    16.272969 
    9300   -4872.8844    679.18627   -4193.6981     2566.885    178350.35    10.395806    16.621048 
    9400   -4884.1762    693.15729   -4191.0189    2619.6865    178037.28    10.395806     16.87004 
    9500    -4887.651    677.25811   -4210.3929    2559.5978     176257.2    10.395806    17.057321 
    9600    -4870.748    688.24785   -4182.5001    2601.1319    179025.77    10.395806    17.353256 
    9700   -4881.8828    664.18939   -4217.6934    2510.2065    175789.44    10.395806     17.59782 
    9800   -4889.7134     677.4322   -4212.2812    2560.2558    175686.82    10.395806    17.774511 
    9900   -4901.5963    708.29517   -4193.3012    2676.8978    175412.45    10.395806    18.027329 
   10000   -4916.3531    671.49971   -4244.8534    2537.8348    171959.59    10.395806    18.191337 
Loop time of 62.7778 on 1 procs for 10000 steps with 2048 atoms

Performance: 13.763 ns/day, 1.744 hours/ns, 159.292 timesteps/s
98.2% CPU use with 1 MPI tasks x no OpenMP threads

MPI task timing breakdown:
Section |  min time  |  avg time  |  max time  |%varavg| %total
---------------------------------------------------------------
Pair    | 38.36      | 38.36      | 38.36      |   0.0 | 61.10
Neigh   | 0.77463    | 0.77463    | 0.77463    |   0.0 |  1.23
Comm    | 0.2663     | 0.2663     | 0.2663     |   0.0 |  0.42
Output  | 0.0071094  | 0.0071094  | 0.0071094  |   0.0 |  0.01
Modify  | 23.256     | 23.256     | 23.256     |   0.0 | 37.04
Other   |            | 0.1139     |            |       |  0.18

Nlocal:        2048.00 ave        2048 max        2048 min
Histogram: 1 0 0 0 0 0 0 0 0 0
Nghost:        4343.00 ave        4343 max        4343 min
Histogram: 1 0 0 0 0 0 0 0 0 0
Neighs:       106802.0 ave      106802 max      106802 min
Histogram: 1 0 0 0 0 0 0 0 0 0

Total # of neighbors = 106802
Ave neighs/atom = 52.149414
Neighbor list builds = 171
Dangerous builds = 0
Total wall time: 0:01:02
