
     Program PWSCF v.7.2 starts on 16Oct2023 at 10:37: 6 

     This program is part of the open-source Quantum ESPRESSO suite
     for quantum simulation of materials; please cite
         "P. Giannozzi et al., J. Phys.:Condens. Matter 21 395502 (2009);
         "P. Giannozzi et al., J. Phys.:Condens. Matter 29 465901 (2017);
         "P. Giannozzi et al., J. Chem. Phys. 152 154105 (2020);
          URL http://www.quantum-espresso.org", 
     in publications or presentations arising from this work. More details at
     http://www.quantum-espresso.org/quote

     Parallel version (MPI), running on     1 processors

     MPI processes distributed on     1 nodes
     33448 MiB available memory on the printing compute node when the environment starts

     Waiting for input...
     Reading input from standard input
Warning: card &CELL ignored
Warning: card / ignored

     Current dimensions of program PWSCF are:
     Max number of different atomic species (ntypx) = 10
     Max number of k-points (npk) =  40000
     Max angular momentum in pseudopotentials (lmaxx) =  4
     file Ge.pz-dn-rrkjus_psl.0.2.2.UPF: wavefunction(s)  3D renormalized
     Message from routine find_sym:
     Not a group! Trying with lower acceptance parameter...
     Message from routine find_sym:
     Still not a group! symmetry disabled

     Subspace diagonalization in iterative solution of the eigenvalue problem:
     a serial algorithm will be used


     G-vector sticks info
     --------------------
     sticks:   dense  smooth     PW     G-vecs:    dense   smooth      PW
     Sum         559     559    169                 8801     8801    1471

     Using Slab Decomposition



     bravais-lattice index     =            0
     lattice parameter (alat)  =       7.6368  a.u.
     unit-cell volume          =     314.9276 (a.u.)^3
     number of atoms/cell      =            2
     number of atomic types    =            1
     number of electrons       =        28.00
     number of Kohn-Sham states=           14
     kinetic-energy cutoff     =      35.0000  Ry
     charge density cutoff     =     140.0000  Ry
     scf convergence threshold =      1.0E-07
     mixing beta               =       0.5000
     number of iterations used =            8  plain     mixing
     Exchange-correlation= LDA
                           (   1   1   0   0   0   0   0)

     celldm(1)=   7.636750  celldm(2)=   0.000000  celldm(3)=   0.000000
     celldm(4)=   0.000000  celldm(5)=   0.000000  celldm(6)=   0.000000

     crystal axes: (cart. coord. in units of alat)
               a(1) = (   0.000000   0.707107   0.707107 )  
               a(2) = (   0.707107   0.000000   0.707107 )  
               a(3) = (   0.707107   0.707107   0.000000 )  

     reciprocal axes: (cart. coord. in units 2 pi/alat)
               b(1) = ( -0.707107  0.707107  0.707107 )  
               b(2) = (  0.707107 -0.707107  0.707107 )  
               b(3) = (  0.707107  0.707107 -0.707107 )  


     PseudoPot. # 1 for Ge read from file:
     ../Ge.pz-dn-rrkjus_psl.0.2.2.UPF
     MD5 check sum: 9948ad5293734715c8cf6021b6c26e6d
     Pseudo is Ultrasoft + core correction, Zval = 14.0
     Generated using "atomic" code by A. Dal Corso  v.5.0.2 svn rev. 9415
     Using radial grid of 1207 points,  6 beta functions with: 
                l(1) =   0
                l(2) =   0
                l(3) =   1
                l(4) =   1
                l(5) =   2
                l(6) =   2
     Q(r) pseudized with 0 coefficients 


     atomic species   valence    mass     pseudopotential
        Ge            14.00    72.63000     Ge( 1.00)

     No symmetry found



   Cartesian axes

     site n.     atom                  positions (alat units)
         1           Ge  tau(   1) = (   0.0000000   0.0000000   0.0000000  )
         2           Ge  tau(   2) = (   0.3535539   0.3535539   0.3535539  )

     number of k points=    63
                       cart. coord. in units 2pi/alat
        k(    1) = (   0.0000000   0.0000000   0.0000000), wk =   0.0160000
        k(    2) = (   0.1414214   0.1414214  -0.1414214), wk =   0.0320000
        k(    3) = (   0.2828427   0.2828427  -0.2828427), wk =   0.0320000
        k(    4) = (   0.2828427   0.0000000   0.0000000), wk =   0.0320000
        k(    5) = (   0.4242641   0.1414214  -0.1414214), wk =   0.0320000
        k(    6) = (  -0.1414214  -0.4242641   0.4242641), wk =   0.0320000
        k(    7) = (   0.0000000  -0.2828427   0.2828427), wk =   0.0320000
        k(    8) = (   0.5656854   0.0000000   0.0000000), wk =   0.0320000
        k(    9) = (   0.0000000  -0.5656854   0.5656854), wk =   0.0320000
        k(   10) = (  -0.1414214  -0.4242641   0.7071068), wk =   0.0320000
        k(   11) = (  -0.1414214  -0.1414214  -0.1414214), wk =   0.0320000
        k(   12) = (  -0.1414214   0.1414214   0.1414214), wk =   0.0320000
        k(   13) = (   0.1414214  -0.1414214   0.1414214), wk =   0.0320000
        k(   14) = (  -0.2828427  -0.2828427  -0.2828427), wk =   0.0320000
        k(   15) = (  -0.2828427   0.2828427   0.2828427), wk =   0.0320000
        k(   16) = (   0.2828427  -0.2828427   0.2828427), wk =   0.0320000
        k(   17) = (   0.0000000  -0.2828427   0.0000000), wk =   0.0320000
        k(   18) = (   0.0000000   0.0000000  -0.2828427), wk =   0.0320000
        k(   19) = (  -0.4242641  -0.1414214  -0.1414214), wk =   0.0320000
        k(   20) = (  -0.4242641   0.1414214   0.1414214), wk =   0.0320000
        k(   21) = (   0.4242641  -0.1414214   0.1414214), wk =   0.0320000
        k(   22) = (  -0.1414214  -0.4242641   0.1414214), wk =   0.0320000
        k(   23) = (   0.1414214  -0.1414214  -0.4242641), wk =   0.0320000
        k(   24) = (   0.1414214  -0.1414214   0.4242641), wk =   0.0320000
        k(   25) = (  -0.1414214  -0.1414214  -0.4242641), wk =   0.0320000
        k(   26) = (   0.1414214   0.1414214  -0.4242641), wk =   0.0320000
        k(   27) = (  -0.1414214   0.4242641   0.1414214), wk =   0.0320000
        k(   28) = (  -0.1414214  -0.4242641  -0.1414214), wk =   0.0320000
        k(   29) = (   0.1414214  -0.4242641   0.1414214), wk =   0.0320000
        k(   30) = (   0.1414214   0.4242641   0.4242641), wk =   0.0320000
        k(   31) = (   0.1414214  -0.4242641  -0.4242641), wk =   0.0320000
        k(   32) = (  -0.1414214   0.4242641  -0.4242641), wk =   0.0320000
        k(   33) = (   0.4242641   0.1414214  -0.4242641), wk =   0.0320000
        k(   34) = (  -0.4242641   0.4242641   0.1414214), wk =   0.0320000
        k(   35) = (  -0.4242641   0.4242641  -0.1414214), wk =   0.0320000
        k(   36) = (   0.4242641   0.4242641   0.1414214), wk =   0.0320000
        k(   37) = (  -0.4242641  -0.4242641   0.1414214), wk =   0.0320000
        k(   38) = (   0.4242641  -0.1414214  -0.4242641), wk =   0.0320000
        k(   39) = (   0.4242641   0.1414214   0.4242641), wk =   0.0320000
        k(   40) = (  -0.4242641   0.1414214  -0.4242641), wk =   0.0320000
        k(   41) = (  -0.0000000   0.2828427   0.2828427), wk =   0.0320000
        k(   42) = (   0.2828427  -0.0000000  -0.2828427), wk =   0.0320000
        k(   43) = (  -0.2828427   0.2828427  -0.0000000), wk =   0.0320000
        k(   44) = (   0.2828427   0.2828427  -0.0000000), wk =   0.0320000
        k(   45) = (   0.2828427  -0.0000000   0.2828427), wk =   0.0320000
        k(   46) = (   0.0000000  -0.5656854   0.0000000), wk =   0.0320000
        k(   47) = (   0.0000000   0.0000000  -0.5656854), wk =   0.0320000
        k(   48) = (   0.0000000   0.5656854   0.5656854), wk =   0.0320000
        k(   49) = (   0.5656854   0.0000000  -0.5656854), wk =   0.0320000
        k(   50) = (  -0.5656854   0.5656854   0.0000000), wk =   0.0320000
        k(   51) = (   0.5656854   0.5656854   0.0000000), wk =   0.0320000
        k(   52) = (   0.5656854   0.0000000   0.5656854), wk =   0.0320000
        k(   53) = (   0.1414214  -0.4242641  -0.7071068), wk =   0.0320000
        k(   54) = (   0.4242641   0.1414214  -0.7071068), wk =   0.0320000
        k(   55) = (  -0.7071068   0.4242641   0.1414214), wk =   0.0320000
        k(   56) = (   0.1414214  -0.7071068   0.4242641), wk =   0.0320000
        k(   57) = (  -0.4242641   0.7071068  -0.1414214), wk =   0.0320000
        k(   58) = (  -0.4242641  -0.7071068   0.1414214), wk =   0.0320000
        k(   59) = (   0.7071068  -0.1414214  -0.4242641), wk =   0.0320000
        k(   60) = (  -0.7071068   0.1414214  -0.4242641), wk =   0.0320000
        k(   61) = (   0.4242641  -0.1414214  -0.7071068), wk =   0.0320000
        k(   62) = (  -0.7071068  -0.4242641   0.1414214), wk =   0.0320000
        k(   63) = (  -0.1414214  -0.7071068   0.4242641), wk =   0.0320000

     Dense  grid:     8801 G-vectors     FFT dimensions: (  32,  32,  32)

     Estimated max dynamical RAM per process >      49.51 MB

     Check: negative core charge=   -0.000155

     Initial potential from superposition of free atoms

     starting charge      27.9988, renormalised to      28.0000
     Starting wfcs are   18 randomized atomic wfcs

     total cpu time spent up to now is        2.1 secs

     Self-consistent Calculation

     iteration #  1     ecut=    35.00 Ry     beta= 0.50
     Davidson diagonalization with overlap
     ethr =  1.00E-02,  avg # of iterations =  1.8

     Threshold (ethr) on eigenvalues was too large:
     Diagonalizing with lowered threshold

     Davidson diagonalization with overlap
     ethr =  1.13E-04,  avg # of iterations =  2.3

     total cpu time spent up to now is        8.0 secs

     total energy              =    -421.78378755 Ry
     estimated scf accuracy    <       0.03460548 Ry

     iteration #  2     ecut=    35.00 Ry     beta= 0.50
     Davidson diagonalization with overlap
     ethr =  1.24E-04,  avg # of iterations =  1.0

     total cpu time spent up to now is       10.6 secs

     total energy              =    -421.78242093 Ry
     estimated scf accuracy    <       0.00638106 Ry

     iteration #  3     ecut=    35.00 Ry     beta= 0.50
     Davidson diagonalization with overlap
     ethr =  2.28E-05,  avg # of iterations =  2.0

     total cpu time spent up to now is       13.7 secs

     total energy              =    -421.78290799 Ry
     estimated scf accuracy    <       0.00007372 Ry

     iteration #  4     ecut=    35.00 Ry     beta= 0.50
     Davidson diagonalization with overlap
     ethr =  2.63E-07,  avg # of iterations =  4.0

     total cpu time spent up to now is       17.8 secs

     total energy              =    -421.78292769 Ry
     estimated scf accuracy    <       0.00002868 Ry

     iteration #  5     ecut=    35.00 Ry     beta= 0.50
     Davidson diagonalization with overlap
     ethr =  1.02E-07,  avg # of iterations =  2.0

     total cpu time spent up to now is       20.8 secs

     total energy              =    -421.78292742 Ry
     estimated scf accuracy    <       0.00000517 Ry

     iteration #  6     ecut=    35.00 Ry     beta= 0.50
     Davidson diagonalization with overlap
     ethr =  1.85E-08,  avg # of iterations =  3.3

     total cpu time spent up to now is       24.0 secs

     total energy              =    -421.78294675 Ry
     estimated scf accuracy    <       0.00003724 Ry

     iteration #  7     ecut=    35.00 Ry     beta= 0.50
     Davidson diagonalization with overlap
     ethr =  1.85E-08,  avg # of iterations =  1.0

     total cpu time spent up to now is       26.6 secs

     total energy              =    -421.78294643 Ry
     estimated scf accuracy    <       0.00003809 Ry

     iteration #  8     ecut=    35.00 Ry     beta= 0.50
     Davidson diagonalization with overlap
     ethr =  1.85E-08,  avg # of iterations =  1.0

     total cpu time spent up to now is       29.3 secs

     total energy              =    -421.78294129 Ry
     estimated scf accuracy    <       0.00003712 Ry

     iteration #  9     ecut=    35.00 Ry     beta= 0.50
     Davidson diagonalization with overlap
     ethr =  1.85E-08,  avg # of iterations =  2.0

     total cpu time spent up to now is       32.1 secs

     total energy              =    -421.78293308 Ry
     estimated scf accuracy    <       0.00002627 Ry

     iteration # 10     ecut=    35.00 Ry     beta= 0.50
     Davidson diagonalization with overlap
     ethr =  1.85E-08,  avg # of iterations =  2.2

     total cpu time spent up to now is       35.2 secs

     total energy              =    -421.78292975 Ry
     estimated scf accuracy    <       0.00001012 Ry

     iteration # 11     ecut=    35.00 Ry     beta= 0.50
     Davidson diagonalization with overlap
     ethr =  1.85E-08,  avg # of iterations =  2.4

     total cpu time spent up to now is       38.3 secs

     total energy              =    -421.78294417 Ry
     estimated scf accuracy    <       0.00002580 Ry

     iteration # 12     ecut=    35.00 Ry     beta= 0.50
     Davidson diagonalization with overlap
     ethr =  1.85E-08,  avg # of iterations =  1.7

     total cpu time spent up to now is       41.0 secs

     total energy              =    -421.78294470 Ry
     estimated scf accuracy    <       0.00003560 Ry

     iteration # 13     ecut=    35.00 Ry     beta= 0.50
     Davidson diagonalization with overlap
     ethr =  1.85E-08,  avg # of iterations =  1.0

     total cpu time spent up to now is       43.7 secs

     total energy              =    -421.78294145 Ry
     estimated scf accuracy    <       0.00003642 Ry

     iteration # 14     ecut=    35.00 Ry     beta= 0.50
     Davidson diagonalization with overlap
     ethr =  1.85E-08,  avg # of iterations =  1.0

     total cpu time spent up to now is       46.2 secs

     total energy              =    -421.78293948 Ry
     estimated scf accuracy    <       0.00002948 Ry

     iteration # 15     ecut=    35.00 Ry     beta= 0.50
     Davidson diagonalization with overlap
     c_bands:  2 eigenvalues not converged
     ethr =  1.85E-08,  avg # of iterations =  2.3

     total cpu time spent up to now is       49.3 secs

     total energy              =    -421.78294203 Ry
     estimated scf accuracy    <       0.00002755 Ry

     iteration # 16     ecut=    35.00 Ry     beta= 0.50
     Davidson diagonalization with overlap
     ethr =  1.85E-08,  avg # of iterations =  1.3

     total cpu time spent up to now is       51.9 secs

     total energy              =    -421.78294421 Ry
     estimated scf accuracy    <       0.00003035 Ry

     iteration # 17     ecut=    35.00 Ry     beta= 0.50
     Davidson diagonalization with overlap
     ethr =  1.85E-08,  avg # of iterations =  1.0

     total cpu time spent up to now is       54.5 secs

     total energy              =    -421.78293232 Ry
     estimated scf accuracy    <       0.00003287 Ry

     iteration # 18     ecut=    35.00 Ry     beta= 0.50
     Davidson diagonalization with overlap
     c_bands:  2 eigenvalues not converged
     ethr =  1.85E-08,  avg # of iterations =  3.1

     total cpu time spent up to now is       57.7 secs

     total energy              =    -421.78293096 Ry
     estimated scf accuracy    <       0.00001172 Ry

     iteration # 19     ecut=    35.00 Ry     beta= 0.50
     Davidson diagonalization with overlap
     c_bands:  1 eigenvalues not converged
     ethr =  1.85E-08,  avg # of iterations =  3.8

     total cpu time spent up to now is       61.1 secs

     total energy              =    -421.78294052 Ry
     estimated scf accuracy    <       0.00002752 Ry

     iteration # 20     ecut=    35.00 Ry     beta= 0.50
     Davidson diagonalization with overlap
     ethr =  1.85E-08,  avg # of iterations =  1.2

     total cpu time spent up to now is       63.7 secs

     total energy              =    -421.78294117 Ry
     estimated scf accuracy    <       0.00004084 Ry

     iteration # 21     ecut=    35.00 Ry     beta= 0.50
     Davidson diagonalization with overlap
     ethr =  1.85E-08,  avg # of iterations =  2.0

     total cpu time spent up to now is       66.5 secs

     total energy              =    -421.78293715 Ry
     estimated scf accuracy    <       0.00002729 Ry

     iteration # 22     ecut=    35.00 Ry     beta= 0.50
     Davidson diagonalization with overlap
     ethr =  1.85E-08,  avg # of iterations =  2.0

     total cpu time spent up to now is       69.2 secs

     total energy              =    -421.78293712 Ry
     estimated scf accuracy    <       0.00001822 Ry

     iteration # 23     ecut=    35.00 Ry     beta= 0.50
     Davidson diagonalization with overlap
     ethr =  1.85E-08,  avg # of iterations =  1.0

     total cpu time spent up to now is       71.7 secs

     total energy              =    -421.78294035 Ry
     estimated scf accuracy    <       0.00001756 Ry

     iteration # 24     ecut=    35.00 Ry     beta= 0.50
     Davidson diagonalization with overlap
     ethr =  1.85E-08,  avg # of iterations =  1.0

     total cpu time spent up to now is       74.3 secs

     total energy              =    -421.78294648 Ry
     estimated scf accuracy    <       0.00002416 Ry

     iteration # 25     ecut=    35.00 Ry     beta= 0.50
     Davidson diagonalization with overlap
     ethr =  1.85E-08,  avg # of iterations =  2.0

     total cpu time spent up to now is       77.2 secs

     total energy              =    -421.78294360 Ry
     estimated scf accuracy    <       0.00003831 Ry

     iteration # 26     ecut=    35.00 Ry     beta= 0.50
     Davidson diagonalization with overlap
     ethr =  1.85E-08,  avg # of iterations =  1.0

     total cpu time spent up to now is       79.7 secs

     total energy              =    -421.78293719 Ry
     estimated scf accuracy    <       0.00003183 Ry

     iteration # 27     ecut=    35.00 Ry     beta= 0.50
     Davidson diagonalization with overlap
     ethr =  1.85E-08,  avg # of iterations =  2.0

     total cpu time spent up to now is       82.5 secs

     total energy              =    -421.78292703 Ry
     estimated scf accuracy    <       0.00001853 Ry

     iteration # 28     ecut=    35.00 Ry     beta= 0.50
     Davidson diagonalization with overlap
     ethr =  1.85E-08,  avg # of iterations =  3.6

     total cpu time spent up to now is       85.9 secs

     total energy              =    -421.78292939 Ry
     estimated scf accuracy    <       0.00000068 Ry

     iteration # 29     ecut=    35.00 Ry     beta= 0.50
     Davidson diagonalization with overlap
     ethr =  2.45E-09,  avg # of iterations =  2.2

     total cpu time spent up to now is       89.0 secs

     total energy              =    -421.78292937 Ry
     estimated scf accuracy    <       0.00000017 Ry

     iteration # 30     ecut=    35.00 Ry     beta= 0.50
     Davidson diagonalization with overlap
     ethr =  6.17E-10,  avg # of iterations =  2.4

     total cpu time spent up to now is       92.7 secs

     total energy              =    -421.78294122 Ry
     estimated scf accuracy    <       0.00003625 Ry

     iteration # 31     ecut=    35.00 Ry     beta= 0.50
     Davidson diagonalization with overlap
     ethr =  6.17E-10,  avg # of iterations =  3.4

     total cpu time spent up to now is       96.4 secs

     total energy              =    -421.78294001 Ry
     estimated scf accuracy    <       0.00002659 Ry

     iteration # 32     ecut=    35.00 Ry     beta= 0.50
     Davidson diagonalization with overlap
     ethr =  6.17E-10,  avg # of iterations =  2.0

     total cpu time spent up to now is       99.5 secs

     total energy              =    -421.78293925 Ry
     estimated scf accuracy    <       0.00002378 Ry

     iteration # 33     ecut=    35.00 Ry     beta= 0.50
     Davidson diagonalization with overlap
     ethr =  6.17E-10,  avg # of iterations =  2.0

     total cpu time spent up to now is      102.3 secs

     total energy              =    -421.78293261 Ry
     estimated scf accuracy    <       0.00002205 Ry

     iteration # 34     ecut=    35.00 Ry     beta= 0.50
     Davidson diagonalization with overlap
     ethr =  6.17E-10,  avg # of iterations =  5.1

     total cpu time spent up to now is      106.8 secs

     total energy              =    -421.78293023 Ry
     estimated scf accuracy    <       0.00000824 Ry

     iteration # 35     ecut=    35.00 Ry     beta= 0.50
     Davidson diagonalization with overlap
     ethr =  6.17E-10,  avg # of iterations =  4.5

     total cpu time spent up to now is      111.1 secs

     total energy              =    -421.78292910 Ry
     estimated scf accuracy    <       0.00000237 Ry

     iteration # 36     ecut=    35.00 Ry     beta= 0.50
     Davidson diagonalization with overlap
     ethr =  6.17E-10,  avg # of iterations =  4.6

     total cpu time spent up to now is      115.2 secs

     End of self-consistent calculation

          k = 0.0000 0.0000 0.0000 (  1067 PWs)   bands (ev):

   -17.0504 -17.0496 -17.0470 -17.0167 -17.0155 -16.8226 -16.8221 -16.8197
   -16.8095 -16.8083  -4.7902   7.3503   7.8068   7.8127

          k = 0.1414 0.1414-0.1414 (  1098 PWs)   bands (ev):

   -17.0644 -17.0618 -17.0455 -16.9959 -16.9948 -16.8409 -16.8408 -16.8286
   -16.7947 -16.7933  -4.3237   3.9315   7.1561   7.1635

          k = 0.2828 0.2828-0.2828 (  1101 PWs)   bands (ev):

   -17.0733 -17.0703 -17.0365 -16.9794 -16.9778 -16.8537 -16.8524 -16.8393
   -16.7864 -16.7836  -3.1351   0.8803   6.5293   6.5366

          k = 0.2828 0.0000 0.0000 (  1106 PWs)   bands (ev):

   -17.0629 -17.0626 -17.0571 -16.9953 -16.9707 -16.8814 -16.8285 -16.8035
   -16.8030 -16.7949  -4.1609   3.8836   6.2564   6.2567

          k = 0.4243 0.1414-0.1414 (  1097 PWs)   bands (ev):

   -17.0835 -17.0732 -17.0320 -16.9709 -16.9455 -16.9050 -16.8539 -16.8295
   -16.7858 -16.7726  -3.1421   1.4878   4.9751   5.7053

          k =-0.1414-0.4243 0.4243 (  1114 PWs)   bands (ev):

   -17.0915 -17.0802 -17.0091 -16.9605 -16.9521 -16.8839 -16.8775 -16.8552
   -16.7757 -16.7650  -2.4079   0.3067   4.1921   5.9622

          k = 0.0000-0.2828 0.2828 (  1093 PWs)   bands (ev):

   -17.0783 -17.0759 -17.0248 -16.9863 -16.9647 -16.8718 -16.8545 -16.8364
   -16.7841 -16.7776  -3.5797   2.2685   4.7579   6.8403

          k = 0.5657 0.0000 0.0000 (  1094 PWs)   bands (ev):

   -17.0795 -17.0794 -17.0306 -16.9637 -16.9423 -16.8947 -16.8787 -16.8265
   -16.7761 -16.7759  -2.3327   0.4774   4.9975   4.9976

          k = 0.0000-0.5657 0.5657 (  1105 PWs)   bands (ev):

   -17.0949 -17.0827 -16.9997 -16.9618 -16.9174 -16.9064 -16.8939 -16.8585
   -16.7714 -16.7599  -1.3086  -0.6603   3.8107   5.1087

          k =-0.1414-0.4243 0.7071 (  1099 PWs)   bands (ev):

   -17.0946 -17.0869 -16.9943 -16.9444 -16.9345 -16.9144 -16.8859 -16.8634
   -16.7650 -16.7636  -1.9788   0.1164   3.8599   4.8112

          k =-0.1414-0.1414-0.1414 (  1098 PWs)   bands (ev):

   -17.0645 -17.0618 -17.0455 -16.9959 -16.9948 -16.8409 -16.8408 -16.8285
   -16.7947 -16.7933  -4.3237   3.9316   7.1560   7.1635

          k =-0.1414 0.1414 0.1414 (  1098 PWs)   bands (ev):

   -17.0647 -17.0630 -17.0432 -16.9963 -16.9953 -16.8419 -16.8409 -16.8267
   -16.7951 -16.7935  -4.3241   3.9375   7.1524   7.1611

          k = 0.1414-0.1414 0.1414 (  1098 PWs)   bands (ev):

   -17.0647 -17.0630 -17.0432 -16.9963 -16.9953 -16.8419 -16.8409 -16.8267
   -16.7951 -16.7935  -4.3241   3.9375   7.1524   7.1611

          k =-0.2828-0.2828-0.2828 (  1101 PWs)   bands (ev):

   -17.0734 -17.0703 -17.0364 -16.9794 -16.9778 -16.8537 -16.8524 -16.8392
   -16.7864 -16.7836  -3.1351   0.8804   6.5292   6.5366

          k =-0.2828 0.2828 0.2828 (  1101 PWs)   bands (ev):

   -17.0734 -17.0714 -17.0342 -16.9797 -16.9790 -16.8539 -16.8531 -16.8374
   -16.7862 -16.7843  -3.1376   0.8883   6.5264   6.5350

          k = 0.2828-0.2828 0.2828 (  1101 PWs)   bands (ev):

   -17.0734 -17.0714 -17.0342 -16.9797 -16.9790 -16.8539 -16.8531 -16.8374
   -16.7862 -16.7843  -3.1376   0.8883   6.5264   6.5350

          k = 0.0000-0.2828 0.0000 (  1106 PWs)   bands (ev):

   -17.0629 -17.0626 -17.0571 -16.9953 -16.9707 -16.8814 -16.8285 -16.8035
   -16.8030 -16.7949  -4.1609   3.8836   6.2564   6.2567

          k = 0.0000 0.0000-0.2828 (  1106 PWs)   bands (ev):

   -17.0637 -17.0604 -17.0579 -16.9962 -16.9704 -16.8815 -16.8294 -16.8042
   -16.8013 -16.7949  -4.1609   3.8839   6.2519   6.2604

          k =-0.4243-0.1414-0.1414 (  1097 PWs)   bands (ev):

   -17.0835 -17.0733 -17.0320 -16.9709 -16.9455 -16.9050 -16.8539 -16.8295
   -16.7858 -16.7726  -3.1422   1.4879   4.9751   5.7053

          k =-0.4243 0.1414 0.1414 (  1097 PWs)   bands (ev):

   -17.0846 -17.0729 -17.0300 -16.9714 -16.9463 -16.9056 -16.8543 -16.8277
   -16.7852 -16.7738  -3.1436   1.4946   4.9690   5.7059

          k = 0.4243-0.1414 0.1414 (  1097 PWs)   bands (ev):

   -17.0846 -17.0729 -17.0300 -16.9714 -16.9463 -16.9057 -16.8543 -16.8277
   -16.7852 -16.7738  -3.1436   1.4946   4.9689   5.7060

          k =-0.1414-0.4243 0.1414 (  1097 PWs)   bands (ev):

   -17.0835 -17.0732 -17.0320 -16.9709 -16.9455 -16.9050 -16.8539 -16.8295
   -16.7858 -16.7726  -3.1421   1.4878   4.9751   5.7053

          k = 0.1414-0.1414-0.4243 (  1097 PWs)   bands (ev):

   -17.0824 -17.0743 -17.0312 -16.9721 -16.9454 -16.9046 -16.8551 -16.8286
   -16.7865 -16.7718  -3.1433   1.4929   4.9750   5.7012

          k = 0.1414-0.1414 0.4243 (  1097 PWs)   bands (ev):

   -17.0824 -17.0743 -17.0312 -16.9721 -16.9454 -16.9046 -16.8551 -16.8286
   -16.7865 -16.7718  -3.1433   1.4929   4.9750   5.7012

          k =-0.1414-0.1414-0.4243 (  1097 PWs)   bands (ev):

   -17.0853 -17.0711 -17.0311 -16.9720 -16.9456 -16.9058 -16.8550 -16.8281
   -16.7836 -16.7744  -3.1424   1.4897   4.9690   5.7092

          k = 0.1414 0.1414-0.4243 (  1097 PWs)   bands (ev):

   -17.0853 -17.0711 -17.0311 -16.9720 -16.9456 -16.9058 -16.8550 -16.8281
   -16.7837 -16.7743  -3.1424   1.4896   4.9691   5.7092

          k =-0.1414 0.4243 0.1414 (  1097 PWs)   bands (ev):

   -17.0846 -17.0729 -17.0300 -16.9714 -16.9463 -16.9057 -16.8543 -16.8277
   -16.7852 -16.7738  -3.1436   1.4946   4.9689   5.7060

          k =-0.1414-0.4243-0.1414 (  1097 PWs)   bands (ev):

   -17.0835 -17.0733 -17.0320 -16.9709 -16.9455 -16.9050 -16.8539 -16.8295
   -16.7858 -16.7726  -3.1422   1.4879   4.9751   5.7053

          k = 0.1414-0.4243 0.1414 (  1097 PWs)   bands (ev):

   -17.0846 -17.0729 -17.0300 -16.9714 -16.9463 -16.9057 -16.8543 -16.8277
   -16.7852 -16.7738  -3.1436   1.4946   4.9690   5.7059

          k = 0.1414 0.4243 0.4243 (  1114 PWs)   bands (ev):

   -17.0915 -17.0802 -17.0091 -16.9605 -16.9521 -16.8838 -16.8775 -16.8552
   -16.7758 -16.7649  -2.4080   0.3069   4.1920   5.9621

          k = 0.1414-0.4243-0.4243 (  1114 PWs)   bands (ev):

   -17.0920 -17.0799 -17.0079 -16.9611 -16.9528 -16.8841 -16.8779 -16.8541
   -16.7753 -16.7655  -2.4110   0.3143   4.1875   5.9628

          k =-0.1414 0.4243-0.4243 (  1114 PWs)   bands (ev):

   -17.0921 -17.0799 -17.0079 -16.9611 -16.9528 -16.8841 -16.8779 -16.8541
   -16.7753 -16.7655  -2.4110   0.3142   4.1874   5.9629

          k = 0.4243 0.1414-0.4243 (  1114 PWs)   bands (ev):

   -17.0915 -17.0802 -17.0091 -16.9605 -16.9521 -16.8839 -16.8775 -16.8552
   -16.7757 -16.7650  -2.4079   0.3067   4.1921   5.9622

          k =-0.4243 0.4243 0.1414 (  1114 PWs)   bands (ev):

   -17.0905 -17.0813 -17.0089 -16.9595 -16.9535 -16.8821 -16.8787 -16.8555
   -16.7764 -16.7642  -2.4118   0.3155   4.1915   5.9576

          k =-0.4243 0.4243-0.1414 (  1114 PWs)   bands (ev):

   -17.0905 -17.0813 -17.0089 -16.9595 -16.9535 -16.8821 -16.8787 -16.8555
   -16.7764 -16.7642  -2.4118   0.3155   4.1915   5.9576

          k = 0.4243 0.4243 0.1414 (  1114 PWs)   bands (ev):

   -17.0931 -17.0782 -17.0086 -16.9602 -16.9532 -16.8850 -16.8785 -16.8531
   -16.7738 -16.7668  -2.4072   0.3056   4.1882   5.9665

          k =-0.4243-0.4243 0.1414 (  1114 PWs)   bands (ev):

   -17.0931 -17.0782 -17.0086 -16.9602 -16.9532 -16.8850 -16.8785 -16.8532
   -16.7738 -16.7667  -2.4072   0.3055   4.1883   5.9665

          k = 0.4243-0.1414-0.4243 (  1114 PWs)   bands (ev):

   -17.0921 -17.0799 -17.0079 -16.9611 -16.9528 -16.8841 -16.8779 -16.8541
   -16.7753 -16.7655  -2.4110   0.3142   4.1874   5.9629

          k = 0.4243 0.1414 0.4243 (  1114 PWs)   bands (ev):

   -17.0915 -17.0802 -17.0091 -16.9605 -16.9521 -16.8838 -16.8775 -16.8552
   -16.7758 -16.7649  -2.4080   0.3069   4.1920   5.9621

          k =-0.4243 0.1414-0.4243 (  1114 PWs)   bands (ev):

   -17.0920 -17.0799 -17.0079 -16.9611 -16.9528 -16.8841 -16.8779 -16.8541
   -16.7753 -16.7655  -2.4110   0.3143   4.1875   5.9628

          k =-0.0000 0.2828 0.2828 (  1093 PWs)   bands (ev):

   -17.0783 -17.0759 -17.0248 -16.9863 -16.9647 -16.8718 -16.8545 -16.8363
   -16.7841 -16.7776  -3.5797   2.2686   4.7579   6.8402

          k = 0.2828-0.0000-0.2828 (  1093 PWs)   bands (ev):

   -17.0783 -17.0759 -17.0248 -16.9863 -16.9647 -16.8718 -16.8545 -16.8364
   -16.7841 -16.7776  -3.5797   2.2685   4.7579   6.8403

          k =-0.2828 0.2828-0.0000 (  1093 PWs)   bands (ev):

   -17.0785 -17.0764 -17.0232 -16.9862 -16.9657 -16.8728 -16.8546 -16.8346
   -16.7835 -16.7788  -3.5806   2.2737   4.7580   6.8344

          k = 0.2828 0.2828-0.0000 (  1093 PWs)   bands (ev):

   -17.0781 -17.0757 -17.0262 -16.9846 -16.9651 -16.8720 -16.8540 -16.8364
   -16.7853 -16.7767  -3.5789   2.2634   4.7581   6.8452

          k = 0.2828-0.0000 0.2828 (  1093 PWs)   bands (ev):

   -17.0783 -17.0759 -17.0248 -16.9863 -16.9647 -16.8718 -16.8545 -16.8363
   -16.7841 -16.7776  -3.5797   2.2686   4.7579   6.8402

          k = 0.0000-0.5657 0.0000 (  1094 PWs)   bands (ev):

   -17.0795 -17.0794 -17.0306 -16.9637 -16.9423 -16.8947 -16.8787 -16.8265
   -16.7761 -16.7759  -2.3327   0.4774   4.9975   4.9976

          k = 0.0000 0.0000-0.5657 (  1094 PWs)   bands (ev):

   -17.0806 -17.0773 -17.0308 -16.9638 -16.9432 -16.8946 -16.8796 -16.8263
   -16.7770 -16.7742  -2.3326   0.4775   4.9936   5.0007

          k = 0.0000 0.5657 0.5657 (  1105 PWs)   bands (ev):

   -17.0949 -17.0827 -16.9997 -16.9617 -16.9174 -16.9064 -16.8938 -16.8585
   -16.7714 -16.7599  -1.3087  -0.6601   3.8108   5.1087

          k = 0.5657 0.0000-0.5657 (  1105 PWs)   bands (ev):

   -17.0949 -17.0827 -16.9997 -16.9618 -16.9174 -16.9064 -16.8939 -16.8585
   -16.7714 -16.7599  -1.3086  -0.6603   3.8107   5.1087

          k =-0.5657 0.5657 0.0000 (  1105 PWs)   bands (ev):

   -17.0931 -17.0839 -17.0012 -16.9601 -16.9184 -16.9072 -16.8919 -16.8599
   -16.7724 -16.7583  -1.3132  -0.6548   3.8138   5.1046

          k = 0.5657 0.5657 0.0000 (  1105 PWs)   bands (ev):

   -17.0962 -17.0808 -16.9984 -16.9632 -16.9183 -16.9072 -16.8950 -16.8567
   -16.7696 -16.7612  -1.3040  -0.6655   3.8074   5.1120

          k = 0.5657 0.0000 0.5657 (  1105 PWs)   bands (ev):

   -17.0949 -17.0827 -16.9997 -16.9617 -16.9174 -16.9064 -16.8938 -16.8585
   -16.7714 -16.7599  -1.3087  -0.6601   3.8108   5.1087

          k = 0.1414-0.4243-0.7071 (  1099 PWs)   bands (ev):

   -17.0922 -17.0897 -16.9934 -16.9449 -16.9349 -16.9146 -16.8851 -16.8636
   -16.7676 -16.7612  -1.9833   0.1250   3.8626   4.8037

          k = 0.4243 0.1414-0.7071 (  1099 PWs)   bands (ev):

   -17.0946 -17.0869 -16.9943 -16.9444 -16.9345 -16.9144 -16.8859 -16.8634
   -16.7650 -16.7636  -1.9788   0.1164   3.8599   4.8112

          k =-0.7071 0.4243 0.1414 (  1099 PWs)   bands (ev):

   -17.0936 -17.0879 -16.9937 -16.9456 -16.9344 -16.9140 -16.8862 -16.8632
   -16.7667 -16.7617  -1.9811   0.1208   3.8611   4.8074

          k = 0.1414-0.7071 0.4243 (  1099 PWs)   bands (ev):

   -17.0934 -17.0886 -16.9933 -16.9456 -16.9342 -16.9138 -16.8865 -16.8627
   -16.7667 -16.7623  -1.9811   0.1207   3.8613   4.8076

          k =-0.4243 0.7071-0.1414 (  1099 PWs)   bands (ev):

   -17.0936 -17.0879 -16.9937 -16.9456 -16.9344 -16.9140 -16.8862 -16.8632
   -16.7667 -16.7617  -1.9811   0.1208   3.8611   4.8074

          k =-0.4243-0.7071 0.1414 (  1099 PWs)   bands (ev):

   -17.0936 -17.0879 -16.9937 -16.9456 -16.9344 -16.9140 -16.8862 -16.8632
   -16.7667 -16.7617  -1.9810   0.1207   3.8611   4.8075

          k = 0.7071-0.1414-0.4243 (  1099 PWs)   bands (ev):

   -17.0934 -17.0886 -16.9933 -16.9456 -16.9342 -16.9138 -16.8865 -16.8627
   -16.7667 -16.7623  -1.9811   0.1207   3.8613   4.8076

          k =-0.7071 0.1414-0.4243 (  1099 PWs)   bands (ev):

   -17.0934 -17.0886 -16.9933 -16.9456 -16.9342 -16.9138 -16.8865 -16.8627
   -16.7666 -16.7623  -1.9810   0.1206   3.8612   4.8077

          k = 0.4243-0.1414-0.7071 (  1099 PWs)   bands (ev):

   -17.0922 -17.0897 -16.9934 -16.9449 -16.9349 -16.9146 -16.8851 -16.8636
   -16.7676 -16.7612  -1.9833   0.1250   3.8626   4.8037

          k =-0.7071-0.4243 0.1414 (  1099 PWs)   bands (ev):

   -17.0936 -17.0879 -16.9937 -16.9456 -16.9344 -16.9140 -16.8862 -16.8632
   -16.7667 -16.7617  -1.9810   0.1207   3.8611   4.8075

          k =-0.1414-0.7071 0.4243 (  1099 PWs)   bands (ev):

   -17.0934 -17.0886 -16.9933 -16.9456 -16.9342 -16.9138 -16.8865 -16.8627
   -16.7666 -16.7623  -1.9810   0.1206   3.8612   4.8077

     highest occupied level (ev):     7.8127

!    total energy              =    -421.78292944 Ry
     estimated scf accuracy    <          2.6E-09 Ry

     The total energy is the sum of the following terms:
     one-electron contribution =    -278.54293951 Ry
     hartree contribution      =     163.94875213 Ry
     xc contribution           =    -111.66784622 Ry
     ewald contribution        =    -195.52089585 Ry

     convergence has been achieved in  36 iterations

     Forces acting on atoms (cartesian axes, Ry/au):

     atom    1 type  1   force =     0.00001836    0.00001758   -0.00270439
     atom    2 type  1   force =    -0.00001836   -0.00001758    0.00270439
     The non-local contrib.  to forces
     atom    1 type  1   force =    -0.00006266   -0.00005866    0.00657992
     atom    2 type  1   force =     0.00006264    0.00005888   -0.00657948
     The ionic contribution  to forces
     atom    1 type  1   force =     0.00002069    0.00002069    0.00002069
     atom    2 type  1   force =    -0.00002069   -0.00002069   -0.00002069
     The local contribution  to forces
     atom    1 type  1   force =     0.00006915    0.00006621   -0.00935496
     atom    2 type  1   force =    -0.00006898   -0.00006649    0.00935430
     The core correction contribution to forces
     atom    1 type  1   force =     0.00000180    0.00000175   -0.00019177
     atom    2 type  1   force =    -0.00000179   -0.00000175    0.00019175
     The Hubbard contrib.    to forces
     atom    1 type  1   force =     0.00000000    0.00000000    0.00000000
     atom    2 type  1   force =     0.00000000    0.00000000    0.00000000
     The SCF correction term to forces
     atom    1 type  1   force =    -0.00001093   -0.00001242    0.00024241
     atom    2 type  1   force =     0.00001015    0.00001244   -0.00024080

     Total force =     0.003825     Total SCF correction =     0.000342


     Computing stress (Cartesian axis) and pressure

          total   stress  (Ry/bohr**3)                   (kbar)     P=      -36.59
  -0.00025342  -0.00000209   0.00000002          -37.28       -0.31        0.00
  -0.00000209  -0.00025344   0.00000001           -0.31      -37.28        0.00
   0.00000002   0.00000001  -0.00023937            0.00        0.00      -35.21


     init_run     :      2.69s CPU      1.98s WALL (       1 calls)
     electrons    :    164.61s CPU    113.08s WALL (       1 calls)
     forces       :      0.46s CPU      0.28s WALL (       1 calls)
     stress       :      5.84s CPU      3.98s WALL (       1 calls)

     Called by init_run:
     wfcinit      :      2.26s CPU      1.54s WALL (       1 calls)
     potinit      :      0.01s CPU      0.01s WALL (       1 calls)
     hinit0       :      0.39s CPU      0.39s WALL (       1 calls)

     Called by electrons:
     c_bands      :    136.22s CPU     93.13s WALL (      37 calls)
     sum_band     :     25.94s CPU     18.03s WALL (      37 calls)
     v_of_rho     :      0.36s CPU      0.35s WALL (      37 calls)
     newd         :      1.61s CPU      1.06s WALL (      37 calls)
     mix_rho      :      0.27s CPU      0.26s WALL (      37 calls)

     Called by c_bands:
     init_us_2    :      6.79s CPU      4.72s WALL (    4851 calls)
     init_us_2:cp :      6.73s CPU      4.67s WALL (    4851 calls)
     cegterg      :    120.24s CPU     81.38s WALL (    2331 calls)

     Called by *egterg:
     cdiaghg      :      6.81s CPU      4.47s WALL (    7444 calls)
     h_psi        :    100.46s CPU     68.43s WALL (    7570 calls)
     s_psi        :      2.56s CPU      1.68s WALL (    7570 calls)
     g_psi        :      1.11s CPU      0.70s WALL (    5176 calls)

     Called by h_psi:
     h_psi:calbec :      2.96s CPU      2.12s WALL (    7570 calls)
     vloc_psi     :     94.08s CPU     63.92s WALL (    7570 calls)
     add_vuspsi   :      2.54s CPU      1.71s WALL (    7570 calls)

     General routines
     calbec       :      4.01s CPU      2.77s WALL (   10216 calls)
     fft          :      0.27s CPU      0.23s WALL (     157 calls)
     ffts         :      0.03s CPU      0.04s WALL (      37 calls)
     fftw         :     89.89s CPU     61.18s WALL (  189638 calls)

     Parallel routines

     PWSCF        :   2m53.71s CPU   1m59.49s WALL


   This run was terminated on:  10:39: 6  16Oct2023            

=------------------------------------------------------------------------------=
   JOB DONE.
=------------------------------------------------------------------------------=
