LAMMPS (29 Oct 2020)
Reading data file ...
  orthogonal box = (0.0000000 0.0000000 0.0000000) to (16.360000 16.360000 16.360000)
  1 by 1 by 1 MPI processor grid
  reading atoms ...
  255 atoms
  read_data CPU = 0.001 seconds
Reading eam potential file /home/gridsan/epan1/3320_atomistic_shared/lammps/potentials/Ag_u3.eam with DATE: 2007-06-11
WARNING: No fixes defined, atoms won't move (../verlet.cpp:54)
Neighbor list info ...
  update every 1 steps, delay 10 steps, check yes
  max neighbors/atom: 2000, page size: 100000
  master list distance cutoff = 7.55
  ghost atom cutoff = 7.55
  binsize = 3.775, bins = 5 5 5
  1 neighbor lists, perpetual/occasional/extra = 1 0 0
  (1) pair eam, perpetual
      attributes: half, newton on
      pair build: half/bin/atomonly/newton
      stencil: half/bin/3d/newton
      bin: standard
Setting up Verlet run ...
  Unit style    : metal
  Current step  : 0
  Time step     : 0.001
Per MPI rank memory allocation (min/avg/max) = 3.368 | 3.368 | 3.368 Mbytes
Step PotEng Lx Ly Lz Press Pxx Pyy Pzz 
       0   -725.77575        16.36        16.36        16.36   -585.33982   -585.33982   -585.33982   -585.33982 
Loop time of 0 on 1 procs for 0 steps with 255 atoms

0.0% CPU use with 1 MPI tasks x no OpenMP threads

MPI task timing breakdown:
Section |  min time  |  avg time  |  max time  |%varavg| %total
---------------------------------------------------------------
Pair    | 0          | 0          | 0          |   0.0 |  0.00
Neigh   | 0          | 0          | 0          |   0.0 |  0.00
Comm    | 0          | 0          | 0          |   0.0 |  0.00
Output  | 0          | 0          | 0          |   0.0 |  0.00
Modify  | 0          | 0          | 0          |   0.0 |  0.00
Other   |            | 0          |            |       |  0.00

Nlocal:        255.000 ave         255 max         255 min
Histogram: 1 0 0 0 0 0 0 0 0 0
Nghost:        1424.00 ave        1424 max        1424 min
Histogram: 1 0 0 0 0 0 0 0 0 0
Neighs:        10922.0 ave       10922 max       10922 min
Histogram: 1 0 0 0 0 0 0 0 0 0

Total # of neighbors = 10922
Ave neighs/atom = 42.831373
Neighbor list builds = 0
Dangerous builds = 0
WARNING: Using 'neigh_modify every 1 delay 0 check yes' setting during minimization (../min.cpp:187)
Setting up cg style minimization ...
  Unit style    : metal
  Current step  : 0
WARNING: Energy due to 1 extra global DOFs will be included in minimizer energies
Per MPI rank memory allocation (min/avg/max) = 4.493 | 4.493 | 4.493 Mbytes
Step PotEng Lx Ly Lz Press Pxx Pyy Pzz 
       0   -725.77575        16.36        16.36        16.36   -585.33982   -585.33982   -585.33982   -585.33982 
      12   -725.78445    16.356201    16.356201    16.356201   -3.0764377   -3.0764377   -3.0764377   -3.0764377 
Loop time of 0.093246 on 1 procs for 12 steps with 255 atoms

11.5% CPU use with 1 MPI tasks x no OpenMP threads

Minimization stats:
  Stopping criterion = energy tolerance
  Energy initial, next-to-last, final = 
     -725.775748191357  -725.784454627875  -725.784454654539
  Force two-norm initial, final = 4.8046692 0.030505787
  Force max component initial, final = 4.7992002 0.025211994
  Final line search alpha, max atom move = 0.084813504 0.0021383176
  Iterations, force evaluations = 12 24

MPI task timing breakdown:
Section |  min time  |  avg time  |  max time  |%varavg| %total
---------------------------------------------------------------
Pair    | 0.0098412  | 0.0098412  | 0.0098412  |   0.0 | 10.55
Neigh   | 0          | 0          | 0          |   0.0 |  0.00
Comm    | 0.00016069 | 0.00016069 | 0.00016069 |   0.0 |  0.17
Output  | 0          | 0          | 0          |   0.0 |  0.00
Modify  | 0          | 0          | 0          |   0.0 |  0.00
Other   |            | 0.08324    |            |       | 89.27

Nlocal:        255.000 ave         255 max         255 min
Histogram: 1 0 0 0 0 0 0 0 0 0
Nghost:        1424.00 ave        1424 max        1424 min
Histogram: 1 0 0 0 0 0 0 0 0 0
Neighs:        10922.0 ave       10922 max       10922 min
Histogram: 1 0 0 0 0 0 0 0 0 0

Total # of neighbors = 10922
Ave neighs/atom = 42.831373
Neighbor list builds = 0
Dangerous builds = 0
Total energy (eV) = -725.784454654539
Number of atoms = 255
Lattice constant (Angstoms) = 16.3562009605232
Total wall time: 0:00:00
