
     Program PWSCF v.7.2 starts on  2Nov2023 at 18:12:42 

     This program is part of the open-source Quantum ESPRESSO suite
     for quantum simulation of materials; please cite
         "P. Giannozzi et al., J. Phys.:Condens. Matter 21 395502 (2009);
         "P. Giannozzi et al., J. Phys.:Condens. Matter 29 465901 (2017);
         "P. Giannozzi et al., J. Chem. Phys. 152 154105 (2020);
          URL http://www.quantum-espresso.org", 
     in publications or presentations arising from this work. More details at
     http://www.quantum-espresso.org/quote

     Parallel version (MPI), running on     2 processors

     MPI processes distributed on     2 nodes
     187034 MiB available memory on the printing compute node when the environment starts

     Waiting for input...
     Reading input from standard input
Warning: card &CELL ignored
Warning: card / ignored

     Current dimensions of program PWSCF are:
     Max number of different atomic species (ntypx) = 10
     Max number of k-points (npk) =  40000
     Max angular momentum in pseudopotentials (lmaxx) =  4
     file O.pz-rrkjus.UPF: wavefunction(s)  2S renormalized
     Message from routine setup:
     using ibrav=0 with symmetry is DISCOURAGED, use correct ibrav instead

     R & G space division:  proc/nbgrp/npool/nimage =       2
     Subspace diagonalization in iterative solution of the eigenvalue problem:
     a serial algorithm will be used


     Parallelization info
     --------------------
     sticks:   dense  smooth     PW     G-vecs:    dense   smooth      PW
     Min         516     254     74                12418     4366     709
     Max         517     255     75                12419     4367     710
     Sum        1033     509    149                24837     8733    1419

     Using Slab Decomposition



     bravais-lattice index     =            0
     lattice parameter (alat)  =       7.3321  a.u.
     unit-cell volume          =     394.1775 (a.u.)^3
     number of atoms/cell      =            5
     number of atomic types    =            3
     number of electrons       =        44.00
     number of Kohn-Sham states=           22
     kinetic-energy cutoff     =      30.0000  Ry
     charge density cutoff     =     240.0000  Ry
     scf convergence threshold =      1.0E-07
     mixing beta               =       0.7000
     number of iterations used =            8  plain     mixing
     energy convergence thresh.=      1.0E-04
     force convergence thresh. =      1.0E-03
     Exchange-correlation= SLA  PZ   NOGX NOGC
                           (   1   1   0   0   0   0   0)
     nstep                     =           50


     celldm(1)=   7.332137  celldm(2)=   0.000000  celldm(3)=   0.000000
     celldm(4)=   0.000000  celldm(5)=   0.000000  celldm(6)=   0.000000

     crystal axes: (cart. coord. in units of alat)
               a(1) = (   1.000000   0.000000   0.000000 )  
               a(2) = (   0.000000   1.000000   0.000000 )  
               a(3) = (   0.000000   0.000000   1.000000 )  

     reciprocal axes: (cart. coord. in units 2 pi/alat)
               b(1) = (  1.000000  0.000000  0.000000 )  
               b(2) = (  0.000000  1.000000  0.000000 )  
               b(3) = (  0.000000  0.000000  1.000000 )  


     PseudoPot. # 1 for O  read from file:
     /home/gridsan/epan1/labutil/lab3_samples/pseudopotentials/O.pz-rrkjus.UPF
     MD5 check sum: 24fb942a68ef5d262e498166c462ef4a
     Pseudo is Ultrasoft, Zval =  6.0
     Generated by new atomic code, or converted to UPF format
     Using radial grid of 1269 points,  4 beta functions with: 
                l(1) =   0
                l(2) =   0
                l(3) =   1
                l(4) =   1
     Q(r) pseudized with 0 coefficients 


     PseudoPot. # 2 for Pb read from file:
     /home/gridsan/epan1/labutil/lab3_samples/pseudopotentials/Pb.pz-d-van.UPF
     MD5 check sum: 4e1e5920686a026ae26139ac417581ff
     Pseudo is Ultrasoft, Zval = 14.0
     Generated by new atomic code, or converted to UPF format
     Using radial grid of  899 points,  6 beta functions with: 
                l(1) =   0
                l(2) =   0
                l(3) =   1
                l(4) =   1
                l(5) =   2
                l(6) =   2
     Q(r) pseudized with  8 coefficients,  rinner =    1.000   1.000   1.000
                                                       1.000   1.000

     PseudoPot. # 3 for Ti read from file:
     /home/gridsan/epan1/labutil/lab3_samples/pseudopotentials/Ti.pz-sp-van_ak.UPF
     MD5 check sum: 545d0e6e05332b8871a8093f427cb0ca
     Pseudo is Ultrasoft, Zval = 12.0
     Generated by new atomic code, or converted to UPF format
     Using radial grid of  851 points,  6 beta functions with: 
                l(1) =   0
                l(2) =   0
                l(3) =   1
                l(4) =   1
                l(5) =   2
                l(6) =   2
     Q(r) pseudized with  8 coefficients,  rinner =    1.000   1.000   1.000
                                                       1.000   1.000

     atomic species   valence    mass     pseudopotential
        O              6.00    15.99900     O ( 1.00)
        Pb            14.00   207.20000     Pb( 1.00)
        Ti            12.00    47.86700     Ti( 1.00)

      8 Sym. Ops. (no inversion) found



   Cartesian axes

     site n.     atom                  positions (alat units)
         1           Pb  tau(   1) = (   0.0000000   0.0000000   0.0000000  )
         2           Ti  tau(   2) = (   0.5000000   0.5000000   0.5789485  )
         3           O   tau(   3) = (   0.0000000   0.5000000   0.5000000  )
         4           O   tau(   4) = (   0.5000000   0.0000000   0.5000000  )
         5           O   tau(   5) = (   0.5000000   0.5000000   0.0000000  )

     number of k points=     6
                       cart. coord. in units 2pi/alat
        k(    1) = (   0.1250000   0.1250000   0.1250000), wk =   0.2500000
        k(    2) = (   0.1250000   0.1250000   0.3750000), wk =   0.2500000
        k(    3) = (   0.1250000   0.3750000   0.3750000), wk =   0.5000000
        k(    4) = (   0.3750000   0.3750000   0.3750000), wk =   0.2500000
        k(    5) = (   0.3750000  -0.1250000   0.1250000), wk =   0.5000000
        k(    6) = (   0.3750000  -0.3750000   0.1250000), wk =   0.2500000

     Dense  grid:    24837 G-vectors     FFT dimensions: (  40,  40,  40)

     Smooth grid:     8733 G-vectors     FFT dimensions: (  25,  25,  25)

     Estimated max dynamical RAM per process >      51.66 MB

     Estimated total dynamical RAM >     103.32 MB

     Initial potential from superposition of free atoms

     starting charge      42.9982, renormalised to      44.0000
     Starting wfcs are   31 randomized atomic wfcs

     total cpu time spent up to now is        1.6 secs

     Self-consistent Calculation

     iteration #  1     ecut=    30.00 Ry     beta= 0.70
     Davidson diagonalization with overlap
     ethr =  1.00E-02,  avg # of iterations =  2.0

     total cpu time spent up to now is        1.9 secs

     total energy              =    -332.62135189 Ry
     estimated scf accuracy    <       1.06175844 Ry

     iteration #  2     ecut=    30.00 Ry     beta= 0.70
     Davidson diagonalization with overlap
     ethr =  2.41E-03,  avg # of iterations =  5.8

     total cpu time spent up to now is        2.3 secs

     total energy              =    -332.48073760 Ry
     estimated scf accuracy    <       3.11225362 Ry

     iteration #  3     ecut=    30.00 Ry     beta= 0.70
     Davidson diagonalization with overlap
     ethr =  2.41E-03,  avg # of iterations =  5.2

     total cpu time spent up to now is        2.6 secs

     total energy              =    -333.12197754 Ry
     estimated scf accuracy    <       0.20904140 Ry

     iteration #  4     ecut=    30.00 Ry     beta= 0.70
     Davidson diagonalization with overlap
     ethr =  4.75E-04,  avg # of iterations =  2.7

     total cpu time spent up to now is        2.9 secs

     total energy              =    -333.11937575 Ry
     estimated scf accuracy    <       0.05106708 Ry

     iteration #  5     ecut=    30.00 Ry     beta= 0.70
     Davidson diagonalization with overlap
     ethr =  1.16E-04,  avg # of iterations =  4.8

     total cpu time spent up to now is        3.2 secs

     total energy              =    -333.14525450 Ry
     estimated scf accuracy    <       0.03590375 Ry

     iteration #  6     ecut=    30.00 Ry     beta= 0.70
     Davidson diagonalization with overlap
     ethr =  8.16E-05,  avg # of iterations =  1.8

     total cpu time spent up to now is        3.5 secs

     total energy              =    -333.14282626 Ry
     estimated scf accuracy    <       0.01484752 Ry

     iteration #  7     ecut=    30.00 Ry     beta= 0.70
     Davidson diagonalization with overlap
     ethr =  3.37E-05,  avg # of iterations =  4.2

     total cpu time spent up to now is        3.8 secs

     total energy              =    -333.14635017 Ry
     estimated scf accuracy    <       0.00011756 Ry

     iteration #  8     ecut=    30.00 Ry     beta= 0.70
     Davidson diagonalization with overlap
     ethr =  2.67E-07,  avg # of iterations =  7.3

     total cpu time spent up to now is        4.2 secs

     total energy              =    -333.14662830 Ry
     estimated scf accuracy    <       0.00040463 Ry

     iteration #  9     ecut=    30.00 Ry     beta= 0.70
     Davidson diagonalization with overlap
     ethr =  2.67E-07,  avg # of iterations =  2.0

     total cpu time spent up to now is        4.5 secs

     total energy              =    -333.14651808 Ry
     estimated scf accuracy    <       0.00026892 Ry

     iteration # 10     ecut=    30.00 Ry     beta= 0.70
     Davidson diagonalization with overlap
     ethr =  2.67E-07,  avg # of iterations =  5.3

     total cpu time spent up to now is        4.9 secs

     total energy              =    -333.14658575 Ry
     estimated scf accuracy    <       0.00002745 Ry

     iteration # 11     ecut=    30.00 Ry     beta= 0.70
     Davidson diagonalization with overlap
     ethr =  6.24E-08,  avg # of iterations =  3.0

     total cpu time spent up to now is        5.1 secs

     total energy              =    -333.14658668 Ry
     estimated scf accuracy    <       0.00000443 Ry

     iteration # 12     ecut=    30.00 Ry     beta= 0.70
     Davidson diagonalization with overlap
     ethr =  1.01E-08,  avg # of iterations =  4.5

     total cpu time spent up to now is        5.5 secs

     total energy              =    -333.14658867 Ry
     estimated scf accuracy    <       0.00000177 Ry

     iteration # 13     ecut=    30.00 Ry     beta= 0.70
     Davidson diagonalization with overlap
     ethr =  4.03E-09,  avg # of iterations =  3.0

     total cpu time spent up to now is        5.8 secs

     total energy              =    -333.14658875 Ry
     estimated scf accuracy    <       0.00000022 Ry

     iteration # 14     ecut=    30.00 Ry     beta= 0.70
     Davidson diagonalization with overlap
     ethr =  5.07E-10,  avg # of iterations =  5.8

     total cpu time spent up to now is        6.1 secs

     total energy              =    -333.14658888 Ry
     estimated scf accuracy    <       0.00000044 Ry

     iteration # 15     ecut=    30.00 Ry     beta= 0.70
     Davidson diagonalization with overlap
     ethr =  5.07E-10,  avg # of iterations =  4.0

     total cpu time spent up to now is        6.5 secs

     End of self-consistent calculation

          k = 0.1250 0.1250 0.1250 (  1096 PWs)   bands (ev):

   -44.2970 -21.3420 -20.8661 -20.8652  -6.3648  -5.3336  -5.1221  -4.1559
    -4.1111  -4.0990  -3.9289  -3.8889   4.4627   7.0804   7.3294   8.0064
     8.4736   8.5825   9.3319   9.6980  10.0644  10.2170

          k = 0.1250 0.1250 0.3750 (  1095 PWs)   bands (ev):

   -44.2957 -21.4001 -20.8635 -20.8625  -5.8195  -5.2962  -4.9707  -4.1985
    -4.1522  -4.0866  -3.9901  -3.9088   3.6069   6.6995   6.7254   7.6806
     8.2920   8.5426   9.4987   9.6794  10.3316  10.9850

          k = 0.1250 0.3750 0.3750 (  1093 PWs)   bands (ev):

   -44.2944 -21.3965 -20.9181 -20.8611  -5.6188  -5.2215  -4.8882  -4.1748
    -4.1366  -4.0564  -3.9561  -3.7435   3.3475   6.3527   6.9511   7.2051
     7.6411   8.7219   9.0311   9.6004   9.8377  10.5864

          k = 0.3750 0.3750 0.3750 (  1082 PWs)   bands (ev):

   -44.2931 -21.3937 -20.9155 -20.9152  -5.4857  -5.1716  -5.0870  -4.0943
    -4.0515  -3.8328  -3.6773  -3.6312   3.9974   5.6455   5.9566   6.5938
     7.3471   7.5490   7.8832  10.2822  10.3674  10.8657

          k = 0.3750-0.1250 0.1250 (  1095 PWs)   bands (ev):

   -44.2957 -21.3393 -20.9218 -20.8634  -6.0319  -5.1483  -5.0049  -4.1848
    -4.1327  -4.1000  -4.0228  -3.8809   3.7383   7.0055   7.2986   7.7041
     8.3135   8.7024   9.1377   9.5951   9.7745  10.7543

          k = 0.3750-0.3750 0.1250 (  1093 PWs)   bands (ev):

   -44.2945 -21.3373 -20.9189 -20.9181  -5.9512  -4.9389  -4.8571  -4.1352
    -4.1151  -4.0285  -3.9437  -3.8866   3.4795   6.7129   6.7688   7.0089
     7.5168   8.6834   9.4648   9.5619   9.9686  10.8494

     highest occupied level (ev):    10.9850

!    total energy              =    -333.14658891 Ry
     estimated scf accuracy    <       0.00000001 Ry

     The total energy is the sum of the following terms:
     one-electron contribution =     -79.71230477 Ry
     hartree contribution      =      67.82913207 Ry
     xc contribution           =     -49.74146187 Ry
     ewald contribution        =    -271.52195434 Ry

     convergence has been achieved in  15 iterations

     Forces acting on atoms (cartesian axes, Ry/au):

     atom    1 type  2   force =     0.00000000    0.00000000    0.03475799
     atom    2 type  3   force =     0.00000000    0.00000000   -0.21668044
     atom    3 type  1   force =     0.00000000    0.00000000    0.01088908
     atom    4 type  1   force =     0.00000000    0.00000000    0.01088908
     atom    5 type  1   force =     0.00000000    0.00000000    0.16014430
     The non-local contrib.  to forces
     atom    1 type  2   force =     0.00000000    0.00000000   -0.01762788
     atom    2 type  3   force =     0.00000000    0.00000000    0.11323271
     atom    3 type  1   force =     0.00000000    0.00000000    0.22416598
     atom    4 type  1   force =     0.00000000    0.00000000    0.22416598
     atom    5 type  1   force =     0.00000000    0.00000000   -0.53449726
     The ionic contribution  to forces
     atom    1 type  2   force =     0.00000000    0.00000000    1.99096923
     atom    2 type  3   force =    -0.00000000   -0.00000000   -5.25053450
     atom    3 type  1   force =     0.00000000   -0.00000000   -2.16722517
     atom    4 type  1   force =    -0.00000000    0.00000000   -2.16722517
     atom    5 type  1   force =    -0.00000000   -0.00000000    7.59401561
     The local contribution  to forces
     atom    1 type  2   force =    -0.00000000   -0.00000000   -1.93860817
     atom    2 type  3   force =    -0.00000000   -0.00000000    4.92060962
     atom    3 type  1   force =     0.00000000   -0.00000000    1.95397783
     atom    4 type  1   force =    -0.00000000   -0.00000000    1.95397783
     atom    5 type  1   force =    -0.00000000   -0.00000000   -6.89947257
     The core correction contribution to forces
     atom    1 type  2   force =     0.00000000    0.00000000    0.00000000
     atom    2 type  3   force =     0.00000000    0.00000000    0.00000000
     atom    3 type  1   force =     0.00000000    0.00000000    0.00000000
     atom    4 type  1   force =     0.00000000    0.00000000    0.00000000
     atom    5 type  1   force =     0.00000000    0.00000000    0.00000000
     The Hubbard contrib.    to forces
     atom    1 type  2   force =     0.00000000    0.00000000    0.00000000
     atom    2 type  3   force =     0.00000000    0.00000000    0.00000000
     atom    3 type  1   force =     0.00000000    0.00000000    0.00000000
     atom    4 type  1   force =     0.00000000    0.00000000    0.00000000
     atom    5 type  1   force =     0.00000000    0.00000000    0.00000000
     The SCF correction term to forces
     atom    1 type  2   force =     0.00000000    0.00000000    0.00000000
     atom    2 type  3   force =    -0.00000000   -0.00000000    0.00000000
     atom    3 type  1   force =     0.00000000    0.00000000   -0.00003221
     atom    4 type  1   force =     0.00000000    0.00000000   -0.00003221
     atom    5 type  1   force =     0.00000000    0.00000000    0.00009586

     Total force =     0.160883     Total SCF correction =     0.000106


     Computing stress (Cartesian axis) and pressure

          total   stress  (Ry/bohr**3)                   (kbar)     P=       53.53
  -0.00004129   0.00000000   0.00000000           -6.07        0.00        0.00
   0.00000000  -0.00004129   0.00000000            0.00       -6.07        0.00
   0.00000000   0.00000000   0.00117421            0.00        0.00      172.73


     BFGS Geometry Optimization
     Energy error            =      0.0E+00 Ry
     Gradient error          =      1.6E-01 Ry/Bohr

     number of scf cycles    =   1
     number of bfgs steps    =   0

     energy             new  =    -333.1465889098 Ry

     new trust radius        =       0.1601442955 bohr
     new conv_thr            =       0.0000001000 Ry


ATOMIC_POSITIONS (angstrom)
Pb            0.0000000000        0.0000000000        0.0000000000    0   0   0
Ti            1.9400000000        1.9400000000        2.2463200000    0   0   0
O             0.0000000000        1.9400000000        1.9457622506
O             1.9400000000        0.0000000000        1.9457622506
O             1.9400000000        1.9400000000        0.0847447116



     Writing config-only to output data dir /home/gridsan/epan1/labutil/lab3_samples/problem2/Lab3/PbTiO3_a_3.88_ecut_30_nk_4_displ_0.07894736842105263/pwscf.save/
     NEW-OLD atomic charge density approx. for the potential

     total cpu time spent up to now is        9.0 secs

     Self-consistent Calculation

     iteration #  1     ecut=    30.00 Ry     beta= 0.70
     Davidson diagonalization with overlap
     ethr =  1.00E-06,  avg # of iterations =  9.7

     total cpu time spent up to now is        9.5 secs

     total energy              =    -333.15840651 Ry
     estimated scf accuracy    <       0.00907867 Ry

     iteration #  2     ecut=    30.00 Ry     beta= 0.70
     Davidson diagonalization with overlap
     ethr =  2.06E-05,  avg # of iterations =  5.8

     total cpu time spent up to now is        9.9 secs

     total energy              =    -333.15736251 Ry
     estimated scf accuracy    <       0.02722597 Ry

     iteration #  3     ecut=    30.00 Ry     beta= 0.70
     Davidson diagonalization with overlap
     ethr =  2.06E-05,  avg # of iterations =  4.7

     total cpu time spent up to now is       10.2 secs

     total energy              =    -333.16234342 Ry
     estimated scf accuracy    <       0.00053204 Ry

     iteration #  4     ecut=    30.00 Ry     beta= 0.70
     Davidson diagonalization with overlap
     ethr =  1.21E-06,  avg # of iterations =  2.7

     total cpu time spent up to now is       10.5 secs

     total energy              =    -333.16241927 Ry
     estimated scf accuracy    <       0.00012609 Ry

     iteration #  5     ecut=    30.00 Ry     beta= 0.70
     Davidson diagonalization with overlap
     ethr =  2.87E-07,  avg # of iterations =  3.7

     total cpu time spent up to now is       10.8 secs

     total energy              =    -333.16244838 Ry
     estimated scf accuracy    <       0.00000629 Ry

     iteration #  6     ecut=    30.00 Ry     beta= 0.70
     Davidson diagonalization with overlap
     ethr =  1.43E-08,  avg # of iterations =  5.8

     total cpu time spent up to now is       11.2 secs

     total energy              =    -333.16245136 Ry
     estimated scf accuracy    <       0.00000452 Ry

     iteration #  7     ecut=    30.00 Ry     beta= 0.70
     Davidson diagonalization with overlap
     ethr =  1.03E-08,  avg # of iterations =  3.3

     total cpu time spent up to now is       11.5 secs

     total energy              =    -333.16245159 Ry
     estimated scf accuracy    <       0.00000087 Ry

     iteration #  8     ecut=    30.00 Ry     beta= 0.70
     Davidson diagonalization with overlap
     ethr =  1.98E-09,  avg # of iterations =  4.5

     total cpu time spent up to now is       11.8 secs

     total energy              =    -333.16245189 Ry
     estimated scf accuracy    <       0.00000015 Ry

     iteration #  9     ecut=    30.00 Ry     beta= 0.70
     Davidson diagonalization with overlap
     ethr =  3.39E-10,  avg # of iterations =  3.2

     total cpu time spent up to now is       12.2 secs

     End of self-consistent calculation

          k = 0.1250 0.1250 0.1250 (  1096 PWs)   bands (ev):

   -44.5001 -21.3104 -21.0880 -21.0871  -6.3868  -5.3247  -5.1624  -4.1054
    -4.0741  -4.0631  -3.8930  -3.8657   4.5107   7.1679   7.2888   7.9938
     8.6750   8.8717   9.4131   9.6877  10.1210  10.1541

          k = 0.1250 0.1250 0.3750 (  1095 PWs)   bands (ev):

   -44.4988 -21.3688 -21.0855 -21.0846  -5.8707  -5.2587  -5.0213  -4.1533
    -4.1015  -4.0533  -3.9657  -3.8719   3.7068   6.7178   6.8968   7.6751
     8.4693   8.5623   9.4714   9.7070  10.2687  10.9773

          k = 0.1250 0.3750 0.3750 (  1093 PWs)   bands (ev):

   -44.4976 -21.3653 -21.1387 -21.0832  -5.6613  -5.1786  -4.9343  -4.1285
    -4.0872  -4.0216  -3.9248  -3.7274   3.4203   6.4682   7.0148   7.1374
     7.6053   8.7315   9.1909   9.5957   9.9362  10.5890

          k = 0.3750 0.3750 0.3750 (  1082 PWs)   bands (ev):

   -44.4962 -21.3626 -21.1362 -21.1360  -5.4532  -5.1951  -5.1207  -4.0457
    -4.0159  -3.7772  -3.6632  -3.6246   4.0532   5.7869   5.9740   6.5643
     7.3228   7.4529   7.9668  10.4132  10.4918  10.8106

          k = 0.3750-0.1250 0.1250 (  1095 PWs)   bands (ev):

   -44.4989 -21.3078 -21.1423 -21.0854  -6.0322  -5.1615  -5.0486  -4.1429
    -4.0874  -4.0634  -3.9870  -3.8545   3.7927   6.9748   7.3765   7.7618
     8.3573   8.7955   9.1836   9.6955   9.8318  10.7795

          k = 0.3750-0.3750 0.1250 (  1093 PWs)   bands (ev):

   -44.4976 -21.3058 -21.1395 -21.1386  -5.9177  -4.9833  -4.9044  -4.1008
    -4.0729  -3.9996  -3.9172  -3.8336   3.4944   6.8230   6.8823   7.1087
     7.5076   8.6772   9.5329   9.5332   9.9529  10.8028

     highest occupied level (ev):    10.9773

!    total energy              =    -333.16245189 Ry
     estimated scf accuracy    <       0.00000002 Ry

     The total energy is the sum of the following terms:
     one-electron contribution =     -77.82756214 Ry
     hartree contribution      =      66.83750404 Ry
     xc contribution           =     -49.67168289 Ry
     ewald contribution        =    -272.50071090 Ry

     convergence has been achieved in   9 iterations

     Forces acting on atoms (cartesian axes, Ry/au):

     atom    1 type  2   force =     0.00000000    0.00000000    0.03556927
     atom    2 type  3   force =     0.00000000    0.00000000   -0.11898554
     atom    3 type  1   force =     0.00000000    0.00000000    0.02090223
     atom    4 type  1   force =     0.00000000    0.00000000    0.02090223
     atom    5 type  1   force =     0.00000000    0.00000000    0.04161182
     The non-local contrib.  to forces
     atom    1 type  2   force =     0.00000000    0.00000000   -0.02143882
     atom    2 type  3   force =     0.00000000    0.00000000    0.06564214
     atom    3 type  1   force =     0.00000000    0.00000000    0.25414975
     atom    4 type  1   force =     0.00000000    0.00000000    0.25414975
     atom    5 type  1   force =     0.00000000    0.00000000   -0.47545586
     The ionic contribution  to forces
     atom    1 type  2   force =     0.00000000    0.00000000    1.76542590
     atom    2 type  3   force =    -0.00000000   -0.00000000   -3.10006437
     atom    3 type  1   force =     0.00000000   -0.00000000   -1.93861837
     atom    4 type  1   force =    -0.00000000    0.00000000   -1.93861837
     atom    5 type  1   force =    -0.00000000   -0.00000000    5.21187521
     The local contribution  to forces
     atom    1 type  2   force =    -0.00000000    0.00000000   -1.70837047
     atom    2 type  3   force =    -0.00000000   -0.00000000    2.91541190
     atom    3 type  1   force =     0.00000000   -0.00000000    1.70531754
     atom    4 type  1   force =    -0.00000000    0.00000000    1.70531754
     atom    5 type  1   force =    -0.00000000   -0.00000000   -4.69474410
     The core correction contribution to forces
     atom    1 type  2   force =     0.00000000    0.00000000    0.00000000
     atom    2 type  3   force =     0.00000000    0.00000000    0.00000000
     atom    3 type  1   force =     0.00000000    0.00000000    0.00000000
     atom    4 type  1   force =     0.00000000    0.00000000    0.00000000
     atom    5 type  1   force =     0.00000000    0.00000000    0.00000000
     The Hubbard contrib.    to forces
     atom    1 type  2   force =     0.00000000    0.00000000    0.00000000
     atom    2 type  3   force =     0.00000000    0.00000000    0.00000000
     atom    3 type  1   force =     0.00000000    0.00000000    0.00000000
     atom    4 type  1   force =     0.00000000    0.00000000    0.00000000
     atom    5 type  1   force =     0.00000000    0.00000000    0.00000000
     The SCF correction term to forces
     atom    1 type  2   force =     0.00000000   -0.00000000   -0.00000000
     atom    2 type  3   force =     0.00000000   -0.00000000    0.00000000
     atom    3 type  1   force =    -0.00000000    0.00000000    0.00004546
     atom    4 type  1   force =     0.00000000   -0.00000000    0.00004546
     atom    5 type  1   force =     0.00000000    0.00000000   -0.00007128

     Total force =     0.051043     Total SCF correction =     0.000096


     Computing stress (Cartesian axis) and pressure

          total   stress  (Ry/bohr**3)                   (kbar)     P=        6.29
  -0.00012999   0.00000000   0.00000000          -19.12        0.00        0.00
   0.00000000  -0.00012999   0.00000000            0.00      -19.12        0.00
   0.00000000   0.00000000   0.00038824            0.00        0.00       57.11

     Energy error            =      1.6E-02 Ry
     Gradient error          =      4.2E-02 Ry/Bohr

     number of scf cycles    =   2
     number of bfgs steps    =   1

     energy             old  =    -333.1465889098 Ry
     energy             new  =    -333.1624518888 Ry

     CASE: energy            _new < energy            _old

     new trust radius        =       0.0650192325 bohr
     new conv_thr            =       0.0000000416 Ry


ATOMIC_POSITIONS (angstrom)
Pb            0.0000000000        0.0000000000        0.0000000000    0   0   0
Ti            1.9400000000        1.9400000000        2.2463200000    0   0   0
O             0.0000000000        1.9400000000        1.9612939240
O             1.9400000000        0.0000000000        1.9612939240
O             1.9400000000        1.9400000000        0.1191514077



     Writing config-only to output data dir /home/gridsan/epan1/labutil/lab3_samples/problem2/Lab3/PbTiO3_a_3.88_ecut_30_nk_4_displ_0.07894736842105263/pwscf.save/
     NEW-OLD atomic charge density approx. for the potential

     total cpu time spent up to now is       13.8 secs

     Self-consistent Calculation

     iteration #  1     ecut=    30.00 Ry     beta= 0.70
     Davidson diagonalization with overlap
     ethr =  1.00E-06,  avg # of iterations =  8.7

     total cpu time spent up to now is       14.2 secs

     total energy              =    -333.16496898 Ry
     estimated scf accuracy    <       0.00115888 Ry

     iteration #  2     ecut=    30.00 Ry     beta= 0.70
     Davidson diagonalization with overlap
     ethr =  2.63E-06,  avg # of iterations =  5.5

     total cpu time spent up to now is       14.6 secs

     total energy              =    -333.16484511 Ry
     estimated scf accuracy    <       0.00249705 Ry

     iteration #  3     ecut=    30.00 Ry     beta= 0.70
     Davidson diagonalization with overlap
     ethr =  2.63E-06,  avg # of iterations =  4.3

     total cpu time spent up to now is       15.0 secs

     total energy              =    -333.16536535 Ry
     estimated scf accuracy    <       0.00008714 Ry

     iteration #  4     ecut=    30.00 Ry     beta= 0.70
     Davidson diagonalization with overlap
     ethr =  1.98E-07,  avg # of iterations =  2.5

     total cpu time spent up to now is       15.2 secs

     total energy              =    -333.16537302 Ry
     estimated scf accuracy    <       0.00002218 Ry

     iteration #  5     ecut=    30.00 Ry     beta= 0.70
     Davidson diagonalization with overlap
     ethr =  5.04E-08,  avg # of iterations =  4.2

     total cpu time spent up to now is       15.6 secs

     total energy              =    -333.16537720 Ry
     estimated scf accuracy    <       0.00000108 Ry

     iteration #  6     ecut=    30.00 Ry     beta= 0.70
     Davidson diagonalization with overlap
     ethr =  2.44E-09,  avg # of iterations =  5.8

     total cpu time spent up to now is       15.9 secs

     total energy              =    -333.16537789 Ry
     estimated scf accuracy    <       0.00000050 Ry

     iteration #  7     ecut=    30.00 Ry     beta= 0.70
     Davidson diagonalization with overlap
     ethr =  1.15E-09,  avg # of iterations =  2.5

     total cpu time spent up to now is       16.2 secs

     total energy              =    -333.16537790 Ry
     estimated scf accuracy    <       0.00000015 Ry

     iteration #  8     ecut=    30.00 Ry     beta= 0.70
     Davidson diagonalization with overlap
     ethr =  3.38E-10,  avg # of iterations =  4.2

     total cpu time spent up to now is       16.5 secs

     End of self-consistent calculation

          k = 0.1250 0.1250 0.1250 (  1096 PWs)   bands (ev):

   -44.5698 -21.3139 -21.1628 -21.1620  -6.3880  -5.3193  -5.1885  -4.0889
    -4.0626  -4.0522  -3.8818  -3.8591   4.5253   7.1867   7.2701   7.9948
     8.7606   8.9641   9.4632   9.6993  10.1208  10.1406

          k = 0.1250 0.1250 0.3750 (  1095 PWs)   bands (ev):

   -44.5685 -21.3721 -21.1603 -21.1594  -5.8921  -5.2343  -5.0522  -4.1381
    -4.0848  -4.0431  -3.9581  -3.8597   3.7440   6.7273   6.9633   7.6740
     8.5287   8.5531   9.4585   9.7317  10.2356  10.9636

          k = 0.1250 0.3750 0.3750 (  1093 PWs)   bands (ev):

   -44.5673 -21.3686 -21.2135 -21.1581  -5.6813  -5.1509  -4.9549  -4.1134
    -4.0712  -4.0100  -3.9141  -3.7238   3.4429   6.5156   7.0294   7.0988
     7.5737   8.7194   9.2503   9.5733   9.9789  10.5969

          k = 0.3750 0.3750 0.3750 (  1082 PWs)   bands (ev):

   -44.5659 -21.3659 -21.2110 -21.2108  -5.4307  -5.2021  -5.1372  -4.0300
    -4.0049  -3.7569  -3.6583  -3.6228   4.0652   5.8267   5.9649   6.5684
     7.2889   7.3879   7.9882  10.4661  10.5400  10.7822

          k = 0.3750-0.1250 0.1250 (  1095 PWs)   bands (ev):

   -44.5685 -21.3114 -21.2170 -21.1602  -6.0219  -5.1682  -5.0704  -4.1298
    -4.0728  -4.0522  -3.9733  -3.8459   3.8095   6.9471   7.3825   7.7651
     8.3655   8.8194   9.2025   9.7491   9.8622  10.7890

          k = 0.3750-0.3750 0.1250 (  1093 PWs)   bands (ev):

   -44.5673 -21.3095 -21.2142 -21.2134  -5.8889  -5.0033  -4.9268  -4.0903
    -4.0594  -3.9899  -3.9077  -3.8142   3.4939   6.8166   6.9079   7.1430
     7.5017   8.6707   9.5208   9.5415   9.9529  10.7785

     highest occupied level (ev):    10.9636

!    total energy              =    -333.16537793 Ry
     estimated scf accuracy    <       0.00000004 Ry

     The total energy is the sum of the following terms:
     one-electron contribution =     -77.43838032 Ry
     hartree contribution      =      66.62573482 Ry
     xc contribution           =     -49.65340964 Ry
     ewald contribution        =    -272.69932278 Ry

     convergence has been achieved in   8 iterations

     Forces acting on atoms (cartesian axes, Ry/au):

     atom    1 type  2   force =     0.00000000    0.00000000    0.03471708
     atom    2 type  3   force =     0.00000000    0.00000000   -0.09080156
     atom    3 type  1   force =     0.00000000    0.00000000    0.02332880
     atom    4 type  1   force =     0.00000000    0.00000000    0.02332880
     atom    5 type  1   force =     0.00000000    0.00000000    0.00942687
     The non-local contrib.  to forces
     atom    1 type  2   force =     0.00000000    0.00000000   -0.03282112
     atom    2 type  3   force =     0.00000000    0.00000000    0.05283221
     atom    3 type  1   force =     0.00000000    0.00000000    0.26019840
     atom    4 type  1   force =     0.00000000    0.00000000    0.26019840
     atom    5 type  1   force =     0.00000000    0.00000000   -0.43871785
     The ionic contribution  to forces
     atom    1 type  2   force =     0.00000000    0.00000000    1.85637266
     atom    2 type  3   force =    -0.00000000   -0.00000000   -2.43218466
     atom    3 type  1   force =     0.00000000    0.00000000   -1.89117816
     atom    4 type  1   force =     0.00000000    0.00000000   -1.89117816
     atom    5 type  1   force =    -0.00000000   -0.00000000    4.35816832
     The local contribution  to forces
     atom    1 type  2   force =     0.00000000   -0.00000000   -1.78879381
     atom    2 type  3   force =    -0.00000000   -0.00000000    2.28832164
     atom    3 type  1   force =     0.00000000   -0.00000000    1.65420785
     atom    4 type  1   force =    -0.00000000    0.00000000    1.65420785
     atom    5 type  1   force =    -0.00000000   -0.00000000   -3.90997562
     The core correction contribution to forces
     atom    1 type  2   force =     0.00000000    0.00000000    0.00000000
     atom    2 type  3   force =     0.00000000    0.00000000    0.00000000
     atom    3 type  1   force =     0.00000000    0.00000000    0.00000000
     atom    4 type  1   force =     0.00000000    0.00000000    0.00000000
     atom    5 type  1   force =     0.00000000    0.00000000    0.00000000
     The Hubbard contrib.    to forces
     atom    1 type  2   force =     0.00000000    0.00000000    0.00000000
     atom    2 type  3   force =     0.00000000    0.00000000    0.00000000
     atom    3 type  1   force =     0.00000000    0.00000000    0.00000000
     atom    4 type  1   force =     0.00000000    0.00000000    0.00000000
     atom    5 type  1   force =     0.00000000    0.00000000    0.00000000
     The SCF correction term to forces
     atom    1 type  2   force =    -0.00000000    0.00000000   -0.00000000
     atom    2 type  3   force =    -0.00000000   -0.00000000    0.00000000
     atom    3 type  1   force =    -0.00000000   -0.00000000    0.00006095
     atom    4 type  1   force =    -0.00000000    0.00000000    0.00006095
     atom    5 type  1   force =    -0.00000000   -0.00000000   -0.00008774

     Total force =     0.034312     Total SCF correction =     0.000123


     Computing stress (Cartesian axis) and pressure

          total   stress  (Ry/bohr**3)                   (kbar)     P=       -5.54
  -0.00014232   0.00000000   0.00000000          -20.94        0.00        0.00
   0.00000000  -0.00014232   0.00000000            0.00      -20.94        0.00
   0.00000000   0.00000000   0.00017156            0.00        0.00       25.24

     Energy error            =      2.9E-03 Ry
     Gradient error          =      2.3E-02 Ry/Bohr

     number of scf cycles    =   3
     number of bfgs steps    =   2

     energy             old  =    -333.1624518888 Ry
     energy             new  =    -333.1653779269 Ry

     CASE: energy            _new < energy            _old

     new trust radius        =       0.0714470342 bohr
     new conv_thr            =       0.0000000233 Ry


ATOMIC_POSITIONS (angstrom)
Pb            0.0000000000        0.0000000000        0.0000000000    0   0   0
Ti            1.9400000000        1.9400000000        2.2463200000    0   0   0
O             0.0000000000        1.9400000000        1.9958766090
O             1.9400000000        0.0000000000        1.9958766090
O             1.9400000000        1.9400000000        0.1569595500



     Writing config-only to output data dir /home/gridsan/epan1/labutil/lab3_samples/problem2/Lab3/PbTiO3_a_3.88_ecut_30_nk_4_displ_0.07894736842105263/pwscf.save/
     NEW-OLD atomic charge density approx. for the potential

     total cpu time spent up to now is       17.7 secs

     Self-consistent Calculation

     iteration #  1     ecut=    30.00 Ry     beta= 0.70
     Davidson diagonalization with overlap
     ethr =  1.00E-06,  avg # of iterations =  9.8

     total cpu time spent up to now is       18.2 secs

     total energy              =    -333.16778433 Ry
     estimated scf accuracy    <       0.00165967 Ry

     iteration #  2     ecut=    30.00 Ry     beta= 0.70
     Davidson diagonalization with overlap
     ethr =  3.77E-06,  avg # of iterations =  5.0

     total cpu time spent up to now is       18.6 secs

     total energy              =    -333.16758304 Ry
     estimated scf accuracy    <       0.00259758 Ry

     iteration #  3     ecut=    30.00 Ry     beta= 0.70
     Davidson diagonalization with overlap
     ethr =  3.77E-06,  avg # of iterations =  4.5

     total cpu time spent up to now is       18.9 secs

     total energy              =    -333.16821375 Ry
     estimated scf accuracy    <       0.00026120 Ry

     iteration #  4     ecut=    30.00 Ry     beta= 0.70
     Davidson diagonalization with overlap
     ethr =  5.94E-07,  avg # of iterations =  2.7

     total cpu time spent up to now is       19.2 secs

     total energy              =    -333.16822361 Ry
     estimated scf accuracy    <       0.00005402 Ry

     iteration #  5     ecut=    30.00 Ry     beta= 0.70
     Davidson diagonalization with overlap
     ethr =  1.23E-07,  avg # of iterations =  4.5

     total cpu time spent up to now is       19.5 secs

     total energy              =    -333.16824324 Ry
     estimated scf accuracy    <       0.00000459 Ry

     iteration #  6     ecut=    30.00 Ry     beta= 0.70
     Davidson diagonalization with overlap
     ethr =  1.04E-08,  avg # of iterations =  2.8

     total cpu time spent up to now is       19.8 secs

     total energy              =    -333.16824311 Ry
     estimated scf accuracy    <       0.00000172 Ry

     iteration #  7     ecut=    30.00 Ry     beta= 0.70
     Davidson diagonalization with overlap
     ethr =  3.90E-09,  avg # of iterations =  4.7

     total cpu time spent up to now is       20.1 secs

     total energy              =    -333.16824368 Ry
     estimated scf accuracy    <       0.00000016 Ry

     iteration #  8     ecut=    30.00 Ry     beta= 0.70
     Davidson diagonalization with overlap
     ethr =  3.61E-10,  avg # of iterations =  2.7

     total cpu time spent up to now is       20.4 secs

     total energy              =    -333.16824366 Ry
     estimated scf accuracy    <       0.00000008 Ry

     iteration #  9     ecut=    30.00 Ry     beta= 0.70
     Davidson diagonalization with overlap
     ethr =  1.85E-10,  avg # of iterations =  4.3

     total cpu time spent up to now is       20.7 secs

     End of self-consistent calculation

          k = 0.1250 0.1250 0.1250 (  1096 PWs)   bands (ev):

   -44.6375 -21.3247 -21.2363 -21.2355  -6.3886  -5.3181  -5.2320  -4.0715
    -4.0508  -4.0409  -3.8714  -3.8505   4.5403   7.2063   7.2527   8.0087
     8.8473   9.0297   9.5472   9.7272  10.0698  10.1448

          k = 0.1250 0.1250 0.3750 (  1095 PWs)   bands (ev):

   -44.6362 -21.3824 -21.2339 -21.2330  -5.9214  -5.2068  -5.1031  -4.1209
    -4.0669  -4.0324  -3.9479  -3.8474   3.7868   6.7423   7.0522   7.6857
     8.5107   8.5762   9.4316   9.7711  10.1852  10.9337

          k = 0.1250 0.3750 0.3750 (  1093 PWs)   bands (ev):

   -44.6350 -21.3790 -21.2875 -21.2316  -5.7106  -5.1198  -4.9836  -4.0972
    -4.0546  -3.9970  -3.9016  -3.7193   3.4639   6.5744   6.9906   7.0901
     7.5195   8.6962   9.2965   9.5342  10.0164  10.6087

          k = 0.3750 0.3750 0.3750 (  1082 PWs)   bands (ev):

   -44.6337 -21.3763 -21.2850 -21.2847  -5.4050  -5.2097  -5.1617  -4.0133
    -3.9933  -3.7353  -3.6514  -3.6191   4.0668   5.8591   5.9384   6.5876
     7.2201   7.2806   8.0075  10.5200  10.5872  10.7401

          k = 0.3750-0.1250 0.1250 (  1095 PWs)   bands (ev):

   -44.6362 -21.3223 -21.2909 -21.2336  -6.0081  -5.1846  -5.1023  -4.1163
    -4.0574  -4.0404  -3.9549  -3.8352   3.8240   6.8987   7.3710   7.7663
     8.3682   8.8082   9.2295   9.8019   9.9055  10.7966

          k = 0.3750-0.3750 0.1250 (  1093 PWs)   bands (ev):

   -44.6350 -21.3204 -21.2880 -21.2873  -5.8495  -5.0333  -4.9601  -4.0794
    -4.0442  -3.9764  -3.8939  -3.7929   3.4845   6.7965   6.9028   7.1600
     7.4795   8.6575   9.5004   9.5241   9.9616  10.7411

     highest occupied level (ev):    10.9337

!    total energy              =    -333.16824368 Ry
     estimated scf accuracy    <          2.6E-10 Ry

     The total energy is the sum of the following terms:
     one-electron contribution =     -77.36101583 Ry
     hartree contribution      =      66.56902875 Ry
     xc contribution           =     -49.64226726 Ry
     ewald contribution        =    -272.73398935 Ry

     convergence has been achieved in   9 iterations

     Forces acting on atoms (cartesian axes, Ry/au):

     atom    1 type  2   force =     0.00000000    0.00000000    0.03237356
     atom    2 type  3   force =     0.00000000    0.00000000   -0.06585908
     atom    3 type  1   force =     0.00000000    0.00000000    0.02366382
     atom    4 type  1   force =     0.00000000    0.00000000    0.02366382
     atom    5 type  1   force =     0.00000000    0.00000000   -0.01384213
     The non-local contrib.  to forces
     atom    1 type  2   force =     0.00000000    0.00000000   -0.05817144
     atom    2 type  3   force =     0.00000000    0.00000000    0.04138564
     atom    3 type  1   force =     0.00000000    0.00000000    0.25810980
     atom    4 type  1   force =     0.00000000    0.00000000    0.25810980
     atom    5 type  1   force =     0.00000000    0.00000000   -0.38339511
     The ionic contribution  to forces
     atom    1 type  2   force =     0.00000000    0.00000000    2.19784920
     atom    2 type  3   force =    -0.00000000   -0.00000000   -1.95207939
     atom    3 type  1   force =     0.00000000   -0.00000000   -1.89253607
     atom    4 type  1   force =    -0.00000000    0.00000000   -1.89253607
     atom    5 type  1   force =     0.00000000    0.00000000    3.53930233
     The local contribution  to forces
     atom    1 type  2   force =    -0.00000000    0.00000000   -2.10729292
     atom    2 type  3   force =    -0.00000000   -0.00000000    1.84485084
     atom    3 type  1   force =     0.00000000   -0.00000000    1.65810788
     atom    4 type  1   force =    -0.00000000    0.00000000    1.65810788
     atom    5 type  1   force =    -0.00000000   -0.00000000   -3.16973919
     The core correction contribution to forces
     atom    1 type  2   force =     0.00000000    0.00000000    0.00000000
     atom    2 type  3   force =     0.00000000    0.00000000    0.00000000
     atom    3 type  1   force =     0.00000000    0.00000000    0.00000000
     atom    4 type  1   force =     0.00000000    0.00000000    0.00000000
     atom    5 type  1   force =     0.00000000    0.00000000    0.00000000
     The Hubbard contrib.    to forces
     atom    1 type  2   force =     0.00000000    0.00000000    0.00000000
     atom    2 type  3   force =     0.00000000    0.00000000    0.00000000
     atom    3 type  1   force =     0.00000000    0.00000000    0.00000000
     atom    4 type  1   force =     0.00000000    0.00000000    0.00000000
     atom    5 type  1   force =     0.00000000    0.00000000    0.00000000
     The SCF correction term to forces
     atom    1 type  2   force =    -0.00000000    0.00000000    0.00000000
     atom    2 type  3   force =     0.00000000    0.00000000    0.00000000
     atom    3 type  1   force =     0.00000000   -0.00000000   -0.00000048
     atom    4 type  1   force =    -0.00000000   -0.00000000   -0.00000048
     atom    5 type  1   force =    -0.00000000   -0.00000000    0.00000713

     Total force =     0.036215     Total SCF correction =     0.000007


     Computing stress (Cartesian axis) and pressure

          total   stress  (Ry/bohr**3)                   (kbar)     P=      -12.48
  -0.00013128   0.00000000   0.00000000          -19.31        0.00        0.00
   0.00000000  -0.00013128   0.00000000            0.00      -19.31        0.00
   0.00000000   0.00000000   0.00000804            0.00        0.00        1.18

     Energy error            =      2.9E-03 Ry
     Gradient error          =      2.4E-02 Ry/Bohr

     number of scf cycles    =   4
     number of bfgs steps    =   3

     energy             old  =    -333.1653779269 Ry
     energy             new  =    -333.1682436829 Ry

     CASE: energy            _new < energy            _old

     new trust radius        =       0.0785917376 bohr
     new conv_thr            =       0.0000000237 Ry


ATOMIC_POSITIONS (angstrom)
Pb            0.0000000000        0.0000000000        0.0000000000    0   0   0
Ti            1.9400000000        1.9400000000        2.2463200000    0   0   0
O             0.0000000000        1.9400000000        2.0374655655
O             1.9400000000        0.0000000000        2.0374655655
O             1.9400000000        1.9400000000        0.1859812755



     Writing config-only to output data dir /home/gridsan/epan1/labutil/lab3_samples/problem2/Lab3/PbTiO3_a_3.88_ecut_30_nk_4_displ_0.07894736842105263/pwscf.save/
     NEW-OLD atomic charge density approx. for the potential

     total cpu time spent up to now is       22.5 secs

     Self-consistent Calculation

     iteration #  1     ecut=    30.00 Ry     beta= 0.70
     Davidson diagonalization with overlap
     ethr =  1.00E-06,  avg # of iterations =  9.5

     total cpu time spent up to now is       22.9 secs

     total energy              =    -333.17050122 Ry
     estimated scf accuracy    <       0.00139574 Ry

     iteration #  2     ecut=    30.00 Ry     beta= 0.70
     Davidson diagonalization with overlap
     ethr =  3.17E-06,  avg # of iterations =  4.2

     total cpu time spent up to now is       23.3 secs

     total energy              =    -333.17046268 Ry
     estimated scf accuracy    <       0.00106409 Ry

     iteration #  3     ecut=    30.00 Ry     beta= 0.70
     Davidson diagonalization with overlap
     ethr =  2.42E-06,  avg # of iterations =  4.3

     total cpu time spent up to now is       23.6 secs

     total energy              =    -333.17074124 Ry
     estimated scf accuracy    <       0.00044135 Ry

     iteration #  4     ecut=    30.00 Ry     beta= 0.70
     Davidson diagonalization with overlap
     ethr =  1.00E-06,  avg # of iterations =  3.0

     total cpu time spent up to now is       23.9 secs

     total energy              =    -333.17077552 Ry
     estimated scf accuracy    <       0.00004354 Ry

     iteration #  5     ecut=    30.00 Ry     beta= 0.70
     Davidson diagonalization with overlap
     ethr =  9.89E-08,  avg # of iterations =  5.0

     total cpu time spent up to now is       24.3 secs

     total energy              =    -333.17080888 Ry
     estimated scf accuracy    <       0.00004326 Ry

     iteration #  6     ecut=    30.00 Ry     beta= 0.70
     Davidson diagonalization with overlap
     ethr =  9.83E-08,  avg # of iterations =  1.0

     total cpu time spent up to now is       24.6 secs

     total energy              =    -333.17080243 Ry
     estimated scf accuracy    <       0.00002671 Ry

     iteration #  7     ecut=    30.00 Ry     beta= 0.70
     Davidson diagonalization with overlap
     ethr =  6.07E-08,  avg # of iterations =  2.7

     total cpu time spent up to now is       24.9 secs

     total energy              =    -333.17080628 Ry
     estimated scf accuracy    <       0.00000186 Ry

     iteration #  8     ecut=    30.00 Ry     beta= 0.70
     Davidson diagonalization with overlap
     ethr =  4.22E-09,  avg # of iterations =  4.8

     total cpu time spent up to now is       25.2 secs

     total energy              =    -333.17080713 Ry
     estimated scf accuracy    <       0.00000013 Ry

     iteration #  9     ecut=    30.00 Ry     beta= 0.70
     Davidson diagonalization with overlap
     ethr =  2.94E-10,  avg # of iterations =  4.5

     total cpu time spent up to now is       25.5 secs

     total energy              =    -333.17080710 Ry
     estimated scf accuracy    <       0.00000021 Ry

     iteration # 10     ecut=    30.00 Ry     beta= 0.70
     Davidson diagonalization with overlap
     ethr =  2.94E-10,  avg # of iterations =  3.3

     total cpu time spent up to now is       25.8 secs

     total energy              =    -333.17080709 Ry
     estimated scf accuracy    <       0.00000005 Ry

     iteration # 11     ecut=    30.00 Ry     beta= 0.70
     Davidson diagonalization with overlap
     ethr =  1.16E-10,  avg # of iterations =  4.8

     total cpu time spent up to now is       26.1 secs

     total energy              =    -333.17080712 Ry
     estimated scf accuracy    <       0.00000003 Ry

     iteration # 12     ecut=    30.00 Ry     beta= 0.70
     Davidson diagonalization with overlap
     ethr =  6.66E-11,  avg # of iterations =  1.0

     total cpu time spent up to now is       26.4 secs

     End of self-consistent calculation

          k = 0.1250 0.1250 0.1250 (  1096 PWs)   bands (ev):

   -44.6822 -21.3352 -21.2862 -21.2854  -6.3940  -5.3196  -5.2817  -4.0556
    -4.0398  -4.0300  -3.8625  -3.8378   4.5527   7.2206   7.2430   8.0277
     8.9055   9.0525   9.6361   9.7565  10.0137  10.1272

          k = 0.1250 0.1250 0.3750 (  1095 PWs)   bands (ev):

   -44.6809 -21.3924 -21.2839 -21.2829  -5.9553  -5.1832  -5.1605  -4.1040
    -4.0503  -4.0220  -3.9336  -3.8360   3.8236   6.7584   7.1352   7.7006
     8.4494   8.6044   9.3938   9.8064  10.1301  10.8991

          k = 0.1250 0.3750 0.3750 (  1093 PWs)   bands (ev):

   -44.6797 -21.3891 -21.3381 -21.2815  -5.7445  -5.0989  -5.0124  -4.0819
    -4.0397  -3.9834  -3.8879  -3.7111   3.4793   6.6250   6.9175   7.1060
     7.4677   8.6665   9.3137   9.4943  10.0371  10.6187

          k = 0.3750 0.3750 0.3750 (  1082 PWs)   bands (ev):

   -44.6784 -21.3865 -21.3356 -21.3353  -5.3913  -5.2136  -5.1907  -3.9979
    -3.9820  -3.7171  -3.6414  -3.6111   4.0559   5.8783   5.9059   6.6094
     7.1449   7.1721   8.0286  10.5552  10.6128  10.6974

          k = 0.3750-0.1250 0.1250 (  1095 PWs)   bands (ev):

   -44.6810 -21.3417 -21.3326 -21.2835  -6.0008  -5.2060  -5.1372  -4.1039
    -4.0426  -4.0291  -3.9337  -3.8223   3.8322   6.8475   7.3468   7.7693
     8.3680   8.7702   9.2516   9.8256   9.9479  10.8011

          k = 0.3750-0.3750 0.1250 (  1093 PWs)   bands (ev):

   -44.6797 -21.3391 -21.3378 -21.3305  -5.8143  -5.0689  -5.0001  -4.0689
    -4.0285  -3.9587  -3.8754  -3.7734   3.4672   6.7711   6.8741   7.1544
     7.4512   8.6466   9.4800   9.4906   9.9785  10.6989

     highest occupied level (ev):    10.8991

!    total energy              =    -333.17080710 Ry
     estimated scf accuracy    <       0.00000001 Ry

     The total energy is the sum of the following terms:
     one-electron contribution =     -77.58473476 Ry
     hartree contribution      =      66.66747126 Ry
     xc contribution           =     -49.64070790 Ry
     ewald contribution        =    -272.61283570 Ry

     convergence has been achieved in  12 iterations

     Forces acting on atoms (cartesian axes, Ry/au):

     atom    1 type  2   force =     0.00000000    0.00000000    0.02972802
     atom    2 type  3   force =     0.00000000    0.00000000   -0.05103749
     atom    3 type  1   force =     0.00000000    0.00000000    0.02189489
     atom    4 type  1   force =     0.00000000    0.00000000    0.02189489
     atom    5 type  1   force =     0.00000000    0.00000000   -0.02248031
     The non-local contrib.  to forces
     atom    1 type  2   force =     0.00000000    0.00000000   -0.08844192
     atom    2 type  3   force =     0.00000000    0.00000000    0.03429075
     atom    3 type  1   force =     0.00000000    0.00000000    0.24900111
     atom    4 type  1   force =     0.00000000    0.00000000    0.24900111
     atom    5 type  1   force =     0.00000000    0.00000000   -0.32894685
     The ionic contribution  to forces
     atom    1 type  2   force =     0.00000000    0.00000000    2.66551152
     atom    2 type  3   force =    -0.00000000   -0.00000000   -1.81122967
     atom    3 type  1   force =     0.00000000   -0.00000000   -1.93095191
     atom    4 type  1   force =    -0.00000000    0.00000000   -1.93095191
     atom    5 type  1   force =     0.00000000    0.00000000    3.00762197
     The local contribution  to forces
     atom    1 type  2   force =     0.00000000   -0.00000000   -2.54737503
     atom    2 type  3   force =    -0.00000000   -0.00000000    1.72590699
     atom    3 type  1   force =     0.00000000   -0.00000000    1.70388414
     atom    4 type  1   force =    -0.00000000    0.00000000    1.70388414
     atom    5 type  1   force =    -0.00000000   -0.00000000   -2.70120314
     The core correction contribution to forces
     atom    1 type  2   force =     0.00000000    0.00000000    0.00000000
     atom    2 type  3   force =     0.00000000    0.00000000    0.00000000
     atom    3 type  1   force =     0.00000000    0.00000000    0.00000000
     atom    4 type  1   force =     0.00000000    0.00000000    0.00000000
     atom    5 type  1   force =     0.00000000    0.00000000    0.00000000
     The Hubbard contrib.    to forces
     atom    1 type  2   force =     0.00000000    0.00000000    0.00000000
     atom    2 type  3   force =     0.00000000    0.00000000    0.00000000
     atom    3 type  1   force =     0.00000000    0.00000000    0.00000000
     atom    4 type  1   force =     0.00000000    0.00000000    0.00000000
     atom    5 type  1   force =     0.00000000    0.00000000    0.00000000
     The SCF correction term to forces
     atom    1 type  2   force =     0.00000000   -0.00000000    0.00000000
     atom    2 type  3   force =    -0.00000000    0.00000000   -0.00000000
     atom    3 type  1   force =    -0.00000000    0.00000000   -0.00003289
     atom    4 type  1   force =    -0.00000000   -0.00000000   -0.00003289
     atom    5 type  1   force =     0.00000000   -0.00000000    0.00005328

     Total force =     0.038264     Total SCF correction =     0.000071


     Computing stress (Cartesian axis) and pressure

          total   stress  (Ry/bohr**3)                   (kbar)     P=      -13.61
  -0.00010621   0.00000000   0.00000000          -15.62        0.00        0.00
   0.00000000  -0.00010621   0.00000000            0.00      -15.62        0.00
   0.00000000   0.00000000  -0.00006505            0.00        0.00       -9.57

     Energy error            =      2.6E-03 Ry
     Gradient error          =      2.2E-02 Ry/Bohr

     number of scf cycles    =   5
     number of bfgs steps    =   4

     energy             old  =    -333.1682436829 Ry
     energy             new  =    -333.1708071032 Ry

     CASE: energy            _new < energy            _old

     new trust radius        =       0.1178876064 bohr
     new conv_thr            =       0.0000000225 Ry


ATOMIC_POSITIONS (angstrom)
Pb            0.0000000000        0.0000000000        0.0000000000    0   0   0
Ti            1.9400000000        1.9400000000        2.2463200000    0   0   0
O             0.0000000000        1.9400000000        2.0998490003
O             1.9400000000        0.0000000000        2.0998490003
O             1.9400000000        1.9400000000        0.2196351364



     Writing config-only to output data dir /home/gridsan/epan1/labutil/lab3_samples/problem2/Lab3/PbTiO3_a_3.88_ecut_30_nk_4_displ_0.07894736842105263/pwscf.save/
     NEW-OLD atomic charge density approx. for the potential

     total cpu time spent up to now is       28.0 secs

     Self-consistent Calculation

     iteration #  1     ecut=    30.00 Ry     beta= 0.70
     Davidson diagonalization with overlap
     ethr =  1.00E-06,  avg # of iterations = 10.0

     total cpu time spent up to now is       28.5 secs

     total energy              =    -333.17346935 Ry
     estimated scf accuracy    <       0.00263840 Ry

     iteration #  2     ecut=    30.00 Ry     beta= 0.70
     Davidson diagonalization with overlap
     ethr =  6.00E-06,  avg # of iterations =  4.2

     total cpu time spent up to now is       28.8 secs

     total energy              =    -333.17352947 Ry
     estimated scf accuracy    <       0.00133847 Ry

     iteration #  3     ecut=    30.00 Ry     beta= 0.70
     Davidson diagonalization with overlap
     ethr =  3.04E-06,  avg # of iterations =  4.5

     total cpu time spent up to now is       29.1 secs

     total energy              =    -333.17386634 Ry
     estimated scf accuracy    <       0.00089257 Ry

     iteration #  4     ecut=    30.00 Ry     beta= 0.70
     Davidson diagonalization with overlap
     ethr =  2.03E-06,  avg # of iterations =  3.2

     total cpu time spent up to now is       29.4 secs

     total energy              =    -333.17396579 Ry
     estimated scf accuracy    <       0.00004637 Ry

     iteration #  5     ecut=    30.00 Ry     beta= 0.70
     Davidson diagonalization with overlap
     ethr =  1.05E-07,  avg # of iterations =  5.8

     total cpu time spent up to now is       29.8 secs

     total energy              =    -333.17401658 Ry
     estimated scf accuracy    <       0.00009069 Ry

     iteration #  6     ecut=    30.00 Ry     beta= 0.70
     Davidson diagonalization with overlap
     ethr =  1.05E-07,  avg # of iterations =  2.0

     total cpu time spent up to now is       30.1 secs

     total energy              =    -333.17400408 Ry
     estimated scf accuracy    <       0.00005395 Ry

     iteration #  7     ecut=    30.00 Ry     beta= 0.70
     Davidson diagonalization with overlap
     ethr =  1.05E-07,  avg # of iterations =  3.8

     total cpu time spent up to now is       30.4 secs

     total energy              =    -333.17401227 Ry
     estimated scf accuracy    <       0.00000246 Ry

     iteration #  8     ecut=    30.00 Ry     beta= 0.70
     Davidson diagonalization with overlap
     ethr =  5.59E-09,  avg # of iterations =  5.2

     total cpu time spent up to now is       30.7 secs

     total energy              =    -333.17401367 Ry
     estimated scf accuracy    <       0.00000067 Ry

     iteration #  9     ecut=    30.00 Ry     beta= 0.70
     Davidson diagonalization with overlap
     ethr =  1.53E-09,  avg # of iterations =  1.8

     total cpu time spent up to now is       31.0 secs

     total energy              =    -333.17401361 Ry
     estimated scf accuracy    <       0.00000029 Ry

     iteration # 10     ecut=    30.00 Ry     beta= 0.70
     Davidson diagonalization with overlap
     ethr =  6.54E-10,  avg # of iterations =  4.0

     total cpu time spent up to now is       31.3 secs

     End of self-consistent calculation

          k = 0.1250 0.1250 0.1250 (  1096 PWs)   bands (ev):

   -44.7286 -21.3504 -21.3390 -21.3383  -6.4147  -5.3586  -5.3185  -4.0304
    -4.0205  -4.0098  -3.8467  -3.8078   4.5693   7.2273   7.2353   8.0511
     8.9625   9.0530   9.7595   9.7880   9.9309  10.0808

          k = 0.1250 0.1250 0.3750 (  1095 PWs)   bands (ev):

   -44.7274 -21.4069 -21.3368 -21.3358  -6.0149  -5.2483  -5.1492  -4.0763
    -4.0230  -4.0028  -3.9013  -3.8161   3.8716   6.7805   7.2324   7.7055
     8.3600   8.6399   9.3280   9.8426  10.0464  10.8556

          k = 0.1250 0.3750 0.3750 (  1093 PWs)   bands (ev):

   -44.7262 -21.4037 -21.3919 -21.3344  -5.8020  -5.1119  -5.0250  -4.0567
    -4.0156  -3.9588  -3.8618  -3.6884   3.5001   6.6779   6.8237   7.1035
     7.4176   8.6142   9.3065   9.4508  10.0563  10.6306

          k = 0.3750 0.3750 0.3750 (  1082 PWs)   bands (ev):

   -44.7248 -21.4011 -21.3893 -21.3891  -5.4014  -5.2412  -5.2043  -3.9726
    -3.9614  -3.6918  -3.6181  -3.5900   4.0264   5.8613   5.8982   6.6275
     7.0359   7.0510   8.0738  10.5867  10.5925  10.6699

          k = 0.3750-0.1250 0.1250 (  1095 PWs)   bands (ev):

   -44.7274 -21.3953 -21.3479 -21.3363  -6.0065  -5.2404  -5.1889  -4.0827
    -4.0178  -4.0080  -3.8954  -3.7955   3.8388   6.7780   7.3031   7.7726
     8.3647   8.7084   9.2721   9.8299   9.9960  10.8111

          k = 0.3750-0.3750 0.1250 (  1093 PWs)   bands (ev):

   -44.7262 -21.3924 -21.3915 -21.3460  -5.7726  -5.1288  -5.0697  -4.0494
    -4.0007  -3.9228  -3.8368  -3.7429   3.4335   6.7305   6.8176   7.1321
     7.4177   8.6394   9.4418   9.4573  10.0128  10.6327

     highest occupied level (ev):    10.8556

!    total energy              =    -333.17401368 Ry
     estimated scf accuracy    <          4.7E-09 Ry

     The total energy is the sum of the following terms:
     one-electron contribution =     -78.12951232 Ry
     hartree contribution      =      66.92514988 Ry
     xc contribution           =     -49.64577569 Ry
     ewald contribution        =    -272.32387555 Ry

     convergence has been achieved in  10 iterations

     Forces acting on atoms (cartesian axes, Ry/au):

     atom    1 type  2   force =     0.00000000    0.00000000    0.02671280
     atom    2 type  3   force =     0.00000000    0.00000000   -0.03932913
     atom    3 type  1   force =     0.00000000    0.00000000    0.01777452
     atom    4 type  1   force =     0.00000000    0.00000000    0.01777452
     atom    5 type  1   force =     0.00000000    0.00000000   -0.02293272
     The non-local contrib.  to forces
     atom    1 type  2   force =     0.00000000    0.00000000   -0.13295174
     atom    2 type  3   force =     0.00000000    0.00000000    0.02795979
     atom    3 type  1   force =     0.00000000    0.00000000    0.23254083
     atom    4 type  1   force =     0.00000000    0.00000000    0.23254083
     atom    5 type  1   force =     0.00000000    0.00000000   -0.25490815
     The ionic contribution  to forces
     atom    1 type  2   force =     0.00000000    0.00000000    3.39497834
     atom    2 type  3   force =    -0.00000000   -0.00000000   -1.88331491
     atom    3 type  1   force =     0.00000000    0.00000000   -1.99638481
     atom    4 type  1   force =     0.00000000    0.00000000   -1.99638481
     atom    5 type  1   force =    -0.00000000   -0.00000000    2.48110619
     The local contribution  to forces
     atom    1 type  2   force =    -0.00000000    0.00000000   -3.23531847
     atom    2 type  3   force =    -0.00000000   -0.00000000    1.81600807
     atom    3 type  1   force =     0.00000000   -0.00000000    1.78162417
     atom    4 type  1   force =    -0.00000000    0.00000000    1.78162417
     atom    5 type  1   force =    -0.00000000   -0.00000000   -2.24912614
     The core correction contribution to forces
     atom    1 type  2   force =     0.00000000    0.00000000    0.00000000
     atom    2 type  3   force =     0.00000000    0.00000000    0.00000000
     atom    3 type  1   force =     0.00000000    0.00000000    0.00000000
     atom    4 type  1   force =     0.00000000    0.00000000    0.00000000
     atom    5 type  1   force =     0.00000000    0.00000000    0.00000000
     The Hubbard contrib.    to forces
     atom    1 type  2   force =     0.00000000    0.00000000    0.00000000
     atom    2 type  3   force =     0.00000000    0.00000000    0.00000000
     atom    3 type  1   force =     0.00000000    0.00000000    0.00000000
     atom    4 type  1   force =     0.00000000    0.00000000    0.00000000
     atom    5 type  1   force =     0.00000000    0.00000000    0.00000000
     The SCF correction term to forces
     atom    1 type  2   force =    -0.00000000    0.00000000    0.00000000
     atom    2 type  3   force =    -0.00000000   -0.00000000    0.00000000
     atom    3 type  1   force =     0.00000000    0.00000000    0.00000084
     atom    4 type  1   force =    -0.00000000    0.00000000    0.00000084
     atom    5 type  1   force =     0.00000000    0.00000000    0.00000190

     Total force =     0.034026     Total SCF correction =     0.000002


     Computing stress (Cartesian axis) and pressure

          total   stress  (Ry/bohr**3)                   (kbar)     P=      -11.46
  -0.00006536   0.00000000   0.00000000           -9.62        0.00        0.00
   0.00000000  -0.00006536   0.00000000            0.00       -9.62        0.00
   0.00000000   0.00000000  -0.00010303            0.00        0.00      -15.16

     Energy error            =      3.2E-03 Ry
     Gradient error          =      2.3E-02 Ry/Bohr

     number of scf cycles    =   6
     number of bfgs steps    =   5

     energy             old  =    -333.1708071032 Ry
     energy             new  =    -333.1740136782 Ry

     CASE: energy            _new < energy            _old

     new trust radius        =       0.1768314096 bohr
     new conv_thr            =       0.0000000229 Ry


ATOMIC_POSITIONS (angstrom)
Pb            0.0000000000        0.0000000000        0.0000000000    0   0   0
Ti            1.9400000000        1.9400000000        2.2463200000    0   0   0
O             0.0000000000        1.9400000000        2.1934241524
O             1.9400000000        0.0000000000        2.1934241524
O             1.9400000000        1.9400000000        0.2640916860



     Writing config-only to output data dir /home/gridsan/epan1/labutil/lab3_samples/problem2/Lab3/PbTiO3_a_3.88_ecut_30_nk_4_displ_0.07894736842105263/pwscf.save/
     NEW-OLD atomic charge density approx. for the potential

     total cpu time spent up to now is       33.0 secs

     Self-consistent Calculation

     iteration #  1     ecut=    30.00 Ry     beta= 0.70
     Davidson diagonalization with overlap
     ethr =  1.00E-06,  avg # of iterations = 11.2

     total cpu time spent up to now is       33.5 secs

     total energy              =    -333.17628070 Ry
     estimated scf accuracy    <       0.00552867 Ry

     iteration #  2     ecut=    30.00 Ry     beta= 0.70
     Davidson diagonalization with overlap
     ethr =  1.26E-05,  avg # of iterations =  4.3

     total cpu time spent up to now is       33.9 secs

     total energy              =    -333.17649249 Ry
     estimated scf accuracy    <       0.00235826 Ry

     iteration #  3     ecut=    30.00 Ry     beta= 0.70
     Davidson diagonalization with overlap
     ethr =  5.36E-06,  avg # of iterations =  4.5

     total cpu time spent up to now is       34.2 secs

     total energy              =    -333.17709478 Ry
     estimated scf accuracy    <       0.00182984 Ry

     iteration #  4     ecut=    30.00 Ry     beta= 0.70
     Davidson diagonalization with overlap
     ethr =  4.16E-06,  avg # of iterations =  3.3

     total cpu time spent up to now is       34.5 secs

     total energy              =    -333.17730246 Ry
     estimated scf accuracy    <       0.00008986 Ry

     iteration #  5     ecut=    30.00 Ry     beta= 0.70
     Davidson diagonalization with overlap
     ethr =  2.04E-07,  avg # of iterations =  5.8

     total cpu time spent up to now is       34.9 secs

     total energy              =    -333.17740211 Ry
     estimated scf accuracy    <       0.00019666 Ry

     iteration #  6     ecut=    30.00 Ry     beta= 0.70
     Davidson diagonalization with overlap
     ethr =  2.04E-07,  avg # of iterations =  2.7

     total cpu time spent up to now is       35.2 secs

     total energy              =    -333.17738070 Ry
     estimated scf accuracy    <       0.00010415 Ry

     iteration #  7     ecut=    30.00 Ry     beta= 0.70
     Davidson diagonalization with overlap
     ethr =  2.04E-07,  avg # of iterations =  4.3

     total cpu time spent up to now is       35.5 secs

     total energy              =    -333.17739694 Ry
     estimated scf accuracy    <       0.00000348 Ry

     iteration #  8     ecut=    30.00 Ry     beta= 0.70
     Davidson diagonalization with overlap
     ethr =  7.91E-09,  avg # of iterations =  5.8

     total cpu time spent up to now is       35.8 secs

     total energy              =    -333.17739915 Ry
     estimated scf accuracy    <       0.00000166 Ry

     iteration #  9     ecut=    30.00 Ry     beta= 0.70
     Davidson diagonalization with overlap
     ethr =  3.76E-09,  avg # of iterations =  3.0

     total cpu time spent up to now is       36.1 secs

     total energy              =    -333.17739914 Ry
     estimated scf accuracy    <       0.00000039 Ry

     iteration # 10     ecut=    30.00 Ry     beta= 0.70
     Davidson diagonalization with overlap
     ethr =  8.86E-10,  avg # of iterations =  4.5

     total cpu time spent up to now is       36.4 secs

     total energy              =    -333.17739932 Ry
     estimated scf accuracy    <       0.00000009 Ry

     iteration # 11     ecut=    30.00 Ry     beta= 0.70
     Davidson diagonalization with overlap
     ethr =  2.06E-10,  avg # of iterations =  1.5

     total cpu time spent up to now is       36.7 secs

     total energy              =    -333.17739931 Ry
     estimated scf accuracy    <       0.00000005 Ry

     iteration # 12     ecut=    30.00 Ry     beta= 0.70
     Davidson diagonalization with overlap
     ethr =  1.23E-10,  avg # of iterations =  2.3

     total cpu time spent up to now is       37.0 secs

     End of self-consistent calculation

          k = 0.1250 0.1250 0.1250 (  1096 PWs)   bands (ev):

   -44.7850 -21.4028 -21.4019 -21.3768  -6.4737  -5.4804  -5.3048  -3.9862
    -3.9809  -3.9633  -3.8126  -3.7362   4.5943   7.1988   7.2250   8.0672
     9.0168   9.0215   9.7533   9.8647   9.8962  10.0224

          k = 0.1250 0.1250 0.3750 (  1095 PWs)   bands (ev):

   -44.7838 -21.4328 -21.4005 -21.3995  -6.1247  -5.3854  -5.0941  -4.0264
    -3.9719  -3.9603  -3.8248  -3.7757   3.9382   6.8090   7.2927   7.6587
     8.2792   8.6904   9.2259   9.8538   9.9244  10.8193

          k = 0.1250 0.3750 0.3750 (  1093 PWs)   bands (ev):

   -44.7825 -21.4565 -21.4294 -21.3981  -5.9040  -5.2165  -4.9850  -4.0096
    -3.9682  -3.9091  -3.8058  -3.6295   3.5346   6.6571   6.7752   7.0349
     7.3969   8.5238   9.2382   9.4342  10.0900  10.6421

          k = 0.3750 0.3750 0.3750 (  1082 PWs)   bands (ev):

   -44.7812 -21.4539 -21.4536 -21.4268  -5.4718  -5.3365  -5.1635  -3.9240
    -3.9178  -3.6495  -3.5644  -3.5363   3.9581   5.8100   5.9212   6.6054
     6.8907   6.9708   8.1783  10.4793  10.6103  10.6822

          k = 0.3750-0.1250 0.1250 (  1095 PWs)   bands (ev):

   -44.7837 -21.4598 -21.4000 -21.3745  -6.0517  -5.3236  -5.2367  -4.0391
    -3.9736  -3.9589  -3.8226  -3.7331   3.8439   6.6867   7.2366   7.7627
     8.3414   8.6366   9.2864   9.8054  10.0253  10.8449

          k = 0.3750-0.3750 0.1250 (  1093 PWs)   bands (ev):

   -44.7825 -21.4569 -21.4560 -21.3726  -5.7329  -5.2287  -5.1965  -4.0072
    -3.9467  -3.8491  -3.7538  -3.6872   3.3679   6.6616   6.7262   7.1017
     7.3981   8.6444   9.3922   9.4386  10.0788  10.5248

     highest occupied level (ev):    10.8449

!    total energy              =    -333.17739929 Ry
     estimated scf accuracy    <       0.00000002 Ry

     The total energy is the sum of the following terms:
     one-electron contribution =     -79.15410922 Ry
     hartree contribution      =      67.42188451 Ry
     xc contribution           =     -49.65963017 Ry
     ewald contribution        =    -271.78554442 Ry

     convergence has been achieved in  12 iterations

     Forces acting on atoms (cartesian axes, Ry/au):

     atom    1 type  2   force =     0.00000000    0.00000000    0.02536094
     atom    2 type  3   force =     0.00000000    0.00000000   -0.03289483
     atom    3 type  1   force =     0.00000000    0.00000000    0.00982969
     atom    4 type  1   force =     0.00000000    0.00000000    0.00982969
     atom    5 type  1   force =     0.00000000    0.00000000   -0.01212549
     The non-local contrib.  to forces
     atom    1 type  2   force =     0.00000000    0.00000000   -0.19712208
     atom    2 type  3   force =     0.00000000    0.00000000    0.02236657
     atom    3 type  1   force =     0.00000000    0.00000000    0.20785005
     atom    4 type  1   force =     0.00000000    0.00000000    0.20785005
     atom    5 type  1   force =     0.00000000    0.00000000   -0.14895673
     The ionic contribution  to forces
     atom    1 type  2   force =     0.00000000    0.00000000    4.48342636
     atom    2 type  3   force =    -0.00000000   -0.00000000   -2.19969788
     atom    3 type  1   force =     0.00000000   -0.00000000   -2.07098570
     atom    4 type  1   force =    -0.00000000    0.00000000   -2.07098570
     atom    5 type  1   force =    -0.00000000   -0.00000000    1.85824293
     The local contribution  to forces
     atom    1 type  2   force =     0.00000000    0.00000000   -4.26094227
     atom    2 type  3   force =    -0.00000000   -0.00000000    2.14446504
     atom    3 type  1   force =     0.00000000   -0.00000000    1.87299952
     atom    4 type  1   force =    -0.00000000    0.00000000    1.87299952
     atom    5 type  1   force =    -0.00000000   -0.00000000   -1.72141580
     The core correction contribution to forces
     atom    1 type  2   force =     0.00000000    0.00000000    0.00000000
     atom    2 type  3   force =     0.00000000    0.00000000    0.00000000
     atom    3 type  1   force =     0.00000000    0.00000000    0.00000000
     atom    4 type  1   force =     0.00000000    0.00000000    0.00000000
     atom    5 type  1   force =     0.00000000    0.00000000    0.00000000
     The Hubbard contrib.    to forces
     atom    1 type  2   force =     0.00000000    0.00000000    0.00000000
     atom    2 type  3   force =     0.00000000    0.00000000    0.00000000
     atom    3 type  1   force =     0.00000000    0.00000000    0.00000000
     atom    4 type  1   force =     0.00000000    0.00000000    0.00000000
     atom    5 type  1   force =     0.00000000    0.00000000    0.00000000
     The SCF correction term to forces
     atom    1 type  2   force =     0.00000000   -0.00000000    0.00000000
     atom    2 type  3   force =     0.00000000   -0.00000000   -0.00000000
     atom    3 type  1   force =    -0.00000000    0.00000000   -0.00001383
     atom    4 type  1   force =     0.00000000   -0.00000000   -0.00001383
     atom    5 type  1   force =    -0.00000000   -0.00000000    0.00002446

     Total force =     0.018446     Total SCF correction =     0.000031


     Computing stress (Cartesian axis) and pressure

          total   stress  (Ry/bohr**3)                   (kbar)     P=       -4.38
   0.00000136   0.00000000   0.00000000            0.20        0.00        0.00
   0.00000000   0.00000136   0.00000000            0.00        0.20        0.00
   0.00000000   0.00000000  -0.00009205            0.00        0.00      -13.54

     Energy error            =      3.4E-03 Ry
     Gradient error          =      1.2E-02 Ry/Bohr

     number of scf cycles    =   7
     number of bfgs steps    =   6

     energy             old  =    -333.1740136782 Ry
     energy             new  =    -333.1773992937 Ry

     CASE: energy            _new < energy            _old

     new trust radius        =       0.2302006149 bohr
     new conv_thr            =       0.0000000121 Ry


ATOMIC_POSITIONS (angstrom)
Pb            0.0000000000        0.0000000000        0.0000000000    0   0   0
Ti            1.9400000000        1.9400000000        2.2463200000    0   0   0
O             0.0000000000        1.9400000000        2.3152410718
O             1.9400000000        0.0000000000        2.3152410718
O             1.9400000000        1.9400000000        0.3228541909



     Writing config-only to output data dir /home/gridsan/epan1/labutil/lab3_samples/problem2/Lab3/PbTiO3_a_3.88_ecut_30_nk_4_displ_0.07894736842105263/pwscf.save/
     NEW-OLD atomic charge density approx. for the potential

     total cpu time spent up to now is       38.4 secs

     Self-consistent Calculation

     iteration #  1     ecut=    30.00 Ry     beta= 0.70
     Davidson diagonalization with overlap
     ethr =  1.00E-06,  avg # of iterations = 11.5

     total cpu time spent up to now is       39.0 secs

     total energy              =    -333.17715421 Ry
     estimated scf accuracy    <       0.00939994 Ry

     iteration #  2     ecut=    30.00 Ry     beta= 0.70
     Davidson diagonalization with overlap
     ethr =  2.14E-05,  avg # of iterations =  4.3

     total cpu time spent up to now is       39.3 secs

     total energy              =    -333.17747050 Ry
     estimated scf accuracy    <       0.00401102 Ry

     iteration #  3     ecut=    30.00 Ry     beta= 0.70
     Davidson diagonalization with overlap
     ethr =  9.12E-06,  avg # of iterations =  4.8

     total cpu time spent up to now is       39.6 secs

     total energy              =    -333.17846294 Ry
     estimated scf accuracy    <       0.00335007 Ry

     iteration #  4     ecut=    30.00 Ry     beta= 0.70
     Davidson diagonalization with overlap
     ethr =  7.61E-06,  avg # of iterations =  3.7

     total cpu time spent up to now is       39.9 secs

     total energy              =    -333.17889470 Ry
     estimated scf accuracy    <       0.00010372 Ry

     iteration #  5     ecut=    30.00 Ry     beta= 0.70
     Davidson diagonalization with overlap
     ethr =  2.36E-07,  avg # of iterations =  6.7

     total cpu time spent up to now is       40.3 secs

     total energy              =    -333.17903846 Ry
     estimated scf accuracy    <       0.00022312 Ry

     iteration #  6     ecut=    30.00 Ry     beta= 0.70
     Davidson diagonalization with overlap
     ethr =  2.36E-07,  avg # of iterations =  2.7

     total cpu time spent up to now is       40.6 secs

     total energy              =    -333.17901468 Ry
     estimated scf accuracy    <       0.00011510 Ry

     iteration #  7     ecut=    30.00 Ry     beta= 0.70
     Davidson diagonalization with overlap
     ethr =  2.36E-07,  avg # of iterations =  4.5

     total cpu time spent up to now is       40.9 secs

     total energy              =    -333.17903501 Ry
     estimated scf accuracy    <       0.00000162 Ry

     iteration #  8     ecut=    30.00 Ry     beta= 0.70
     Davidson diagonalization with overlap
     ethr =  3.69E-09,  avg # of iterations =  6.0

     total cpu time spent up to now is       41.3 secs

     total energy              =    -333.17903663 Ry
     estimated scf accuracy    <       0.00000182 Ry

     iteration #  9     ecut=    30.00 Ry     beta= 0.70
     Davidson diagonalization with overlap
     ethr =  3.69E-09,  avg # of iterations =  4.2

     total cpu time spent up to now is       41.6 secs

     total energy              =    -333.17903681 Ry
     estimated scf accuracy    <       0.00000010 Ry

     iteration # 10     ecut=    30.00 Ry     beta= 0.70
     Davidson diagonalization with overlap
     ethr =  2.36E-10,  avg # of iterations =  6.2

     total cpu time spent up to now is       42.0 secs

     total energy              =    -333.17903690 Ry
     estimated scf accuracy    <       0.00000009 Ry

     iteration # 11     ecut=    30.00 Ry     beta= 0.70
     Davidson diagonalization with overlap
     ethr =  1.95E-10,  avg # of iterations =  1.3

     total cpu time spent up to now is       42.3 secs

[...]
     Davidson diagonalization with overlap
     ethr =  5.10E-10,  avg # of iterations =  5.5

     total cpu time spent up to now is       64.5 secs

     total energy              =    -333.17963290 Ry
     estimated scf accuracy    <       0.00000017 Ry

     iteration #  9     ecut=    30.00 Ry     beta= 0.70
     Davidson diagonalization with overlap
     ethr =  3.93E-10,  avg # of iterations =  3.3

     total cpu time spent up to now is       64.8 secs

     total energy              =    -333.17963291 Ry
     estimated scf accuracy    <       0.00000002 Ry

     iteration # 10     ecut=    30.00 Ry     beta= 0.70
     Davidson diagonalization with overlap
     ethr =  5.54E-11,  avg # of iterations =  5.0

     total cpu time spent up to now is       65.2 secs

     total energy              =    -333.17963292 Ry
     estimated scf accuracy    <          7.5E-09 Ry

     iteration # 11     ecut=    30.00 Ry     beta= 0.70
     Davidson diagonalization with overlap
     ethr =  1.70E-11,  avg # of iterations =  1.2

     total cpu time spent up to now is       65.4 secs

     total energy              =    -333.17963292 Ry
     estimated scf accuracy    <          4.1E-09 Ry

     iteration # 12     ecut=    30.00 Ry     beta= 0.70
     Davidson diagonalization with overlap
     ethr =  9.26E-12,  avg # of iterations =  2.7

     total cpu time spent up to now is       65.7 secs

     End of self-consistent calculation

          k = 0.1250 0.1250 0.1250 (  1096 PWs)   bands (ev):

   -44.8142 -21.4389 -21.4378 -21.4163  -6.6590  -5.7332  -5.2754  -3.8808
    -3.8757  -3.8289  -3.7237  -3.5065   4.6315   7.0248   7.1595   8.0846
     8.8985   8.9683   9.5417   9.5961   9.7891  10.2230

          k = 0.1250 0.1250 0.3750 (  1095 PWs)   bands (ev):

   -44.8130 -21.4723 -21.4363 -21.4354  -6.3756  -5.6624  -5.0115  -3.9119
    -3.8538  -3.8273  -3.6807  -3.5800   4.0198   6.8158   7.0428   7.4778
     8.3700   8.5607   9.1397   9.6305   9.7955  10.8778

          k = 0.1250 0.3750 0.3750 (  1093 PWs)   bands (ev):

   -44.8118 -21.4926 -21.4687 -21.4339  -6.1317  -5.5077  -4.9370  -3.8975
    -3.8377  -3.7836  -3.6480  -3.4315   3.6121   6.4355   6.7110   6.9258
     7.3484   8.4006   9.0331   9.3825  10.2356  10.5871

          k = 0.3750 0.3750 0.3750 (  1082 PWs)   bands (ev):

   -44.8104 -21.4900 -21.4895 -21.4658  -5.7085  -5.5852  -5.0881  -3.8032
    -3.7921  -3.5651  -3.4171  -3.3587   3.7383   5.7569   5.9300   6.4582
     6.8697   6.9981   8.5089  10.2249  10.5375  10.6243

          k = 0.3750-0.1250 0.1250 (  1095 PWs)   bands (ev):

   -44.8130 -21.4958 -21.4360 -21.4139  -6.2343  -5.5861  -5.2782  -3.9158
    -3.8647  -3.8256  -3.6493  -3.5225   3.8445   6.5581   7.1290   7.6824
     8.1983   8.5931   9.2229   9.6811   9.8579  10.9661

          k = 0.3750-0.3750 0.1250 (  1093 PWs)   bands (ev):

   -44.8117 -21.4929 -21.4920 -21.4120  -5.7942  -5.5021  -5.3983  -3.8825
    -3.8153  -3.6734  -3.5481  -3.5177   3.1860   6.5173   6.6218   7.0996
     7.4714   8.6809   9.3608   9.3617  10.2294  10.2887

     highest occupied level (ev):    10.9661

!    total energy              =    -333.17963292 Ry
     estimated scf accuracy    <          8.1E-10 Ry

     The total energy is the sum of the following terms:
     one-electron contribution =     -81.66130431 Ry
     hartree contribution      =      68.66927190 Ry
     xc contribution           =     -49.71100238 Ry
     ewald contribution        =    -270.47659813 Ry

     convergence has been achieved in  12 iterations

     Forces acting on atoms (cartesian axes, Ry/au):

     atom    1 type  2   force =     0.00000000    0.00000000    0.03695341
     atom    2 type  3   force =     0.00000000    0.00000000   -0.03558406
     atom    3 type  1   force =     0.00000000    0.00000000   -0.00042287
     atom    4 type  1   force =     0.00000000    0.00000000   -0.00042287
     atom    5 type  1   force =     0.00000000    0.00000000   -0.00052360
     The non-local contrib.  to forces
     atom    1 type  2   force =     0.00000000    0.00000000   -0.31866962
     atom    2 type  3   force =     0.00000000    0.00000000    0.00604475
     atom    3 type  1   force =     0.00000000    0.00000000    0.17937016
     atom    4 type  1   force =     0.00000000    0.00000000    0.17937016
     atom    5 type  1   force =     0.00000000    0.00000000    0.12900866
     The ionic contribution  to forces
     atom    1 type  2   force =     0.00000000    0.00000000    6.35522479
     atom    2 type  3   force =    -0.00000000   -0.00000000   -1.56799379
     atom    3 type  1   force =     0.00000000   -0.00000000   -1.95134979
     atom    4 type  1   force =    -0.00000000    0.00000000   -1.95134979
     atom    5 type  1   force =    -0.00000000   -0.00000000   -0.88453143
     The local contribution  to forces
     atom    1 type  2   force =    -0.00000000    0.00000000   -5.99960220
     atom    2 type  3   force =    -0.00000000   -0.00000000    1.52636753
     atom    3 type  1   force =     0.00000000   -0.00000000    1.77156107
     atom    4 type  1   force =    -0.00000000    0.00000000    1.77156107
     atom    5 type  1   force =    -0.00000000   -0.00000000    0.75499039
     The core correction contribution to forces
     atom    1 type  2   force =     0.00000000    0.00000000    0.00000000
     atom    2 type  3   force =     0.00000000    0.00000000    0.00000000
     atom    3 type  1   force =     0.00000000    0.00000000    0.00000000
     atom    4 type  1   force =     0.00000000    0.00000000    0.00000000
     atom    5 type  1   force =     0.00000000    0.00000000    0.00000000
     The Hubbard contrib.    to forces
     atom    1 type  2   force =     0.00000000    0.00000000    0.00000000
     atom    2 type  3   force =     0.00000000    0.00000000    0.00000000
     atom    3 type  1   force =     0.00000000    0.00000000    0.00000000
     atom    4 type  1   force =     0.00000000    0.00000000    0.00000000
     atom    5 type  1   force =     0.00000000    0.00000000    0.00000000
     The SCF correction term to forces
     atom    1 type  2   force =     0.00000000    0.00000000    0.00000000
     atom    2 type  3   force =    -0.00000000   -0.00000000   -0.00000000
     atom    3 type  1   force =     0.00000000   -0.00000000   -0.00000347
     atom    4 type  1   force =     0.00000000    0.00000000   -0.00000347
     atom    5 type  1   force =     0.00000000    0.00000000    0.00000963

     Total force =     0.000795     Total SCF correction =     0.000011


     Computing stress (Cartesian axis) and pressure

          total   stress  (Ry/bohr**3)                   (kbar)     P=       22.20
   0.00014671   0.00000000   0.00000000           21.58        0.00        0.00
   0.00000000   0.00014671   0.00000000            0.00       21.58        0.00
   0.00000000   0.00000000   0.00015935            0.00        0.00       23.44

     Energy error            =      1.0E-04 Ry
     Gradient error          =      5.2E-04 Ry/Bohr

     number of scf cycles    =  13
     number of bfgs steps    =  12

     energy             old  =    -333.1795325105 Ry
     energy             new  =    -333.1796329220 Ry

     CASE: energy            _new < energy            _old

     new trust radius        =       0.0227557519 bohr
     new conv_thr            =       0.0000000010 Ry


ATOMIC_POSITIONS (angstrom)
Pb            0.0000000000        0.0000000000        0.0000000000    0   0   0
Ti            1.9400000000        1.9400000000        2.2463200000    0   0   0
O             0.0000000000        1.9400000000        2.3705816057
O             1.9400000000        0.0000000000        2.3705816057
O             1.9400000000        1.9400000000        0.3990446827



     Writing config-only to output data dir /home/gridsan/epan1/labutil/lab3_samples/problem2/Lab3/PbTiO3_a_3.88_ecut_30_nk_4_displ_0.07894736842105263/pwscf.save/
     NEW-OLD atomic charge density approx. for the potential

     total cpu time spent up to now is       66.9 secs

     Self-consistent Calculation

     iteration #  1     ecut=    30.00 Ry     beta= 0.70
     Davidson diagonalization with overlap
     ethr =  1.00E-06,  avg # of iterations =  7.0

     total cpu time spent up to now is       67.3 secs

     total energy              =    -333.17962168 Ry
     estimated scf accuracy    <       0.00011692 Ry

     iteration #  2     ecut=    30.00 Ry     beta= 0.70
     Davidson diagonalization with overlap
     ethr =  2.66E-07,  avg # of iterations =  3.0

     total cpu time spent up to now is       67.6 secs

     total energy              =    -333.17963589 Ry
     estimated scf accuracy    <       0.00001332 Ry

     iteration #  3     ecut=    30.00 Ry     beta= 0.70
     Davidson diagonalization with overlap
     ethr =  3.03E-08,  avg # of iterations =  4.8

     total cpu time spent up to now is       68.0 secs

     total energy              =    -333.17963738 Ry
     estimated scf accuracy    <       0.00001641 Ry

     iteration #  4     ecut=    30.00 Ry     beta= 0.70
     Davidson diagonalization with overlap
     ethr =  3.03E-08,  avg # of iterations =  4.8

     total cpu time spent up to now is       68.3 secs

     total energy              =    -333.17964112 Ry
     estimated scf accuracy    <       0.00000145 Ry

     iteration #  5     ecut=    30.00 Ry     beta= 0.70
     Davidson diagonalization with overlap
     ethr =  3.29E-09,  avg # of iterations =  3.7

     total cpu time spent up to now is       68.6 secs

     total energy              =    -333.17964133 Ry
     estimated scf accuracy    <       0.00000020 Ry

     iteration #  6     ecut=    30.00 Ry     beta= 0.70
     Davidson diagonalization with overlap
     ethr =  4.47E-10,  avg # of iterations =  4.8

     total cpu time spent up to now is       68.9 secs

     total energy              =    -333.17964140 Ry
     estimated scf accuracy    <       0.00000003 Ry

     iteration #  7     ecut=    30.00 Ry     beta= 0.70
     Davidson diagonalization with overlap
     ethr =  7.27E-11,  avg # of iterations =  2.7

     total cpu time spent up to now is       69.2 secs

     total energy              =    -333.17964140 Ry
     estimated scf accuracy    <          7.3E-09 Ry

     iteration #  8     ecut=    30.00 Ry     beta= 0.70
     Davidson diagonalization with overlap
     ethr =  1.65E-11,  avg # of iterations =  4.7

     total cpu time spent up to now is       69.7 secs

     total energy              =    -333.17964140 Ry
     estimated scf accuracy    <          2.9E-09 Ry

     iteration #  9     ecut=    30.00 Ry     beta= 0.70
     Davidson diagonalization with overlap
     ethr =  6.65E-12,  avg # of iterations =  1.0

     total cpu time spent up to now is       70.0 secs

     total energy              =    -333.17964140 Ry
     estimated scf accuracy    <          1.7E-09 Ry

     iteration # 10     ecut=    30.00 Ry     beta= 0.70
     Davidson diagonalization with overlap
     ethr =  3.93E-12,  avg # of iterations =  4.3

     total cpu time spent up to now is       70.3 secs

     End of self-consistent calculation

          k = 0.1250 0.1250 0.1250 (  1096 PWs)   bands (ev):

   -44.8203 -21.4448 -21.4438 -21.4164  -6.6462  -5.7181  -5.2745  -3.8879
    -3.8826  -3.8380  -3.7294  -3.5241   4.6295   7.0391   7.1654   8.0843
     8.9071   8.9808   9.5519   9.6243   9.8017  10.2199

          k = 0.1250 0.1250 0.3750 (  1095 PWs)   bands (ev):

   -44.8190 -21.4723 -21.4422 -21.4414  -6.3604  -5.6460  -5.0127  -3.9191
    -3.8617  -3.8365  -3.6865  -3.5986   4.0176   6.8211   7.0697   7.4857
     8.3595   8.5816   9.1415   9.6450   9.8075  10.8691

          k = 0.1250 0.3750 0.3750 (  1093 PWs)   bands (ev):

   -44.8178 -21.4986 -21.4687 -21.4399  -6.1181  -5.4883  -4.9352  -3.9046
    -3.8467  -3.7920  -3.6590  -3.4465   3.6079   6.4516   6.7197   6.9259
     7.3562   8.4029   9.0447   9.3933  10.2248  10.5955

          k = 0.3750 0.3750 0.3750 (  1082 PWs)   bands (ev):

   -44.8165 -21.4960 -21.4955 -21.4658  -5.6923  -5.5686  -5.0890  -3.8109
    -3.8010  -3.5695  -3.4274  -3.3722   3.7551   5.7593   5.9319   6.4671
     6.8587   6.9914   8.4843  10.2398  10.5505  10.6353

          k = 0.3750-0.1250 0.1250 (  1095 PWs)   bands (ev):

   -44.8190 -21.5018 -21.4419 -21.4140  -6.2212  -5.5685  -5.2734  -3.9245
    -3.8719  -3.8344  -3.6603  -3.5388   3.8452   6.5623   7.1349   7.6892
     8.2088   8.5923   9.2345   9.6930   9.8789  10.9603

          k = 0.3750-0.3750 0.1250 (  1093 PWs)   bands (ev):

   -44.8178 -21.4989 -21.4979 -21.4120  -5.7832  -5.4826  -5.3896  -3.8914
    -3.8236  -3.6837  -3.5582  -3.5346   3.1992   6.5243   6.6221   7.0993
     7.4656   8.6791   9.3615   9.3698  10.2202  10.3035

     highest occupied level (ev):    10.9603

!    total energy              =    -333.17964140 Ry
     estimated scf accuracy    <          2.1E-10 Ry

     The total energy is the sum of the following terms:
     one-electron contribution =     -81.46028826 Ry
     hartree contribution      =      68.56694871 Ry
     xc contribution           =     -49.70581656 Ry
     ewald contribution        =    -270.58048528 Ry

     convergence has been achieved in  10 iterations

     Forces acting on atoms (cartesian axes, Ry/au):

     atom    1 type  2   force =     0.00000000    0.00000000    0.03581003
     atom    2 type  3   force =     0.00000000    0.00000000   -0.03636876
     atom    3 type  1   force =     0.00000000    0.00000000    0.00036167
     atom    4 type  1   force =     0.00000000    0.00000000    0.00036167
     atom    5 type  1   force =     0.00000000    0.00000000   -0.00016462
     The non-local contrib.  to forces
     atom    1 type  2   force =     0.00000000    0.00000000   -0.31111713
     atom    2 type  3   force =     0.00000000    0.00000000    0.00814589
     atom    3 type  1   force =     0.00000000    0.00000000    0.18254126
     atom    4 type  1   force =     0.00000000    0.00000000    0.18254126
     atom    5 type  1   force =     0.00000000    0.00000000    0.11037263
     The ionic contribution  to forces
     atom    1 type  2   force =     0.00000000    0.00000000    6.24595202
     atom    2 type  3   force =    -0.00000000   -0.00000000   -1.63233754
     atom    3 type  1   force =     0.00000000    0.00000000   -1.96411325
     atom    4 type  1   force =    -0.00000000    0.00000000   -1.96411325
     atom    5 type  1   force =    -0.00000000   -0.00000000   -0.68538799
     The local contribution  to forces
     atom    1 type  2   force =    -0.00000000    0.00000000   -5.89903700
     atom    2 type  3   force =    -0.00000000   -0.00000000    1.58781722
     atom    3 type  1   force =     0.00000000   -0.00000000    1.78193120
     atom    4 type  1   force =    -0.00000000    0.00000000    1.78193120
     atom    5 type  1   force =    -0.00000000   -0.00000000    0.57484085
     The core correction contribution to forces
     atom    1 type  2   force =     0.00000000    0.00000000    0.00000000
     atom    2 type  3   force =     0.00000000    0.00000000    0.00000000
     atom    3 type  1   force =     0.00000000    0.00000000    0.00000000
     atom    4 type  1   force =     0.00000000    0.00000000    0.00000000
     atom    5 type  1   force =     0.00000000    0.00000000    0.00000000
     The Hubbard contrib.    to forces
     atom    1 type  2   force =     0.00000000    0.00000000    0.00000000
     atom    2 type  3   force =     0.00000000    0.00000000    0.00000000
     atom    3 type  1   force =     0.00000000    0.00000000    0.00000000
     atom    4 type  1   force =     0.00000000    0.00000000    0.00000000
     atom    5 type  1   force =     0.00000000    0.00000000    0.00000000
     The SCF correction term to forces
     atom    1 type  2   force =     0.00000000   -0.00000000    0.00000000
     atom    2 type  3   force =     0.00000000   -0.00000000   -0.00000000
     atom    3 type  1   force =    -0.00000000   -0.00000000   -0.00000486
     atom    4 type  1   force =     0.00000000    0.00000000   -0.00000486
     atom    5 type  1   force =     0.00000000    0.00000000    0.00000256

     Total force =     0.000537     Total SCF correction =     0.000007


     Computing stress (Cartesian axis) and pressure

          total   stress  (Ry/bohr**3)                   (kbar)     P=       19.43
   0.00013590   0.00000000   0.00000000           19.99        0.00        0.00
   0.00000000   0.00013590   0.00000000            0.00       19.99        0.00
   0.00000000   0.00000000   0.00012438            0.00        0.00       18.30

     Energy error            =      8.5E-06 Ry
     Gradient error          =      3.6E-04 Ry/Bohr

     bfgs converged in  14 scf cycles and  13 bfgs steps
     (criteria: energy <  1.0E-04 Ry, force <  1.0E-03 Ry/Bohr)

     End of BFGS Geometry Optimization

     Final energy             =    -333.1796413998 Ry

     File /home/gridsan/epan1/labutil/lab3_samples/problem2/Lab3/PbTiO3_a_3.88_ecut_30_nk_4_displ_0.07894736842105263/pwscf.bfgs deleted, as requested
Begin final coordinates

ATOMIC_POSITIONS (angstrom)
Pb            0.0000000000        0.0000000000        0.0000000000    0   0   0
Ti            1.9400000000        1.9400000000        2.2463200000    0   0   0
O             0.0000000000        1.9400000000        2.3705816057
O             1.9400000000        0.0000000000        2.3705816057
O             1.9400000000        1.9400000000        0.3990446827
End final coordinates



     init_run     :      0.67s CPU      0.70s WALL (       1 calls)
     electrons    :     57.78s CPU     47.77s WALL (      14 calls)
     update_pot   :      0.46s CPU      0.50s WALL (      13 calls)
     forces       :      2.06s CPU      1.55s WALL (      14 calls)
     stress       :     14.83s CPU     12.51s WALL (      14 calls)

     Called by init_run:
     wfcinit      :      0.07s CPU      0.08s WALL (       1 calls)
     potinit      :      0.05s CPU      0.05s WALL (       1 calls)
     hinit0       :      0.46s CPU      0.47s WALL (       1 calls)

     Called by electrons:
     c_bands      :     33.68s CPU     26.44s WALL (     142 calls)
     sum_band     :     14.77s CPU     12.79s WALL (     142 calls)
     v_of_rho     :      0.53s CPU      0.49s WALL (     156 calls)
     newd         :      8.95s CPU      8.00s WALL (     156 calls)
     mix_rho      :      0.31s CPU      0.30s WALL (     142 calls)

     Called by c_bands:
     init_us_2    :      1.01s CPU      0.78s WALL (    1878 calls)
     init_us_2:cp :      1.00s CPU      0.78s WALL (    1878 calls)
     cegterg      :     31.00s CPU     23.94s WALL (     852 calls)

     Called by *egterg:
     cdiaghg      :      5.34s CPU      4.08s WALL (    4535 calls)
     h_psi        :     20.67s CPU     16.17s WALL (    4619 calls)
     s_psi        :      0.90s CPU      0.68s WALL (    4619 calls)
     g_psi        :      0.22s CPU      0.16s WALL (    3761 calls)

     Called by h_psi:
     h_psi:calbec :      1.26s CPU      0.99s WALL (    4619 calls)
     vloc_psi     :     18.36s CPU     14.37s WALL (    4619 calls)
     add_vuspsi   :      0.92s CPU      0.71s WALL (    4619 calls)

     General routines
     calbec       :      1.72s CPU      1.35s WALL (    5891 calls)
     fft          :      0.89s CPU      0.79s WALL (     991 calls)
     ffts         :      0.09s CPU      0.08s WALL (     298 calls)
     fftw         :     17.41s CPU     13.63s WALL (  136388 calls)
     interpolate  :      0.19s CPU      0.17s WALL (     156 calls)

     Parallel routines

     PWSCF        :   1m17.89s CPU   1m11.44s WALL


   This run was terminated on:  18:13:53   2Nov2023            

=------------------------------------------------------------------------------=
   JOB DONE.
=------------------------------------------------------------------------------=
