
     Program PWSCF v.7.2 starts on  1Nov2023 at 17: 8:21 

     This program is part of the open-source Quantum ESPRESSO suite
     for quantum simulation of materials; please cite
         "P. Giannozzi et al., J. Phys.:Condens. Matter 21 395502 (2009);
         "P. Giannozzi et al., J. Phys.:Condens. Matter 29 465901 (2017);
         "P. Giannozzi et al., J. Chem. Phys. 152 154105 (2020);
          URL http://www.quantum-espresso.org", 
     in publications or presentations arising from this work. More details at
     http://www.quantum-espresso.org/quote

     Parallel version (MPI), running on     4 processors

     MPI processes distributed on     4 nodes
     186306 MiB available memory on the printing compute node when the environment starts

     Waiting for input...
     Reading input from standard input

     Current dimensions of program PWSCF are:
     Max number of different atomic species (ntypx) = 10
     Max number of k-points (npk) =  40000
     Max angular momentum in pseudopotentials (lmaxx) =  4
     file Fe.pbe-nd-rrkjus.UPF: wavefunction(s)  4S renormalized
     Message from routine setup:
     using ibrav=0 with symmetry is DISCOURAGED, use correct ibrav instead

     R & G space division:  proc/nbgrp/npool/nimage =       4
     Subspace diagonalization in iterative solution of the eigenvalue problem:
     a serial algorithm will be used


     Parallelization info
     --------------------
     sticks:   dense  smooth     PW     G-vecs:    dense   smooth      PW
     Min          95      45     15                 1181      400      79
     Max          96      46     16                 1183      401      81
     Sum         383     181     63                 4729     1601     321

     Using Slab Decomposition



     bravais-lattice index     =            0
     lattice parameter (alat)  =       4.5899  a.u.
     unit-cell volume          =      74.4385 (a.u.)^3
     number of atoms/cell      =            1
     number of atomic types    =            1
     number of electrons       =         8.00
     number of Kohn-Sham states=            8
     kinetic-energy cutoff     =      30.0000  Ry
     charge density cutoff     =     240.0000  Ry
     scf convergence threshold =      1.0E-07
     mixing beta               =       0.5000
     number of iterations used =            8  plain     mixing
     energy convergence thresh.=      1.0E-04
     force convergence thresh. =      1.0E-03
     press convergence thresh. =      5.0E-01
     Exchange-correlation=  SLA  PW   PBE  PBE
                           (   1   4   3   4   0   0   0)
     nstep                     =           50


     celldm(1)=   4.589935  celldm(2)=   0.000000  celldm(3)=   0.000000
     celldm(4)=   0.000000  celldm(5)=   0.000000  celldm(6)=   0.000000

     crystal axes: (cart. coord. in units of alat)
               a(1) = (  -0.577350   0.577350   0.577350 )  
               a(2) = (   0.577350  -0.577350   0.577350 )  
               a(3) = (   0.577350   0.577350  -0.577350 )  

     reciprocal axes: (cart. coord. in units 2 pi/alat)
               b(1) = (  0.000000  0.866025  0.866025 )  
               b(2) = (  0.866025  0.000000  0.866025 )  
               b(3) = (  0.866025  0.866025  0.000000 )  


     PseudoPot. # 1 for Fe read from file:
     /home/gridsan/epan1/labutil/lab3_samples/pseudopotentials/Fe.pbe-nd-rrkjus.UPF
     MD5 check sum: 398036227a04b607635f6f5e8dfd8242
     Pseudo is Ultrasoft + core correction, Zval =  8.0
     Generated by new atomic code, or converted to UPF format
     Using radial grid of  957 points,  6 beta functions with: 
                l(1) =   0
                l(2) =   0
                l(3) =   1
                l(4) =   1
                l(5) =   2
                l(6) =   2
     Q(r) pseudized with 0 coefficients 


     atomic species   valence    mass     pseudopotential
        Fe             8.00    55.84500     Fe( 1.00)

     Starting magnetic structure 
     atomic species   magnetization
        Fe           0.700

     48 Sym. Ops., with inversion, found



   Cartesian axes

     site n.     atom                  positions (alat units)
         1           Fe  tau(   1) = (   0.0000000   0.0000000   0.0000000  )

     number of k points=    10  Methfessel-Paxton smearing, width (Ry)=  0.0200
                       cart. coord. in units 2pi/alat
        k(    1) = (   0.0000000   0.0000000   0.0000000), wk =   0.0080000
        k(    2) = (   0.1732051   0.1732051   0.0000000), wk =   0.0960000
        k(    3) = (   0.3464102   0.3464102   0.0000000), wk =   0.0960000
        k(    4) = (   0.3464102   0.1732051   0.1732051), wk =   0.1920000
        k(    5) = (   0.5196152   0.3464102   0.1732051), wk =   0.1920000
        k(    6) = (   0.3464102   0.3464102   0.3464102), wk =   0.0640000
        k(    7) = (   0.0000000   0.0000000   0.3464102), wk =   0.0480000
        k(    8) = (   0.0000000  -0.1732051   0.5196152), wk =   0.1920000
        k(    9) = (  -0.6928203  -0.1732051  -0.1732051), wk =   0.0640000
        k(   10) = (   0.0000000   0.0000000   0.6928203), wk =   0.0480000

     Dense  grid:     4729 G-vectors     FFT dimensions: (  24,  24,  24)

     Smooth grid:     1601 G-vectors     FFT dimensions: (  15,  15,  15)

     Estimated max dynamical RAM per process >       7.50 MB

     Estimated total dynamical RAM >      30.02 MB
     Generating pointlists ...
     new r_m :   0.4125 (alat units)  1.8933 (a.u.) for type    1

     Initial potential from superposition of free atoms

     starting charge       7.9994, renormalised to       8.0000
     Starting wfcs are    6 randomized atomic wfcs +    2 random wfcs

     total cpu time spent up to now is        3.0 secs

     Self-consistent Calculation

     iteration #  1     ecut=    30.00 Ry     beta= 0.50
     Davidson diagonalization with overlap
     ethr =  1.00E-02,  avg # of iterations =  4.5

     total cpu time spent up to now is        5.2 secs

     total energy              =     -55.66315940 Ry
     estimated scf accuracy    <       0.31771574 Ry

     total magnetization       =     3.14 Bohr mag/cell
     absolute magnetization    =     3.14 Bohr mag/cell

     iteration #  2     ecut=    30.00 Ry     beta= 0.50
     Davidson diagonalization with overlap
     ethr =  3.97E-03,  avg # of iterations =  1.9

     total cpu time spent up to now is        6.3 secs

     total energy              =     -55.76743496 Ry
     estimated scf accuracy    <       0.04694413 Ry

     total magnetization       =     2.88 Bohr mag/cell
     absolute magnetization    =     2.88 Bohr mag/cell

     iteration #  3     ecut=    30.00 Ry     beta= 0.50
     Davidson diagonalization with overlap
     ethr =  5.87E-04,  avg # of iterations =  1.8

     total cpu time spent up to now is        7.0 secs

     total energy              =     -55.78728069 Ry
     estimated scf accuracy    <       0.00563611 Ry

     total magnetization       =     2.89 Bohr mag/cell
     absolute magnetization    =     2.90 Bohr mag/cell

     iteration #  4     ecut=    30.00 Ry     beta= 0.50
     Davidson diagonalization with overlap
     ethr =  7.05E-05,  avg # of iterations =  2.8

     total cpu time spent up to now is        9.5 secs

     total energy              =     -55.79276483 Ry
     estimated scf accuracy    <       0.00205450 Ry

     total magnetization       =     2.54 Bohr mag/cell
     absolute magnetization    =     2.63 Bohr mag/cell

     iteration #  5     ecut=    30.00 Ry     beta= 0.50
     Davidson diagonalization with overlap
     ethr =  2.57E-05,  avg # of iterations =  2.0

     total cpu time spent up to now is       10.2 secs

     total energy              =     -55.79353517 Ry
     estimated scf accuracy    <       0.00128082 Ry

     total magnetization       =     2.47 Bohr mag/cell
     absolute magnetization    =     2.58 Bohr mag/cell

     iteration #  6     ecut=    30.00 Ry     beta= 0.50
     Davidson diagonalization with overlap
     ethr =  1.60E-05,  avg # of iterations =  2.0

     total cpu time spent up to now is       11.0 secs

     total energy              =     -55.79519699 Ry
     estimated scf accuracy    <       0.00071754 Ry

     total magnetization       =     2.28 Bohr mag/cell
     absolute magnetization    =     2.38 Bohr mag/cell

     iteration #  7     ecut=    30.00 Ry     beta= 0.50
     Davidson diagonalization with overlap
     ethr =  8.97E-06,  avg # of iterations =  1.3

     total cpu time spent up to now is       12.0 secs

     total energy              =     -55.79562822 Ry
     estimated scf accuracy    <       0.00068925 Ry

     total magnetization       =     2.27 Bohr mag/cell
     absolute magnetization    =     2.37 Bohr mag/cell

     iteration #  8     ecut=    30.00 Ry     beta= 0.50
     Davidson diagonalization with overlap
     ethr =  8.62E-06,  avg # of iterations =  1.3

     total cpu time spent up to now is       15.0 secs

     total energy              =     -55.79553414 Ry
     estimated scf accuracy    <       0.00038450 Ry

     total magnetization       =     2.20 Bohr mag/cell
     absolute magnetization    =     2.30 Bohr mag/cell

     iteration #  9     ecut=    30.00 Ry     beta= 0.50
     Davidson diagonalization with overlap
     ethr =  4.81E-06,  avg # of iterations =  1.9

     total cpu time spent up to now is       16.8 secs

     total energy              =     -55.79620884 Ry
     estimated scf accuracy    <       0.00004464 Ry

     total magnetization       =     2.08 Bohr mag/cell
     absolute magnetization    =     2.18 Bohr mag/cell

     iteration # 10     ecut=    30.00 Ry     beta= 0.50
     Davidson diagonalization with overlap
     ethr =  5.58E-07,  avg # of iterations =  2.4

     total cpu time spent up to now is       18.5 secs

     total energy              =     -55.79554563 Ry
     estimated scf accuracy    <       0.00007905 Ry

     total magnetization       =     2.13 Bohr mag/cell
     absolute magnetization    =     2.23 Bohr mag/cell

     iteration # 11     ecut=    30.00 Ry     beta= 0.50
     Davidson diagonalization with overlap
     ethr =  5.58E-07,  avg # of iterations =  2.6

     total cpu time spent up to now is       19.5 secs

     total energy              =     -55.79632460 Ry
     estimated scf accuracy    <       0.00032752 Ry

     total magnetization       =     2.05 Bohr mag/cell
     absolute magnetization    =     2.15 Bohr mag/cell

     iteration # 12     ecut=    30.00 Ry     beta= 0.50
     Davidson diagonalization with overlap
     ethr =  5.58E-07,  avg # of iterations =  1.9

     total cpu time spent up to now is       21.1 secs

     total energy              =     -55.79641746 Ry
     estimated scf accuracy    <       0.00001786 Ry

     total magnetization       =     2.08 Bohr mag/cell
     absolute magnetization    =     2.19 Bohr mag/cell

     iteration # 13     ecut=    30.00 Ry     beta= 0.50
     Davidson diagonalization with overlap
     ethr =  2.23E-07,  avg # of iterations =  1.4

     total cpu time spent up to now is       22.8 secs

     total energy              =     -55.79642428 Ry
     estimated scf accuracy    <       0.00000038 Ry

     total magnetization       =     2.09 Bohr mag/cell
     absolute magnetization    =     2.20 Bohr mag/cell

     iteration # 14     ecut=    30.00 Ry     beta= 0.50
     Davidson diagonalization with overlap
     ethr =  4.80E-09,  avg # of iterations =  4.4

     total cpu time spent up to now is       23.7 secs

     total energy              =     -55.79642331 Ry
     estimated scf accuracy    <       0.00000165 Ry

     total magnetization       =     2.09 Bohr mag/cell
     absolute magnetization    =     2.20 Bohr mag/cell

     iteration # 15     ecut=    30.00 Ry     beta= 0.50
     Davidson diagonalization with overlap
     ethr =  4.80E-09,  avg # of iterations =  1.4

     total cpu time spent up to now is       26.3 secs

     total energy              =     -55.79642535 Ry
     estimated scf accuracy    <       0.00000282 Ry

     total magnetization       =     2.09 Bohr mag/cell
     absolute magnetization    =     2.19 Bohr mag/cell

     iteration # 16     ecut=    30.00 Ry     beta= 0.50
     Davidson diagonalization with overlap
     ethr =  4.80E-09,  avg # of iterations =  1.4

     total cpu time spent up to now is       29.2 secs

     total energy              =     -55.79642636 Ry
     estimated scf accuracy    <       0.00000124 Ry

     total magnetization       =     2.09 Bohr mag/cell
     absolute magnetization    =     2.20 Bohr mag/cell

     iteration # 17     ecut=    30.00 Ry     beta= 0.50
     Davidson diagonalization with overlap
     ethr =  4.80E-09,  avg # of iterations =  1.7

     Magnetic moment per site  (integrated on atomic sphere of radius R)
     atom   1 (R=0.413)  charge=  6.4297  magn=  2.1365

     total cpu time spent up to now is       32.0 secs

     End of self-consistent calculation

 ------ SPIN UP ------------


          k = 0.0000 0.0000 0.0000 (   201 PWs)   bands (ev):

     5.5227  11.6684  11.6684  11.6684  12.8503  12.8503  39.0867  39.0867

          k = 0.1732 0.1732 0.0000 (   201 PWs)   bands (ev):

     7.1070  11.2591  11.5401  12.5283  12.6626  12.8953  32.5879  36.5992

          k = 0.3464 0.3464 0.0000 (   200 PWs)   bands (ev):

     8.9465  10.6412  12.8016  13.0219  13.4524  14.1540  23.8136  33.1159

          k = 0.3464 0.1732 0.1732 (   202 PWs)   bands (ev):

     9.2741  10.7926  11.1738  12.6688  13.1633  14.5422  28.2969  29.2440

          k = 0.5196 0.3464 0.1732 (   203 PWs)   bands (ev):

     9.6913  10.6349  11.6764  12.9494  13.4881  18.1269  21.9084  27.1804

          k = 0.3464 0.3464 0.3464 (   204 PWs)   bands (ev):

    10.5404  10.5404  10.9203  13.0607  13.0607  18.6180  25.4481  25.4481

          k = 0.0000 0.0000 0.3464 (   205 PWs)   bands (ev):

     8.4159  11.4789  11.8739  11.8739  12.5099  13.5275  32.8690  34.0018

          k = 0.0000-0.1732 0.5196 (   215 PWs)   bands (ev):

     9.6639  10.6303  11.6295  12.5366  14.0286  16.3300  24.7006  30.3186

          k =-0.6928-0.1732-0.1732 (   209 PWs)   bands (ev):

     9.9376   9.9376  11.6176  13.6760  13.6760  21.9448  21.9449  24.0224

          k = 0.0000 0.0000 0.6928 (   212 PWs)   bands (ev):

     9.3085   9.3113  13.5676  13.5676  13.9372  20.4384  25.8800  25.8801

 ------ SPIN DOWN ----------


          k = 0.0000 0.0000 0.0000 (   201 PWs)   bands (ev):

     5.6457  13.5986  13.5986  13.5986  15.8378  15.8378  38.8725  38.8726

          k = 0.1732 0.1732 0.0000 (   201 PWs)   bands (ev):

     7.2669  13.1088  13.4107  14.5400  15.4816  15.8918  33.0875  36.6974

          k = 0.3464 0.3464 0.0000 (   200 PWs)   bands (ev):

    10.0265  12.3817  13.9406  15.6145  16.0679  16.3624  24.8961  33.1949

          k = 0.3464 0.1732 0.1732 (   202 PWs)   bands (ev):

     9.8053  12.6087  12.7928  15.3316  16.0198  16.5743  29.0448  29.8293

          k = 0.5196 0.3464 0.1732 (   203 PWs)   bands (ev):

    11.1125  12.3106  13.1592  15.6182  16.1280  19.3595  23.1317  27.8051

          k = 0.3464 0.3464 0.3464 (   204 PWs)   bands (ev):

    11.9558  12.0758  12.0758  16.0758  16.0758  19.9416  26.2169  26.2169

          k = 0.0000 0.0000 0.3464 (   205 PWs)   bands (ev):

     8.7003  13.7367  13.7367  14.0486  14.5306  16.4303  33.4206  34.5384

          k = 0.0000-0.1732 0.5196 (   215 PWs)   bands (ev):

    11.0294  12.5607  13.4492  14.7424  16.2190  17.9901  25.6364  30.8327

          k =-0.6928-0.1732-0.1732 (   209 PWs)   bands (ev):

    11.8528  11.8528  13.3348  15.8505  15.8505  22.9410  22.9410  24.7515

          k = 0.0000 0.0000 0.6928 (   212 PWs)   bands (ev):

    11.1798  11.3576  15.6210  15.6210  16.1278  21.2280  26.2404  26.2404

     the Fermi energy is    14.0065 ev

!    total energy              =     -55.79642716 Ry
     estimated scf accuracy    <       0.00000002 Ry
     smearing contrib. (-TS)   =      -0.00032833 Ry
     internal energy E=F+TS    =     -55.79609883 Ry

     The total energy is F=E-TS. E is the sum of the following terms:
     one-electron contribution =       8.28715938 Ry
     hartree contribution      =       6.30155332 Ry
     xc contribution           =     -26.43935416 Ry
     ewald contribution        =     -43.94545736 Ry

     total magnetization       =     2.10 Bohr mag/cell
     absolute magnetization    =     2.20 Bohr mag/cell

     convergence has been achieved in  17 iterations

     Forces acting on atoms (cartesian axes, Ry/au):

     atom    1 type  1   force =     0.00000000    0.00000000    0.00000000
     The non-local contrib.  to forces
     atom    1 type  1   force =    -0.00000000    0.00000000   -0.00000000
     The ionic contribution  to forces
     atom    1 type  1   force =    -0.00000000   -0.00000000   -0.00000000
     The local contribution  to forces
     atom    1 type  1   force =     0.00000000   -0.00000000   -0.00000000
     The core correction contribution to forces
     atom    1 type  1   force =    -0.00000000   -0.00000000    0.00000000
     The Hubbard contrib.    to forces
     atom    1 type  1   force =     0.00000000    0.00000000    0.00000000
     The SCF correction term to forces
     atom    1 type  1   force =    -0.00000000   -0.00000000   -0.00000000

     Total force =     0.000000     Total SCF correction =     0.000000


     Computing stress (Cartesian axis) and pressure

          total   stress  (Ry/bohr**3)                   (kbar)     P=       56.18
   0.00038189  -0.00000000  -0.00000000           56.18       -0.00       -0.00
  -0.00000000   0.00038189  -0.00000000           -0.00       56.18       -0.00
  -0.00000000  -0.00000000   0.00038189           -0.00       -0.00       56.18


     BFGS Geometry Optimization
     Energy error            =      0.0E+00 Ry
     Gradient error          =      0.0E+00 Ry/Bohr
     Cell gradient error     =      5.6E+01 kbar

     number of scf cycles    =   1
     number of bfgs steps    =   0

     enthalpy           new  =     -55.7964271609 Ry

     new trust radius        =       0.0164744053 bohr
     new conv_thr            =       0.0000001000 Ry

     new unit-cell volume =     76.59100 a.u.^3 (    11.34962 Ang^3 )
     density =      8.17057 g/cm^3

CELL_PARAMETERS (angstrom)
  -1.415708087   1.415708087   1.415708087
   1.415708087  -1.415708087   1.415708087
   1.415708087   1.415708087  -1.415708087

ATOMIC_POSITIONS (angstrom)
Fe            0.0000000000        0.0000000000        0.0000000000



     Writing config-only to output data dir /home/gridsan/epan1/labutil/lab3_samples/problem1/Lab3/Fe_bcc_a_2.8046394196999995_ecut_30_nk_5/pwscf.save/
     NEW-OLD atomic charge density approx. for the potential
     extrapolated charge    8.22481, renormalised to    8.00000
     Generating pointlists ...

     total cpu time spent up to now is       35.6 secs

     Self-consistent Calculation

     iteration #  1     ecut=    30.00 Ry     beta= 0.50
     Davidson diagonalization with overlap
     ethr =  1.00E-06,  avg # of iterations =  4.7

     total cpu time spent up to now is       38.3 secs

     total energy              =     -55.76325225 Ry
     estimated scf accuracy    <       0.03524060 Ry

     total magnetization       =     2.00 Bohr mag/cell
     absolute magnetization    =     2.13 Bohr mag/cell

     iteration #  2     ecut=    30.00 Ry     beta= 0.50
     Davidson diagonalization with overlap
     ethr =  4.41E-04,  avg # of iterations =  2.4

     total cpu time spent up to now is       41.3 secs

     total energy              =     -55.79261561 Ry
     estimated scf accuracy    <       0.10622892 Ry

     total magnetization       =     2.25 Bohr mag/cell
     absolute magnetization    =     2.38 Bohr mag/cell

     iteration #  3     ecut=    30.00 Ry     beta= 0.50
     Davidson diagonalization with overlap
     ethr =  4.41E-04,  avg # of iterations =  1.1

     total cpu time spent up to now is       42.1 secs

     total energy              =     -55.79887963 Ry
     estimated scf accuracy    <       0.01461145 Ry

     total magnetization       =     2.25 Bohr mag/cell
     absolute magnetization    =     2.31 Bohr mag/cell

     iteration #  4     ecut=    30.00 Ry     beta= 0.50
     Davidson diagonalization with overlap
     ethr =  1.83E-04,  avg # of iterations =  1.0

     total cpu time spent up to now is       42.6 secs

     total energy              =     -55.79460667 Ry
     estimated scf accuracy    <       0.01027392 Ry

     total magnetization       =     2.24 Bohr mag/cell
     absolute magnetization    =     2.30 Bohr mag/cell

     iteration #  5     ecut=    30.00 Ry     beta= 0.50
     Davidson diagonalization with overlap
     ethr =  1.28E-04,  avg # of iterations =  1.4

     total cpu time spent up to now is       43.6 secs

     total energy              =     -55.79706054 Ry
     estimated scf accuracy    <       0.00044193 Ry

     total magnetization       =     2.15 Bohr mag/cell
     absolute magnetization    =     2.25 Bohr mag/cell

     iteration #  6     ecut=    30.00 Ry     beta= 0.50
     Davidson diagonalization with overlap
     ethr =  5.52E-06,  avg # of iterations =  2.0

     total cpu time spent up to now is       45.0 secs

     total energy              =     -55.79691821 Ry
     estimated scf accuracy    <       0.00139235 Ry

     total magnetization       =     2.13 Bohr mag/cell
     absolute magnetization    =     2.24 Bohr mag/cell

     iteration #  7     ecut=    30.00 Ry     beta= 0.50
     Davidson diagonalization with overlap
     ethr =  5.52E-06,  avg # of iterations =  1.1

     total cpu time spent up to now is       47.6 secs

     total energy              =     -55.79677904 Ry
     estimated scf accuracy    <       0.00038801 Ry

     total magnetization       =     2.14 Bohr mag/cell
     absolute magnetization    =     2.25 Bohr mag/cell

     iteration #  8     ecut=    30.00 Ry     beta= 0.50
     Davidson diagonalization with overlap
     ethr =  4.85E-06,  avg # of iterations =  1.8

     total cpu time spent up to now is       48.7 secs

     total energy              =     -55.79689249 Ry
     estimated scf accuracy    <       0.00007078 Ry

     total magnetization       =     2.16 Bohr mag/cell
     absolute magnetization    =     2.26 Bohr mag/cell

     iteration #  9     ecut=    30.00 Ry     beta= 0.50
     Davidson diagonalization with overlap
     ethr =  8.85E-07,  avg # of iterations =  1.0

     total cpu time spent up to now is       51.2 secs

     total energy              =     -55.79689772 Ry
     estimated scf accuracy    <       0.00000464 Ry

     total magnetization       =     2.16 Bohr mag/cell
     absolute magnetization    =     2.26 Bohr mag/cell

     iteration # 10     ecut=    30.00 Ry     beta= 0.50
     Davidson diagonalization with overlap
     ethr =  5.80E-08,  avg # of iterations =  1.9

     total cpu time spent up to now is       52.8 secs

     total energy              =     -55.79689911 Ry
     estimated scf accuracy    <       0.00000319 Ry

     total magnetization       =     2.15 Bohr mag/cell
     absolute magnetization    =     2.26 Bohr mag/cell

     iteration # 11     ecut=    30.00 Ry     beta= 0.50
     Davidson diagonalization with overlap
     ethr =  3.99E-08,  avg # of iterations =  1.0

     Magnetic moment per site  (integrated on atomic sphere of radius R)
     atom   1 (R=0.413)  charge=  6.3973  magn=  2.1960

     total cpu time spent up to now is       54.3 secs

     End of self-consistent calculation

 ------ SPIN UP ------------


          k = 0.0000 0.0000 0.0000 (   201 PWs)   bands (ev):

     5.1676  11.2174  11.2174  11.2174  12.3345  12.3345  38.3000  38.3000

          k = 0.1716 0.1716 0.0000 (   201 PWs)   bands (ev):

     6.7209  10.8261  11.0930  12.0423  12.1580  12.3773  31.7437  35.7790

          k = 0.3431 0.3431 0.0000 (   200 PWs)   bands (ev):

     8.5782  10.2341  12.2908  12.4967  12.9414  13.6001  23.0260  32.3454

          k = 0.3431 0.1716 0.1716 (   202 PWs)   bands (ev):

     8.8685  10.3755  10.7406  12.1668  12.6337  13.9764  27.4993  28.3880

          k = 0.5147 0.3431 0.1716 (   203 PWs)   bands (ev):

     9.3088  10.2263  11.2178  12.4342  12.9540  17.4953  21.1448  26.3723

          k = 0.3431 0.3431 0.3431 (   204 PWs)   bands (ev):

    10.1339  10.1339  10.4884  12.5344  12.5344  17.9543  24.6916  24.6916

          k = 0.0000 0.0000 0.3431 (   205 PWs)   bands (ev):

     8.0103  11.0281  11.4159  11.4159  12.0257  12.9794  32.0802  33.0791

          k = 0.0000-0.1716 0.5147 (   215 PWs)   bands (ev):

     9.2765  10.2110  11.1824  12.0462  13.4803  15.7171  23.9126  29.4486

          k =-0.6863-0.1716-0.1716 (   209 PWs)   bands (ev):

     9.5482   9.5482  11.1694  13.1418  13.1418  21.2331  21.2331  23.2258

          k = 0.0000 0.0000 0.6863 (   212 PWs)   bands (ev):

     8.9431   8.9501  13.0400  13.0400  13.3930  19.7536  25.1099  25.1099

 ------ SPIN DOWN ----------


          k = 0.0000 0.0000 0.0000 (   201 PWs)   bands (ev):

     5.2933  13.2049  13.2049  13.2049  15.3841  15.3841  38.0772  38.0772

          k = 0.1716 0.1716 0.0000 (   201 PWs)   bands (ev):

     6.8823  12.7320  13.0206  14.1131  15.0395  15.4359  32.2531  35.8812

          k = 0.3431 0.3431 0.0000 (   200 PWs)   bands (ev):

     9.6734  12.0289  13.4647  15.1613  15.6043  15.8715  24.1291  32.4293

          k = 0.3431 0.1716 0.1716 (   202 PWs)   bands (ev):

     9.3985  12.2441  12.4166  14.8919  15.5510  16.0710  28.2577  28.9882

          k = 0.5147 0.3431 0.1716 (   203 PWs)   bands (ev):

    10.7680  11.9535  12.7339  15.1654  15.6556  18.7566  22.3963  27.0108

          k = 0.3431 0.3431 0.3431 (   204 PWs)   bands (ev):

    11.5507  11.7169  11.7169  15.6110  15.6110  19.3167  25.4769  25.4769

          k = 0.0000 0.0000 0.3431 (   205 PWs)   bands (ev):

     8.2948  13.3353  13.3353  13.6599  14.1059  15.9454  32.6309  33.6276

          k = 0.0000-0.1716 0.5147 (   215 PWs)   bands (ev):

    10.6613  12.1926  13.0577  14.3127  15.7335  17.4190  24.8631  29.9709

          k =-0.6863-0.1716-0.1716 (   209 PWs)   bands (ev):

    11.5109  11.5109  12.9384  15.3779  15.3779  22.2431  22.2431  23.9731

          k = 0.0000 0.0000 0.6863 (   212 PWs)   bands (ev):

    10.8611  11.0513  15.1537  15.1537  15.6464  20.5563  25.4745  25.4745

     the Fermi energy is    13.4925 ev

!    total energy              =     -55.79689960 Ry
     estimated scf accuracy    <       0.00000004 Ry
     smearing contrib. (-TS)   =      -0.00032901 Ry
     internal energy E=F+TS    =     -55.79657059 Ry

     The total energy is F=E-TS. E is the sum of the following terms:
     one-electron contribution =       7.69872663 Ry
     hartree contribution      =       6.46325806 Ry
     xc contribution           =     -26.42869090 Ry
     ewald contribution        =     -43.52986438 Ry

     total magnetization       =     2.16 Bohr mag/cell
     absolute magnetization    =     2.26 Bohr mag/cell

     convergence has been achieved in  11 iterations

     Forces acting on atoms (cartesian axes, Ry/au):

     atom    1 type  1   force =     0.00000000    0.00000000    0.00000000
     The non-local contrib.  to forces
     atom    1 type  1   force =     0.00000000   -0.00000000    0.00000000
     The ionic contribution  to forces
     atom    1 type  1   force =    -0.00000000   -0.00000000   -0.00000000
     The local contribution  to forces
     atom    1 type  1   force =    -0.00000000   -0.00000000    0.00000000
     The core correction contribution to forces
     atom    1 type  1   force =    -0.00000000   -0.00000000    0.00000000
     The Hubbard contrib.    to forces
     atom    1 type  1   force =     0.00000000    0.00000000    0.00000000
     The SCF correction term to forces
     atom    1 type  1   force =    -0.00000000    0.00000000    0.00000000

     Total force =     0.000000     Total SCF correction =     0.000000


     Computing stress (Cartesian axis) and pressure

          total   stress  (Ry/bohr**3)                   (kbar)     P=        5.14
   0.00003492   0.00000000   0.00000000            5.14        0.00        0.00
   0.00000000   0.00003492   0.00000000            0.00        5.14        0.00
   0.00000000   0.00000000   0.00003492            0.00        0.00        5.14

     Energy error            =      4.7E-04 Ry
     Gradient error          =      0.0E+00 Ry/Bohr
     Cell gradient error     =      5.1E+00 kbar

     number of scf cycles    =   2
     number of bfgs steps    =   1

     enthalpy           old  =     -55.7964271609 Ry
     enthalpy           new  =     -55.7968996011 Ry

     CASE: enthalpy          _new < enthalpy          _old

     new trust radius        =       0.0017013619 bohr
     new conv_thr            =       0.0000000010 Ry

     new unit-cell volume =     76.81456 a.u.^3 (    11.38274 Ang^3 )
     density =      8.14679 g/cm^3

CELL_PARAMETERS (angstrom)
  -1.417084192   1.417084192   1.417084192
   1.417084192  -1.417084192   1.417084192
   1.417084192   1.417084192  -1.417084192

ATOMIC_POSITIONS (angstrom)
Fe            0.0000000000        0.0000000000        0.0000000000



     Writing config-only to output data dir /home/gridsan/epan1/labutil/lab3_samples/problem1/Lab3/Fe_bcc_a_2.8046394196999995_ecut_30_nk_5/pwscf.save/
     NEW-OLD atomic charge density approx. for the potential
     extrapolated charge    8.02328, renormalised to    8.00000
     Generating pointlists ...

     total cpu time spent up to now is       57.5 secs

     Self-consistent Calculation

     iteration #  1     ecut=    30.00 Ry     beta= 0.50
     Davidson diagonalization with overlap
     ethr =  1.00E-06,  avg # of iterations =  2.2

     total cpu time spent up to now is       59.5 secs

     total energy              =     -55.79633213 Ry
     estimated scf accuracy    <       0.00067359 Ry

     total magnetization       =     2.12 Bohr mag/cell
     absolute magnetization    =     2.24 Bohr mag/cell

     iteration #  2     ecut=    30.00 Ry     beta= 0.50
     Davidson diagonalization with overlap
     ethr =  8.42E-06,  avg # of iterations =  2.2

     total cpu time spent up to now is       61.4 secs

     total energy              =     -55.79682779 Ry
     estimated scf accuracy    <       0.00214878 Ry

     total magnetization       =     2.21 Bohr mag/cell
     absolute magnetization    =     2.29 Bohr mag/cell

     iteration #  3     ecut=    30.00 Ry     beta= 0.50
     Davidson diagonalization with overlap
     ethr =  8.42E-06,  avg # of iterations =  1.2

     total cpu time spent up to now is       63.2 secs

     total energy              =     -55.79678615 Ry
     estimated scf accuracy    <       0.00028664 Ry

     total magnetization       =     2.18 Bohr mag/cell
     absolute magnetization    =     2.28 Bohr mag/cell

     iteration #  4     ecut=    30.00 Ry     beta= 0.50
     Davidson diagonalization with overlap
     ethr =  3.58E-06,  avg # of iterations =  2.0

     total cpu time spent up to now is       65.0 secs

     total energy              =     -55.79694727 Ry
     estimated scf accuracy    <       0.00030605 Ry

     total magnetization       =     2.14 Bohr mag/cell
     absolute magnetization    =     2.26 Bohr mag/cell

     iteration #  5     ecut=    30.00 Ry     beta= 0.50
     Davidson diagonalization with overlap
     ethr =  3.58E-06,  avg # of iterations =  1.0

     total cpu time spent up to now is       66.7 secs

     total energy              =     -55.79691788 Ry
     estimated scf accuracy    <       0.00020025 Ry

     total magnetization       =     2.15 Bohr mag/cell
     absolute magnetization    =     2.26 Bohr mag/cell

     iteration #  6     ecut=    30.00 Ry     beta= 0.50
     Davidson diagonalization with overlap
     ethr =  2.50E-06,  avg # of iterations =  1.0

     total cpu time spent up to now is       68.9 secs

     total energy              =     -55.79688385 Ry
     estimated scf accuracy    <       0.00007458 Ry

     total magnetization       =     2.16 Bohr mag/cell
     absolute magnetization    =     2.26 Bohr mag/cell

     iteration #  7     ecut=    30.00 Ry     beta= 0.50
     Davidson diagonalization with overlap
     ethr =  9.32E-07,  avg # of iterations =  1.6

     total cpu time spent up to now is       70.3 secs

     total energy              =     -55.79690867 Ry
     estimated scf accuracy    <       0.00002196 Ry

     total magnetization       =     2.17 Bohr mag/cell
     absolute magnetization    =     2.27 Bohr mag/cell

     iteration #  8     ecut=    30.00 Ry     beta= 0.50
     Davidson diagonalization with overlap
     ethr =  2.74E-07,  avg # of iterations =  1.0

     total cpu time spent up to now is       72.4 secs

     total energy              =     -55.79690875 Ry
     estimated scf accuracy    <       0.00000896 Ry

     total magnetization       =     2.17 Bohr mag/cell
     absolute magnetization    =     2.27 Bohr mag/cell

     iteration #  9     ecut=    30.00 Ry     beta= 0.50
     Davidson diagonalization with overlap
     ethr =  1.12E-07,  avg # of iterations =  1.0

     total cpu time spent up to now is       73.9 secs

     total energy              =     -55.79690778 Ry
     estimated scf accuracy    <       0.00000662 Ry

     total magnetization       =     2.17 Bohr mag/cell
     absolute magnetization    =     2.27 Bohr mag/cell

     iteration # 10     ecut=    30.00 Ry     beta= 0.50
     Davidson diagonalization with overlap
     ethr =  8.28E-08,  avg # of iterations =  1.0

     total cpu time spent up to now is       75.4 secs

     total energy              =     -55.79690701 Ry
     estimated scf accuracy    <       0.00000240 Ry

     total magnetization       =     2.17 Bohr mag/cell
     absolute magnetization    =     2.27 Bohr mag/cell

     iteration # 11     ecut=    30.00 Ry     beta= 0.50
     Davidson diagonalization with overlap
     ethr =  3.01E-08,  avg # of iterations =  1.1

     total cpu time spent up to now is       77.3 secs

     total energy              =     -55.79690746 Ry
     estimated scf accuracy    <       0.00000002 Ry

     total magnetization       =     2.16 Bohr mag/cell
     absolute magnetization    =     2.27 Bohr mag/cell

     iteration # 12     ecut=    30.00 Ry     beta= 0.50
     Davidson diagonalization with overlap
     ethr =  2.52E-10,  avg # of iterations =  4.8

     Magnetic moment per site  (integrated on atomic sphere of radius R)
     atom   1 (R=0.413)  charge=  6.3944  magn=  2.2046

     total cpu time spent up to now is       79.8 secs

     End of self-consistent calculation

 ------ SPIN UP ------------


          k = 0.0000 0.0000 0.0000 (   201 PWs)   bands (ev):

     5.1309  11.1702  11.1702  11.1702  12.2826  12.2826  38.2191  38.2191

          k = 0.1714 0.1714 0.0000 (   201 PWs)   bands (ev):

     6.6811  10.7808  11.0466  11.9917  12.1069  12.3251  31.6573  35.6950

          k = 0.3428 0.3428 0.0000 (   200 PWs)   bands (ev):

     8.5399  10.1914  12.2390  12.4439  12.8887  13.5426  22.9455  32.2664

          k = 0.3428 0.1714 0.1714 (   202 PWs)   bands (ev):

     8.8265  10.3323  10.6954  12.1156  12.5802  13.9180  27.4178  28.3004

          k = 0.5142 0.3428 0.1714 (   203 PWs)   bands (ev):

     9.2691  10.1836  11.1709  12.3817  12.8993  17.4306  21.0668  26.2897

          k = 0.3428 0.3428 0.3428 (   204 PWs)   bands (ev):

    10.0914  10.0914  10.4435  12.4813  12.4813  17.8862  24.6142  24.6142

          k = 0.0000 0.0000 0.3428 (   205 PWs)   bands (ev):

     7.9686  10.9825  11.3681  11.3681  11.9752  12.9241  31.9998  32.9845

          k = 0.0000-0.1714 0.5142 (   215 PWs)   bands (ev):

     9.2368  10.1684  11.1356  11.9956  13.4235  15.6547  23.8321  29.3596

          k =-0.6856-0.1714-0.1714 (   209 PWs)   bands (ev):

     9.5086   9.5086  11.1226  13.0865  13.0865  21.1605  21.1605  23.1443

          k = 0.0000 0.0000 0.6856 (   212 PWs)   bands (ev):

     8.9059   8.9134  12.9852  12.9852  13.3365  19.6837  25.0310  25.0310

 ------ SPIN DOWN ----------


          k = 0.0000 0.0000 0.0000 (   201 PWs)   bands (ev):

     5.2590  13.1686  13.1686  13.1686  15.3399  15.3399  37.9976  37.9976

          k = 0.1714 0.1714 0.0000 (   201 PWs)   bands (ev):

     6.8448  12.6974  12.9844  14.0736  14.9966  15.3915  32.1702  35.7995

          k = 0.3428 0.3428 0.0000 (   200 PWs)   bands (ev):

     9.6394  11.9965  13.4185  15.1178  15.5592  15.8259  24.0538  32.3526

          k = 0.3428 0.1714 0.1714 (   202 PWs)   bands (ev):

     9.3588  12.2100  12.3818  14.8496  15.5061  16.0231  28.1799  28.9048

          k = 0.5142 0.3428 0.1714 (   203 PWs)   bands (ev):

    10.7354  11.9204  12.6929  15.1220  15.6103  18.6983  22.3244  26.9322

          k = 0.3428 0.3428 0.3428 (   204 PWs)   bands (ev):

    11.5120  11.6835  11.6835  15.5658  15.5658  19.2566  25.4043  25.4043

          k = 0.0000 0.0000 0.3428 (   205 PWs)   bands (ev):

     8.2551  13.2981  13.2981  13.6220  14.0667  15.8982  32.5522  33.5374

          k = 0.0000-0.1714 0.5142 (   215 PWs)   bands (ev):

    10.6256  12.1569  13.0215  14.2721  15.6884  17.3631  24.7870  29.8857

          k =-0.6856-0.1714-0.1714 (   209 PWs)   bands (ev):

    11.4777  11.4777  12.9015  15.3338  15.3338  22.1744  22.1744  23.8965

          k = 0.0000 0.0000 0.6856 (   212 PWs)   bands (ev):

    10.8301  11.0215  15.1102  15.1102  15.6017  20.4900  25.3988  25.3988

     the Fermi energy is    13.4407 ev

!    total energy              =     -55.79690749 Ry
     estimated scf accuracy    <          4.7E-10 Ry
     smearing contrib. (-TS)   =      -0.00032617 Ry
     internal energy E=F+TS    =     -55.79658132 Ry

     The total energy is F=E-TS. E is the sum of the following terms:
     one-electron contribution =       7.63852585 Ry
     hartree contribution      =       6.48065537 Ry
     xc contribution           =     -26.42816923 Ry
     ewald contribution        =     -43.48759331 Ry

     total magnetization       =     2.16 Bohr mag/cell
     absolute magnetization    =     2.27 Bohr mag/cell

     convergence has been achieved in  12 iterations

     Forces acting on atoms (cartesian axes, Ry/au):

     atom    1 type  1   force =     0.00000000    0.00000000    0.00000000
     The non-local contrib.  to forces
     atom    1 type  1   force =     0.00000000    0.00000000    0.00000000
     The ionic contribution  to forces
     atom    1 type  1   force =    -0.00000000   -0.00000000   -0.00000000
     The local contribution  to forces
     atom    1 type  1   force =    -0.00000000   -0.00000000    0.00000000
     The core correction contribution to forces
     atom    1 type  1   force =     0.00000000    0.00000000   -0.00000000
     The Hubbard contrib.    to forces
     atom    1 type  1   force =     0.00000000    0.00000000    0.00000000
     The SCF correction term to forces
     atom    1 type  1   force =    -0.00000000    0.00000000    0.00000000

     Total force =     0.000000     Total SCF correction =     0.000000


     Computing stress (Cartesian axis) and pressure

          total   stress  (Ry/bohr**3)                   (kbar)     P=        2.34
   0.00001589   0.00000000   0.00000000            2.34        0.00        0.00
   0.00000000   0.00001589   0.00000000            0.00        2.34        0.00
   0.00000000   0.00000000   0.00001589            0.00        0.00        2.34

     Energy error            =      7.9E-06 Ry
     Gradient error          =      0.0E+00 Ry/Bohr
     Cell gradient error     =      2.3E+00 kbar

     number of scf cycles    =   3
     number of bfgs steps    =   2

     enthalpy           old  =     -55.7968996011 Ry
     enthalpy           new  =     -55.7969074894 Ry

     CASE: enthalpy          _new < enthalpy          _old

     new trust radius        =       0.0014258092 bohr
     new conv_thr            =       0.0000000010 Ry

     new unit-cell volume =     77.00216 a.u.^3 (    11.41054 Ang^3 )
     density =      8.12694 g/cm^3

CELL_PARAMETERS (angstrom)
  -1.418236863   1.418236863   1.418236863
   1.418236863  -1.418236863   1.418236863
   1.418236863   1.418236863  -1.418236863

ATOMIC_POSITIONS (angstrom)
Fe            0.0000000000        0.0000000000        0.0000000000



     Writing config-only to output data dir /home/gridsan/epan1/labutil/lab3_samples/problem1/Lab3/Fe_bcc_a_2.8046394196999995_ecut_30_nk_5/pwscf.save/
     NEW-OLD atomic charge density approx. for the potential
     extrapolated charge    8.01949, renormalised to    8.00000
     Generating pointlists ...

     total cpu time spent up to now is       82.2 secs

     Self-consistent Calculation

     iteration #  1     ecut=    30.00 Ry     beta= 0.50
     Davidson diagonalization with overlap
     ethr =  1.00E-06,  avg # of iterations =  2.1

     total cpu time spent up to now is       84.0 secs

     total energy              =     -55.79649419 Ry
     estimated scf accuracy    <       0.00049078 Ry

     total magnetization       =     2.13 Bohr mag/cell
     absolute magnetization    =     2.25 Bohr mag/cell

     iteration #  2     ecut=    30.00 Ry     beta= 0.50
     Davidson diagonalization with overlap
     ethr =  6.13E-06,  avg # of iterations =  2.1

     total cpu time spent up to now is       85.1 secs

     total energy              =     -55.79684973 Ry
     estimated scf accuracy    <       0.00154431 Ry

     total magnetization       =     2.21 Bohr mag/cell
     absolute magnetization    =     2.30 Bohr mag/cell

     iteration #  3     ecut=    30.00 Ry     beta= 0.50
     Davidson diagonalization with overlap
     ethr =  6.13E-06,  avg # of iterations =  1.1

     total cpu time spent up to now is       86.1 secs

     total energy              =     -55.79682511 Ry
     estimated scf accuracy    <       0.00020196 Ry

     total magnetization       =     2.18 Bohr mag/cell
     absolute magnetization    =     2.28 Bohr mag/cell

     iteration #  4     ecut=    30.00 Ry     beta= 0.50
     Davidson diagonalization with overlap
     ethr =  2.52E-06,  avg # of iterations =  2.0

     total cpu time spent up to now is       87.8 secs

     total energy              =     -55.79693727 Ry
     estimated scf accuracy    <       0.00019377 Ry

     total magnetization       =     2.15 Bohr mag/cell
     absolute magnetization    =     2.27 Bohr mag/cell

     iteration #  5     ecut=    30.00 Ry     beta= 0.50
     Davidson diagonalization with overlap
     ethr =  2.42E-06,  avg # of iterations =  1.0

     total cpu time spent up to now is       88.2 secs

     total energy              =     -55.79691957 Ry
     estimated scf accuracy    <       0.00014126 Ry

     total magnetization       =     2.16 Bohr mag/cell
     absolute magnetization    =     2.27 Bohr mag/cell

     iteration #  6     ecut=    30.00 Ry     beta= 0.50
     Davidson diagonalization with overlap
     ethr =  1.77E-06,  avg # of iterations =  1.0

     total cpu time spent up to now is       88.4 secs

     total energy              =     -55.79688801 Ry
     estimated scf accuracy    <       0.00006439 Ry

     total magnetization       =     2.16 Bohr mag/cell
     absolute magnetization    =     2.27 Bohr mag/cell

     iteration #  7     ecut=    30.00 Ry     beta= 0.50
     Davidson diagonalization with overlap
     ethr =  8.05E-07,  avg # of iterations =  1.6

     total cpu time spent up to now is       90.1 secs

     total energy              =     -55.79691004 Ry
     estimated scf accuracy    <       0.00002014 Ry

     total magnetization       =     2.18 Bohr mag/cell
     absolute magnetization    =     2.28 Bohr mag/cell

     iteration #  8     ecut=    30.00 Ry     beta= 0.50
     Davidson diagonalization with overlap
     ethr =  2.52E-07,  avg # of iterations =  1.0

     total cpu time spent up to now is       90.5 secs

     total energy              =     -55.79690962 Ry
     estimated scf accuracy    <       0.00000908 Ry

     total magnetization       =     2.18 Bohr mag/cell
     absolute magnetization    =     2.28 Bohr mag/cell

     iteration #  9     ecut=    30.00 Ry     beta= 0.50
     Davidson diagonalization with overlap
     ethr =  1.13E-07,  avg # of iterations =  1.0

     total cpu time spent up to now is       90.8 secs

     total energy              =     -55.79690813 Ry
     estimated scf accuracy    <       0.00000531 Ry

     total magnetization       =     2.17 Bohr mag/cell
     absolute magnetization    =     2.28 Bohr mag/cell

     iteration # 10     ecut=    30.00 Ry     beta= 0.50
     Davidson diagonalization with overlap
     ethr =  6.64E-08,  avg # of iterations =  1.0

     total cpu time spent up to now is       93.6 secs

     total energy              =     -55.79690856 Ry
     estimated scf accuracy    <       0.00000025 Ry

     total magnetization       =     2.17 Bohr mag/cell
     absolute magnetization    =     2.28 Bohr mag/cell

     iteration # 11     ecut=    30.00 Ry     beta= 0.50
     Davidson diagonalization with overlap
     ethr =  3.16E-09,  avg # of iterations =  1.9

     total cpu time spent up to now is       96.4 secs

     total energy              =     -55.79690862 Ry
     estimated scf accuracy    <          5.7E-09 Ry

     total magnetization       =     2.17 Bohr mag/cell
     absolute magnetization    =     2.28 Bohr mag/cell

     iteration # 12     ecut=    30.00 Ry     beta= 0.50
     Davidson diagonalization with overlap
     ethr =  7.13E-11,  avg # of iterations =  4.0

     Magnetic moment per site  (integrated on atomic sphere of radius R)
     atom   1 (R=0.413)  charge=  6.3919  magn=  2.2114

     total cpu time spent up to now is       97.7 secs

     End of self-consistent calculation

 ------ SPIN UP ------------


          k = 0.0000 0.0000 0.0000 (   201 PWs)   bands (ev):

     5.1011  11.1314  11.1314  11.1314  12.2397  12.2397  38.1525  38.1525

          k = 0.1713 0.1713 0.0000 (   201 PWs)   bands (ev):

     6.6486  10.7435  11.0084  11.9499  12.0646  12.2820  31.5859  35.6256

          k = 0.3425 0.3425 0.0000 (   200 PWs)   bands (ev):

     8.5086  10.1563  12.1961  12.4001  12.8455  13.4952  22.8790  32.2014

          k = 0.3425 0.1713 0.1713 (   202 PWs)   bands (ev):

     8.7922  10.2968  10.6582  12.0733  12.5359  13.8698  27.3505  28.2279

          k = 0.5138 0.3425 0.1713 (   203 PWs)   bands (ev):

     9.2365  10.1485  11.1323  12.3383  12.8542  17.3773  21.0022  26.2214

          k = 0.3425 0.3425 0.3425 (   204 PWs)   bands (ev):

    10.0565  10.0565  10.4066  12.4374  12.4374  17.8300  24.5504  24.5504

          k = 0.0000 0.0000 0.3425 (   205 PWs)   bands (ev):

     7.9345  10.9449  11.3287  11.3287  11.9336  12.8784  31.9334  32.9063

          k = 0.0000-0.1713 0.5138 (   215 PWs)   bands (ev):

     9.2041  10.1333  11.0971  11.9538  13.3765  15.6032  23.7656  29.2859

          k =-0.6850-0.1713-0.1713 (   209 PWs)   bands (ev):

     9.4760   9.4760  11.0840  13.0408  13.0408  21.1006  21.1006  23.0769

          k = 0.0000 0.0000 0.6850 (   212 PWs)   bands (ev):

     8.8753   8.8832  12.9399  12.9399  13.2898  19.6260  24.9658  24.9658

 ------ SPIN DOWN ----------


          k = 0.0000 0.0000 0.0000 (   201 PWs)   bands (ev):

     5.2298  13.1375  13.1375  13.1375  15.3024  15.3024  37.9305  37.9305

          k = 0.1713 0.1713 0.0000 (   201 PWs)   bands (ev):

     6.8129  12.6676  12.9534  14.0398  14.9601  15.3538  32.1003  35.7305

          k = 0.3425 0.3425 0.0000 (   200 PWs)   bands (ev):

     9.6104  11.9686  13.3793  15.0808  15.5209  15.7869  23.9903  32.2879

          k = 0.3425 0.1713 0.1713 (   202 PWs)   bands (ev):

     9.3251  12.1807  12.3519  14.8136  15.4680  15.9823  28.1143  28.8345

          k = 0.5138 0.3425 0.1713 (   203 PWs)   bands (ev):

    10.7075  11.8920  12.6579  15.0850  15.5718  18.6489  22.2637  26.8660

          k = 0.3425 0.3425 0.3425 (   204 PWs)   bands (ev):

    11.4790  11.6548  11.6548  15.5275  15.5275  19.2056  25.3428  25.3428

          k = 0.0000 0.0000 0.3425 (   205 PWs)   bands (ev):

     8.2214  13.2663  13.2663  13.5898  14.0331  15.8581  32.4858  33.4615

          k = 0.0000-0.1713 0.5138 (   215 PWs)   bands (ev):

    10.5951  12.1264  12.9905  14.2374  15.6499  17.3159  24.7228  29.8140

          k =-0.6850-0.1713-0.1713 (   209 PWs)   bands (ev):

    11.4494  11.4494  12.8699  15.2960  15.2960  22.1165  22.1165  23.8319

          k = 0.0000 0.0000 0.6850 (   212 PWs)   bands (ev):

    10.8036  10.9961  15.0730  15.0730  15.5635  20.4342  25.3351  25.3351

     the Fermi energy is    13.3975 ev

!    total energy              =     -55.79690863 Ry
     estimated scf accuracy    <          1.3E-11 Ry
     smearing contrib. (-TS)   =      -0.00032263 Ry
     internal energy E=F+TS    =     -55.79658600 Ry

     The total energy is F=E-TS. E is the sum of the following terms:
     one-electron contribution =       7.58833771 Ry
     hartree contribution      =       6.49491242 Ry
     xc contribution           =     -26.42758732 Ry
     ewald contribution        =     -43.45224881 Ry

     total magnetization       =     2.17 Bohr mag/cell
     absolute magnetization    =     2.28 Bohr mag/cell

     convergence has been achieved in  12 iterations

     Forces acting on atoms (cartesian axes, Ry/au):

     atom    1 type  1   force =     0.00000000    0.00000000    0.00000000
     The non-local contrib.  to forces
     atom    1 type  1   force =     0.00000000    0.00000000    0.00000000
     The ionic contribution  to forces
     atom    1 type  1   force =    -0.00000000   -0.00000000   -0.00000000
     The local contribution  to forces
     atom    1 type  1   force =    -0.00000000   -0.00000000    0.00000000
     The core correction contribution to forces
     atom    1 type  1   force =    -0.00000000   -0.00000000    0.00000000
     The Hubbard contrib.    to forces
     atom    1 type  1   force =     0.00000000    0.00000000    0.00000000
     The SCF correction term to forces
     atom    1 type  1   force =    -0.00000000    0.00000000    0.00000000

     Total force =     0.000000     Total SCF correction =     0.000000


     Computing stress (Cartesian axis) and pressure

          total   stress  (Ry/bohr**3)                   (kbar)     P=       -0.96
  -0.00000656   0.00000000   0.00000000           -0.96        0.00        0.00
   0.00000000  -0.00000656   0.00000000            0.00       -0.96        0.00
   0.00000000   0.00000000  -0.00000656            0.00        0.00       -0.96

     Energy error            =      1.1E-06 Ry
     Gradient error          =      0.0E+00 Ry/Bohr
     Cell gradient error     =      9.6E-01 kbar

     number of scf cycles    =   4
     number of bfgs steps    =   3

     enthalpy           old  =     -55.7969074894 Ry
     enthalpy           new  =     -55.7969086296 Ry

     CASE: enthalpy          _new < enthalpy          _old

     new trust radius        =       0.0004172753 bohr
     new conv_thr            =       0.0000000010 Ry

     new unit-cell volume =     76.94725 a.u.^3 (    11.40241 Ang^3 )
     density =      8.13274 g/cm^3

CELL_PARAMETERS (angstrom)
  -1.417899661   1.417899661   1.417899661
   1.417899661  -1.417899661   1.417899661
   1.417899661   1.417899661  -1.417899661

ATOMIC_POSITIONS (angstrom)
Fe            0.0000000000        0.0000000000        0.0000000000



     Writing config-only to output data dir /home/gridsan/epan1/labutil/lab3_samples/problem1/Lab3/Fe_bcc_a_2.8046394196999995_ecut_30_nk_5/pwscf.save/
     NEW-OLD atomic charge density approx. for the potential
     extrapolated charge    7.99429, renormalised to    8.00000
     Generating pointlists ...

     total cpu time spent up to now is      100.3 secs

     Self-consistent Calculation

     iteration #  1     ecut=    30.00 Ry     beta= 0.50
     Davidson diagonalization with overlap
     ethr =  1.00E-06,  avg # of iterations =  2.0

     total cpu time spent up to now is      102.1 secs

     total energy              =     -55.79687225 Ry
     estimated scf accuracy    <       0.00004360 Ry

     total magnetization       =     2.18 Bohr mag/cell
     absolute magnetization    =     2.28 Bohr mag/cell

     iteration #  2     ecut=    30.00 Ry     beta= 0.50
     Davidson diagonalization with overlap
     ethr =  5.45E-07,  avg # of iterations =  2.1

     total cpu time spent up to now is      103.9 secs

     total energy              =     -55.79690351 Ry
     estimated scf accuracy    <       0.00013612 Ry

     total magnetization       =     2.16 Bohr mag/cell
     absolute magnetization    =     2.27 Bohr mag/cell

     iteration #  3     ecut=    30.00 Ry     beta= 0.50
     Davidson diagonalization with overlap
     ethr =  5.45E-07,  avg # of iterations =  1.1

     total cpu time spent up to now is      104.9 secs

     total energy              =     -55.79690128 Ry
     estimated scf accuracy    <       0.00001766 Ry

     total magnetization       =     2.17 Bohr mag/cell
     absolute magnetization    =     2.27 Bohr mag/cell

     iteration #  4     ecut=    30.00 Ry     beta= 0.50
     Davidson diagonalization with overlap
     ethr =  2.21E-07,  avg # of iterations =  2.0

     total cpu time spent up to now is      106.4 secs

     total energy              =     -55.79691127 Ry
     estimated scf accuracy    <       0.00001932 Ry

     total magnetization       =     2.18 Bohr mag/cell
     absolute magnetization    =     2.28 Bohr mag/cell

     iteration #  5     ecut=    30.00 Ry     beta= 0.50
     Davidson diagonalization with overlap
     ethr =  2.21E-07,  avg # of iterations =  1.0

     total cpu time spent up to now is      107.3 secs

     total energy              =     -55.79690919 Ry
     estimated scf accuracy    <       0.00001253 Ry

     total magnetization       =     2.17 Bohr mag/cell
     absolute magnetization    =     2.28 Bohr mag/cell

     iteration #  6     ecut=    30.00 Ry     beta= 0.50
     Davidson diagonalization with overlap
     ethr =  1.57E-07,  avg # of iterations =  1.0

     total cpu time spent up to now is      107.5 secs

     total energy              =     -55.79690740 Ry
     estimated scf accuracy    <       0.00000390 Ry

     total magnetization       =     2.17 Bohr mag/cell
     absolute magnetization    =     2.28 Bohr mag/cell

     iteration #  7     ecut=    30.00 Ry     beta= 0.50
     Davidson diagonalization with overlap
     ethr =  4.87E-08,  avg # of iterations =  1.9

     total cpu time spent up to now is      108.7 secs

     total energy              =     -55.79690894 Ry
     estimated scf accuracy    <       0.00000189 Ry

     total magnetization       =     2.17 Bohr mag/cell
     absolute magnetization    =     2.27 Bohr mag/cell

     iteration #  8     ecut=    30.00 Ry     beta= 0.50
     Davidson diagonalization with overlap
     ethr =  2.37E-08,  avg # of iterations =  1.0

     total cpu time spent up to now is      109.5 secs

     total energy              =     -55.79690881 Ry
     estimated scf accuracy    <       0.00000088 Ry

     total magnetization       =     2.17 Bohr mag/cell
     absolute magnetization    =     2.27 Bohr mag/cell

     iteration #  9     ecut=    30.00 Ry     beta= 0.50
     Davidson diagonalization with overlap
     ethr =  1.10E-08,  avg # of iterations =  1.0

     total cpu time spent up to now is      111.8 secs

     total energy              =     -55.79690873 Ry
     estimated scf accuracy    <       0.00000025 Ry

     total magnetization       =     2.17 Bohr mag/cell
     absolute magnetization    =     2.28 Bohr mag/cell

     iteration # 10     ecut=    30.00 Ry     beta= 0.50
     Davidson diagonalization with overlap
     ethr =  3.09E-09,  avg # of iterations =  1.4

     total cpu time spent up to now is      113.0 secs

     total energy              =     -55.79690879 Ry
     estimated scf accuracy    <       0.00000001 Ry

     total magnetization       =     2.17 Bohr mag/cell
     absolute magnetization    =     2.28 Bohr mag/cell

     iteration # 11     ecut=    30.00 Ry     beta= 0.50
     Davidson diagonalization with overlap
     ethr =  1.56E-10,  avg # of iterations =  1.8

     Magnetic moment per site  (integrated on atomic sphere of radius R)
     atom   1 (R=0.413)  charge=  6.3926  magn=  2.2094

     total cpu time spent up to now is      114.4 secs

     End of self-consistent calculation

 ------ SPIN UP ------------


          k = 0.0000 0.0000 0.0000 (   201 PWs)   bands (ev):

     5.1098  11.1427  11.1427  11.1427  12.2522  12.2522  38.1720  38.1720

          k = 0.1713 0.1713 0.0000 (   201 PWs)   bands (ev):

     6.6581  10.7544  11.0195  11.9621  12.0769  12.2945  31.6067  35.6459

          k = 0.3426 0.3426 0.0000 (   200 PWs)   bands (ev):

     8.5177  10.1665  12.2086  12.4129  12.8581  13.5090  22.8984  32.2204

          k = 0.3426 0.1713 0.1713 (   202 PWs)   bands (ev):

     8.8022  10.3072  10.6690  12.0856  12.5488  13.8839  27.3702  28.2491

          k = 0.5139 0.3426 0.1713 (   203 PWs)   bands (ev):

     9.2460  10.1587  11.1435  12.3510  12.8673  17.3929  21.0211  26.2414

          k = 0.3426 0.3426 0.3426 (   204 PWs)   bands (ev):

    10.0667  10.0667  10.4174  12.4502  12.4502  17.8464  24.5690  24.5690

          k = 0.0000 0.0000 0.3426 (   205 PWs)   bands (ev):

     7.9444  10.9558  11.3402  11.3402  11.9457  12.8917  31.9528  32.9292

          k = 0.0000-0.1713 0.5139 (   215 PWs)   bands (ev):

     9.2136  10.1435  11.1084  11.9660  13.3902  15.6182  23.7851  29.3074

          k =-0.6852-0.1713-0.1713 (   209 PWs)   bands (ev):

     9.4855   9.4855  11.0952  13.0541  13.0541  21.1181  21.1181  23.0966

          k = 0.0000 0.0000 0.6852 (   212 PWs)   bands (ev):

     8.8842   8.8919  12.9531  12.9531  13.3034  19.6428  24.9849  24.9849

 ------ SPIN DOWN ----------


          k = 0.0000 0.0000 0.0000 (   201 PWs)   bands (ev):

     5.2383  13.1465  13.1465  13.1465  15.3133  15.3133  37.9501  37.9501

          k = 0.1713 0.1713 0.0000 (   201 PWs)   bands (ev):

     6.8222  12.6762  12.9624  14.0496  14.9707  15.3647  32.1207  35.7506

          k = 0.3426 0.3426 0.0000 (   200 PWs)   bands (ev):

     9.6188  11.9767  13.3907  15.0916  15.5320  15.7982  24.0088  32.3068

          k = 0.3426 0.1713 0.1713 (   202 PWs)   bands (ev):

     9.3350  12.1892  12.3606  14.8241  15.4790  15.9941  28.1334  28.8550

          k = 0.5139 0.3426 0.1713 (   203 PWs)   bands (ev):

    10.7156  11.9002  12.6681  15.0957  15.5830  18.6633  22.2814  26.8853

          k = 0.3426 0.3426 0.3426 (   204 PWs)   bands (ev):

    11.4886  11.6631  11.6631  15.5386  15.5386  19.2204  25.3607  25.3607

          k = 0.0000 0.0000 0.3426 (   205 PWs)   bands (ev):

     8.2312  13.2755  13.2755  13.5992  14.0428  15.8698  32.5052  33.4836

          k = 0.0000-0.1713 0.5139 (   215 PWs)   bands (ev):

    10.6040  12.1353  12.9995  14.2475  15.6610  17.3297  24.7415  29.8349

          k =-0.6852-0.1713-0.1713 (   209 PWs)   bands (ev):

    11.4576  11.4576  12.8791  15.3070  15.3070  22.1334  22.1334  23.8507

          k = 0.0000 0.0000 0.6852 (   212 PWs)   bands (ev):

    10.8113  11.0035  15.0838  15.0838  15.5746  20.4505  25.3537  25.3537

     the Fermi energy is    13.4101 ev

!    total energy              =     -55.79690879 Ry
     estimated scf accuracy    <          5.1E-11 Ry
     smearing contrib. (-TS)   =      -0.00032367 Ry
     internal energy E=F+TS    =     -55.79658512 Ry

     The total energy is F=E-TS. E is the sum of the following terms:
     one-electron contribution =       7.60298853 Ry
     hartree contribution      =       6.49078105 Ry
     xc contribution           =     -26.42777217 Ry
     ewald contribution        =     -43.46258253 Ry

     total magnetization       =     2.17 Bohr mag/cell
     absolute magnetization    =     2.28 Bohr mag/cell

     convergence has been achieved in  11 iterations

     Forces acting on atoms (cartesian axes, Ry/au):

     atom    1 type  1   force =     0.00000000    0.00000000    0.00000000
     The non-local contrib.  to forces
     atom    1 type  1   force =    -0.00000000   -0.00000000    0.00000000
     The ionic contribution  to forces
     atom    1 type  1   force =    -0.00000000   -0.00000000   -0.00000000
     The local contribution  to forces
     atom    1 type  1   force =     0.00000000   -0.00000000   -0.00000000
     The core correction contribution to forces
     atom    1 type  1   force =    -0.00000000   -0.00000000    0.00000000
     The Hubbard contrib.    to forces
     atom    1 type  1   force =     0.00000000    0.00000000    0.00000000
     The SCF correction term to forces
     atom    1 type  1   force =     0.00000000    0.00000000    0.00000000

     Total force =     0.000000     Total SCF correction =     0.000000


     Computing stress (Cartesian axis) and pressure

          total   stress  (Ry/bohr**3)                   (kbar)     P=        0.26
   0.00000174   0.00000000   0.00000000            0.26        0.00        0.00
   0.00000000   0.00000174   0.00000000            0.00        0.26        0.00
   0.00000000   0.00000000   0.00000174            0.00        0.00        0.26

     Energy error            =      1.6E-07 Ry
     Gradient error          =      0.0E+00 Ry/Bohr
     Cell gradient error     =      2.6E-01 kbar

     bfgs converged in   5 scf cycles and   4 bfgs steps
     (criteria: energy <  1.0E-04 Ry, force <  1.0E-03 Ry/Bohr, cell <  5.0E-01 kbar)

     End of BFGS Geometry Optimization

     Final enthalpy           =     -55.7969087910 Ry

     File /home/gridsan/epan1/labutil/lab3_samples/problem1/Lab3/Fe_bcc_a_2.8046394196999995_ecut_30_nk_5/pwscf.bfgs deleted, as requested
Begin final coordinates
     new unit-cell volume =     76.94725 a.u.^3 (    11.40241 Ang^3 )
     density =      8.13274 g/cm^3

CELL_PARAMETERS (angstrom)
  -1.417899661   1.417899661   1.417899661
   1.417899661  -1.417899661   1.417899661
   1.417899661   1.417899661  -1.417899661

ATOMIC_POSITIONS (angstrom)
Fe            0.0000000000        0.0000000000        0.0000000000
End final coordinates



     Writing config-only to output data dir /home/gridsan/epan1/labutil/lab3_samples/problem1/Lab3/Fe_bcc_a_2.8046394196999995_ecut_30_nk_5/pwscf.save/

     Final scf calculation at the relaxed structure.
     The G-vectors are recalculated for the final unit cell
     Results may differ from those at the preceding step.

     Parallelization info
     --------------------
     sticks:   dense  smooth     PW     G-vecs:    dense   smooth      PW
     Min          97      49     16                 1223      430      91
     Max          98      50     17                 1225      431      93
     Sum         391     197     67                 4897     1721     369

     Using Slab Decomposition



     bravais-lattice index     =            0
     lattice parameter (alat)  =       4.5899  a.u.
     unit-cell volume          =      76.9472 (a.u.)^3
     number of atoms/cell      =            1
     number of atomic types    =            1
     number of electrons       =         8.00
     number of Kohn-Sham states=            8
     kinetic-energy cutoff     =      30.0000  Ry
     charge density cutoff     =     240.0000  Ry
     scf convergence threshold =      1.0E-09
     mixing beta               =       0.5000
     number of iterations used =            8  plain     mixing
     press convergence thresh. =      5.0E-01
     Exchange-correlation=  SLA  PW   PBE  PBE
                           (   1   4   3   4   0   0   0)

     celldm(1)=   4.589935  celldm(2)=   0.000000  celldm(3)=   0.000000
     celldm(4)=   0.000000  celldm(5)=   0.000000  celldm(6)=   0.000000

     crystal axes: (cart. coord. in units of alat)
               a(1) = (  -0.583765   0.583765   0.583765 )  
               a(2) = (   0.583765  -0.583765   0.583765 )  
               a(3) = (   0.583765   0.583765  -0.583765 )  

     reciprocal axes: (cart. coord. in units 2 pi/alat)
               b(1) = (  0.000000  0.856509  0.856509 )  
               b(2) = (  0.856509  0.000000  0.856509 )  
               b(3) = (  0.856509  0.856509  0.000000 )  


     PseudoPot. # 1 for Fe read from file:
     /home/gridsan/epan1/labutil/lab3_samples/pseudopotentials/Fe.pbe-nd-rrkjus.UPF
     MD5 check sum: 398036227a04b607635f6f5e8dfd8242
     Pseudo is Ultrasoft + core correction, Zval =  8.0
     Generated by new atomic code, or converted to UPF format
     Using radial grid of  957 points,  6 beta functions with: 
                l(1) =   0
                l(2) =   0
                l(3) =   1
                l(4) =   1
                l(5) =   2
                l(6) =   2
     Q(r) pseudized with 0 coefficients 


     atomic species   valence    mass     pseudopotential
        Fe             8.00    55.84500     Fe( 1.00)

     Starting magnetic structure 
     atomic species   magnetization
        Fe           0.346

     48 Sym. Ops., with inversion, found



   Cartesian axes

     site n.     atom                  positions (alat units)
         1           Fe  tau(   1) = (   0.0000000   0.0000000   0.0000000  )

     number of k points=    10  Methfessel-Paxton smearing, width (Ry)=  0.0200
                       cart. coord. in units 2pi/alat
        k(    1) = (   0.0000000   0.0000000   0.0000000), wk =   0.0080000
        k(    2) = (   0.1713019   0.1713019   0.0000000), wk =   0.0960000
        k(    3) = (   0.3426038   0.3426038   0.0000000), wk =   0.0960000
        k(    4) = (   0.3426038   0.1713019   0.1713019), wk =   0.1920000
        k(    5) = (   0.5139057   0.3426038   0.1713019), wk =   0.1920000
        k(    6) = (   0.3426038   0.3426038   0.3426038), wk =   0.0640000
        k(    7) = (   0.0000000   0.0000000   0.3426038), wk =   0.0480000
        k(    8) = (   0.0000000  -0.1713019   0.5139057), wk =   0.1920000
        k(    9) = (  -0.6852076  -0.1713019  -0.1713019), wk =   0.0640000
        k(   10) = (   0.0000000   0.0000000   0.6852076), wk =   0.0480000

     Dense  grid:     4897 G-vectors     FFT dimensions: (  24,  24,  24)

     Smooth grid:     1721 G-vectors     FFT dimensions: (  18,  18,  18)

     Estimated max dynamical RAM per process >       7.68 MB

     Estimated total dynamical RAM >      30.72 MB
     Generating pointlists ...

     Initial potential from superposition of free atoms

     starting charge       7.9994, renormalised to       8.0000
     Starting wfcs are    6 randomized atomic wfcs +    2 random wfcs

     total cpu time spent up to now is      118.8 secs

     Self-consistent Calculation

     iteration #  1     ecut=    30.00 Ry     beta= 0.50
     Davidson diagonalization with overlap
     c_bands:  1 eigenvalues not converged
     c_bands:  1 eigenvalues not converged
     ethr =  1.00E-06,  avg # of iterations = 17.1

     total cpu time spent up to now is      125.8 secs

     total energy              =     -55.66697007 Ry
     estimated scf accuracy    <       0.37176608 Ry

     total magnetization       =     1.98 Bohr mag/cell
     absolute magnetization    =     1.98 Bohr mag/cell

     iteration #  2     ecut=    30.00 Ry     beta= 0.50
     Davidson diagonalization with overlap
     ethr =  4.65E-03,  avg # of iterations =  1.9

     total cpu time spent up to now is      126.9 secs

     total energy              =     -55.77320595 Ry
     estimated scf accuracy    <       0.10181815 Ry

     total magnetization       =     2.33 Bohr mag/cell
     absolute magnetization    =     2.33 Bohr mag/cell

     iteration #  3     ecut=    30.00 Ry     beta= 0.50
     Davidson diagonalization with overlap
     ethr =  1.27E-03,  avg # of iterations =  1.0

     total cpu time spent up to now is      128.4 secs

     total energy              =     -55.79494354 Ry
     estimated scf accuracy    <       0.00183674 Ry

     total magnetization       =     2.19 Bohr mag/cell
     absolute magnetization    =     2.21 Bohr mag/cell

     iteration #  4     ecut=    30.00 Ry     beta= 0.50
     Davidson diagonalization with overlap
     ethr =  2.30E-05,  avg # of iterations =  2.0

     total cpu time spent up to now is      129.5 secs

     total energy              =     -55.79674175 Ry
     estimated scf accuracy    <       0.00055481 Ry

     total magnetization       =     2.13 Bohr mag/cell
     absolute magnetization    =     2.22 Bohr mag/cell

     iteration #  5     ecut=    30.00 Ry     beta= 0.50
     Davidson diagonalization with overlap
     ethr =  6.94E-06,  avg # of iterations =  1.7

     total cpu time spent up to now is      132.6 secs

     total energy              =     -55.79700337 Ry
     estimated scf accuracy    <       0.00012758 Ry

     total magnetization       =     2.16 Bohr mag/cell
     absolute magnetization    =     2.26 Bohr mag/cell

     iteration #  6     ecut=    30.00 Ry     beta= 0.50
     Davidson diagonalization with overlap
     ethr =  1.59E-06,  avg # of iterations =  1.2

     total cpu time spent up to now is      135.3 secs

     total energy              =     -55.79701647 Ry
     estimated scf accuracy    <       0.00014409 Ry

     total magnetization       =     2.16 Bohr mag/cell
     absolute magnetization    =     2.26 Bohr mag/cell

     iteration #  7     ecut=    30.00 Ry     beta= 0.50
     Davidson diagonalization with overlap
     ethr =  1.59E-06,  avg # of iterations =  1.1

     total cpu time spent up to now is      137.4 secs

     total energy              =     -55.79697529 Ry
     estimated scf accuracy    <       0.00015883 Ry

     total magnetization       =     2.16 Bohr mag/cell
     absolute magnetization    =     2.26 Bohr mag/cell

     iteration #  8     ecut=    30.00 Ry     beta= 0.50
     Davidson diagonalization with overlap
     ethr =  1.59E-06,  avg # of iterations =  1.1

     total cpu time spent up to now is      139.6 secs

     total energy              =     -55.79700164 Ry
     estimated scf accuracy    <       0.00013587 Ry

     total magnetization       =     2.18 Bohr mag/cell
     absolute magnetization    =     2.28 Bohr mag/cell

     iteration #  9     ecut=    30.00 Ry     beta= 0.50
     Davidson diagonalization with overlap
     ethr =  1.59E-06,  avg # of iterations =  1.0

     total cpu time spent up to now is      141.9 secs

     total energy              =     -55.79700570 Ry
     estimated scf accuracy    <       0.00011428 Ry

     total magnetization       =     2.18 Bohr mag/cell
     absolute magnetization    =     2.27 Bohr mag/cell

     iteration # 10     ecut=    30.00 Ry     beta= 0.50
     Davidson diagonalization with overlap
     ethr =  1.43E-06,  avg # of iterations =  1.1

     total cpu time spent up to now is      146.3 secs

     total energy              =     -55.79700778 Ry
     estimated scf accuracy    <       0.00002574 Ry

     total magnetization       =     2.17 Bohr mag/cell
     absolute magnetization    =     2.27 Bohr mag/cell

     iteration # 11     ecut=    30.00 Ry     beta= 0.50
     Davidson diagonalization with overlap
     ethr =  3.22E-07,  avg # of iterations =  1.6

     total cpu time spent up to now is      148.3 secs

     total energy              =     -55.79701414 Ry
     estimated scf accuracy    <       0.00000033 Ry

     total magnetization       =     2.17 Bohr mag/cell
     absolute magnetization    =     2.27 Bohr mag/cell

     iteration # 12     ecut=    30.00 Ry     beta= 0.50
     Davidson diagonalization with overlap
     ethr =  4.15E-09,  avg # of iterations =  5.0

     total cpu time spent up to now is      150.3 secs

     total energy              =     -55.79701380 Ry
     estimated scf accuracy    <       0.00000005 Ry

     total magnetization       =     2.17 Bohr mag/cell
     absolute magnetization    =     2.27 Bohr mag/cell

     iteration # 13     ecut=    30.00 Ry     beta= 0.50
     Davidson diagonalization with overlap
     ethr =  6.41E-10,  avg # of iterations =  4.2

     total cpu time spent up to now is      152.9 secs

     total energy              =     -55.79701452 Ry
     estimated scf accuracy    <       0.00000208 Ry

     total magnetization       =     2.17 Bohr mag/cell
     absolute magnetization    =     2.28 Bohr mag/cell

     iteration # 14     ecut=    30.00 Ry     beta= 0.50
     Davidson diagonalization with overlap
     ethr =  6.41E-10,  avg # of iterations =  2.5

     total cpu time spent up to now is      153.8 secs

     total energy              =     -55.79701480 Ry
     estimated scf accuracy    <       0.00000006 Ry

     total magnetization       =     2.17 Bohr mag/cell
     absolute magnetization    =     2.28 Bohr mag/cell

     iteration # 15     ecut=    30.00 Ry     beta= 0.50
     Davidson diagonalization with overlap
     ethr =  6.41E-10,  avg # of iterations =  1.4

     Magnetic moment per site  (integrated on atomic sphere of radius R)
     atom   1 (R=0.413)  charge=  6.3926  magn=  2.2095

     total cpu time spent up to now is      156.3 secs

     End of self-consistent calculation

 ------ SPIN UP ------------


          k = 0.0000 0.0000 0.0000 (   201 PWs)   bands (ev):

     5.1098  11.1425  11.1425  11.1425  12.2519  12.2519  38.1718  38.1718

          k = 0.1713 0.1713 0.0000 (   213 PWs)   bands (ev):

     6.6580  10.7535  11.0189  11.9614  12.0766  12.2939  31.6064  35.6452

          k = 0.3426 0.3426 0.0000 (   206 PWs)   bands (ev):

     8.5175  10.1658  12.2084  12.4124  12.8579  13.5086  22.8983  32.2200

          k = 0.3426 0.1713 0.1713 (   207 PWs)   bands (ev):

     8.8020  10.3068  10.6687  12.0853  12.5484  13.8834  27.3699  28.2490

          k = 0.5139 0.3426 0.1713 (   213 PWs)   bands (ev):

     9.2456  10.1581  11.1431  12.3504  12.8668  17.3926  21.0209  26.2413

          k = 0.3426 0.3426 0.3426 (   222 PWs)   bands (ev):

    10.0658  10.0658  10.4172  12.4493  12.4493  17.8461  24.5686  24.5686

          k = 0.0000 0.0000 0.3426 (   213 PWs)   bands (ev):

     7.9442  10.9553  11.3397  11.3397  11.9454  12.8912  31.9517  32.9287

          k = 0.0000-0.1713 0.5139 (   215 PWs)   bands (ev):

     9.2135  10.1434  11.1081  11.9657  13.3898  15.6181  23.7850  29.3076

          k =-0.6852-0.1713-0.1713 (   215 PWs)   bands (ev):

     9.4850   9.4850  11.0948  13.0537  13.0537  21.1180  21.1180  23.0966

          k = 0.0000 0.0000 0.6852 (   220 PWs)   bands (ev):

     8.8839   8.8915  12.9527  12.9527  13.3026  19.6429  24.9849  24.9849

 ------ SPIN DOWN ----------


          k = 0.0000 0.0000 0.0000 (   201 PWs)   bands (ev):

     5.2387  13.1465  13.1465  13.1465  15.3129  15.3129  37.9504  37.9504

          k = 0.1713 0.1713 0.0000 (   213 PWs)   bands (ev):

     6.8226  12.6754  12.9618  14.0489  14.9703  15.3638  32.1207  35.7505

          k = 0.3426 0.3426 0.0000 (   206 PWs)   bands (ev):

     9.6189  11.9761  13.3907  15.0912  15.5313  15.7979  24.0089  32.3068

          k = 0.3426 0.1713 0.1713 (   207 PWs)   bands (ev):

     9.3352  12.1890  12.3604  14.8238  15.4785  15.9936  28.1334  28.8552

          k = 0.5139 0.3426 0.1713 (   213 PWs)   bands (ev):

    10.7155  11.8997  12.6680  15.0951  15.5822  18.6631  22.2814  26.8855

          k = 0.3426 0.3426 0.3426 (   222 PWs)   bands (ev):

    11.4887  11.6623  11.6623  15.5373  15.5373  19.2203  25.3606  25.3606

          k = 0.0000 0.0000 0.3426 (   213 PWs)   bands (ev):

     8.2314  13.2751  13.2751  13.5985  14.0427  15.8690  32.5045  33.4836

          k = 0.0000-0.1713 0.5139 (   215 PWs)   bands (ev):

    10.6041  12.1352  12.9994  14.2473  15.6608  17.3296  24.7417  29.8354

          k =-0.6852-0.1713-0.1713 (   215 PWs)   bands (ev):

    11.4572  11.4572  12.8788  15.3067  15.3067  22.1335  22.1335  23.8510

          k = 0.0000 0.0000 0.6852 (   220 PWs)   bands (ev):

    10.8109  11.0031  15.0834  15.0834  15.5737  20.4508  25.3541  25.3541

     the Fermi energy is    13.4097 ev

!    total energy              =     -55.79701481 Ry
     estimated scf accuracy    <          2.8E-10 Ry
     smearing contrib. (-TS)   =      -0.00032353 Ry
     internal energy E=F+TS    =     -55.79669128 Ry

     The total energy is F=E-TS. E is the sum of the following terms:
     one-electron contribution =       7.60282500 Ry
     hartree contribution      =       6.49059129 Ry
     xc contribution           =     -26.42752503 Ry
     ewald contribution        =     -43.46258253 Ry

     total magnetization       =     2.17 Bohr mag/cell
     absolute magnetization    =     2.28 Bohr mag/cell

     convergence has been achieved in  15 iterations

     Forces acting on atoms (cartesian axes, Ry/au):

     atom    1 type  1   force =     0.00000000    0.00000000    0.00000000
     The non-local contrib.  to forces
     atom    1 type  1   force =     0.00000000    0.00000000    0.00000000
     The ionic contribution  to forces
     atom    1 type  1   force =    -0.00000000   -0.00000000   -0.00000000
     The local contribution  to forces
     atom    1 type  1   force =    -0.00000000   -0.00000000   -0.00000000
     The core correction contribution to forces
     atom    1 type  1   force =    -0.00000000   -0.00000000    0.00000000
     The Hubbard contrib.    to forces
     atom    1 type  1   force =     0.00000000    0.00000000    0.00000000
     The SCF correction term to forces
     atom    1 type  1   force =    -0.00000000   -0.00000000    0.00000000

     Total force =     0.000000     Total SCF correction =     0.000000


     Computing stress (Cartesian axis) and pressure

          total   stress  (Ry/bohr**3)                   (kbar)     P=       -2.44
  -0.00001661   0.00000000   0.00000000           -2.44        0.00        0.00
   0.00000000  -0.00001661   0.00000000            0.00       -2.44        0.00
   0.00000000   0.00000000  -0.00001661            0.00        0.00       -2.44


     init_run     :      1.88s CPU      4.40s WALL (       2 calls)
     electrons    :     62.47s CPU    137.38s WALL (       6 calls)
     update_pot   :      1.00s CPU      2.14s WALL (       4 calls)
     forces       :      1.66s CPU      3.74s WALL (       6 calls)
     stress       :      3.73s CPU      7.92s WALL (       6 calls)

     Called by init_run:
     wfcinit      :      0.46s CPU      1.13s WALL (       2 calls)
     potinit      :      0.42s CPU      1.05s WALL (       2 calls)
     hinit0       :      0.63s CPU      1.49s WALL (       2 calls)

     Called by electrons:
     c_bands      :     45.09s CPU     99.65s WALL (      78 calls)
     sum_band     :      7.30s CPU     16.42s WALL (      78 calls)
     v_of_rho     :      4.44s CPU      9.48s WALL (      84 calls)
     newd         :      1.06s CPU      2.25s WALL (      84 calls)
     mix_rho      :      3.17s CPU      5.97s WALL (      78 calls)

     Called by c_bands:
     init_us_2    :      0.11s CPU      0.19s WALL (    3400 calls)
     init_us_2:cp :      0.10s CPU      0.17s WALL (    3400 calls)
     cegterg      :     32.01s CPU     65.46s WALL (    1560 calls)

     Called by *egterg:
     cdiaghg      :      0.56s CPU      0.97s WALL (    4612 calls)
     h_psi        :     25.01s CPU     51.91s WALL (    4732 calls)
     s_psi        :      0.04s CPU      0.08s WALL (    4732 calls)
     g_psi        :      0.01s CPU      0.02s WALL (    3132 calls)

     Called by h_psi:
     h_psi:calbec :      2.54s CPU      5.32s WALL (    4732 calls)
     vloc_psi     :     22.40s CPU     46.42s WALL (    4732 calls)
     add_vuspsi   :      0.05s CPU      0.09s WALL (    4732 calls)

     General routines
     calbec       :      4.80s CPU      9.91s WALL (    6892 calls)
     fft          :      5.19s CPU     11.00s WALL (    2332 calls)
     ffts         :      0.45s CPU      1.02s WALL (     324 calls)
     fftw         :     26.26s CPU     55.04s WALL (   72982 calls)
     interpolate  :      0.43s CPU      0.98s WALL (     168 calls)

     Parallel routines

     PWSCF        :   1m11.71s CPU   2m38.12s WALL


   This run was terminated on:  17:10:59   1Nov2023            

=------------------------------------------------------------------------------=
   JOB DONE.
=------------------------------------------------------------------------------=
