
     Program PWSCF v.7.2 starts on  1Nov2023 at 18: 3:16 

     This program is part of the open-source Quantum ESPRESSO suite
     for quantum simulation of materials; please cite
         "P. Giannozzi et al., J. Phys.:Condens. Matter 21 395502 (2009);
         "P. Giannozzi et al., J. Phys.:Condens. Matter 29 465901 (2017);
         "P. Giannozzi et al., J. Chem. Phys. 152 154105 (2020);
          URL http://www.quantum-espresso.org", 
     in publications or presentations arising from this work. More details at
     http://www.quantum-espresso.org/quote

     Parallel version (MPI), running on     8 processors

     MPI processes distributed on     8 nodes
     186932 MiB available memory on the printing compute node when the environment starts

     Waiting for input...
     Reading input from standard input

     Current dimensions of program PWSCF are:
     Max number of different atomic species (ntypx) = 10
     Max number of k-points (npk) =  40000
     Max angular momentum in pseudopotentials (lmaxx) =  4
     file Fe.pbe-nd-rrkjus.UPF: wavefunction(s)  4S renormalized
     Message from routine find_sym:
     Not a group! Trying with lower acceptance parameter...
     Message from routine find_sym:
     Symmetry operations form a group
     Message from routine setup:
     using ibrav=0 with symmetry is DISCOURAGED, use correct ibrav instead

     R & G space division:  proc/nbgrp/npool/nimage =       8
     Subspace diagonalization in iterative solution of the eigenvalue problem:
     a serial algorithm will be used


     Parallelization info
     --------------------
     sticks:   dense  smooth     PW     G-vecs:    dense   smooth      PW
     Min          45      23      7                 1167      417      83
     Max          46      24      8                 1174      422      88
     Sum         367     187     61                 9369     3357     687

     Using Slab Decomposition



     bravais-lattice index     =            0
     lattice parameter (alat)  =       4.7243  a.u.
     unit-cell volume          =     149.1185 (a.u.)^3
     number of atoms/cell      =            2
     number of atomic types    =            1
     number of electrons       =        16.00
     number of Kohn-Sham states=           12
     kinetic-energy cutoff     =      30.0000  Ry
     charge density cutoff     =     240.0000  Ry
     scf convergence threshold =      1.0E-07
     mixing beta               =       0.5000
     number of iterations used =            8  plain     mixing
     energy convergence thresh.=      1.0E-04
     force convergence thresh. =      1.0E-03
     press convergence thresh. =      5.0E-01
     Exchange-correlation=  SLA  PW   PBE  PBE
                           (   1   4   3   4   0   0   0)
     nstep                     =           50


     celldm(1)=   4.724315  celldm(2)=   0.000000  celldm(3)=   0.000000
     celldm(4)=   0.000000  celldm(5)=   0.000000  celldm(6)=   0.000000

     crystal axes: (cart. coord. in units of alat)
               a(1) = (   1.000000   0.000000   0.000000 )  
               a(2) = (  -0.500000   0.866025   0.000000 )  
               a(3) = (   0.000000   0.000000   1.632993 )  

     reciprocal axes: (cart. coord. in units 2 pi/alat)
               b(1) = (  1.000000  0.577350 -0.000000 )  
               b(2) = (  0.000000  1.154701  0.000000 )  
               b(3) = (  0.000000 -0.000000  0.612372 )  


     PseudoPot. # 1 for Fe read from file:
     /home/gridsan/epan1/labutil/lab3_samples/pseudopotentials/Fe.pbe-nd-rrkjus.UPF
     MD5 check sum: 398036227a04b607635f6f5e8dfd8242
     Pseudo is Ultrasoft + core correction, Zval =  8.0
     Generated by new atomic code, or converted to UPF format
     Using radial grid of  957 points,  6 beta functions with: 
                l(1) =   0
                l(2) =   0
                l(3) =   1
                l(4) =   1
                l(5) =   2
                l(6) =   2
     Q(r) pseudized with 0 coefficients 


     atomic species   valence    mass     pseudopotential
        Fe             8.00    55.84500     Fe( 1.00)

     Starting magnetic structure 
     atomic species   magnetization
        Fe           0.700

      4 Sym. Ops. (no inversion) found



   Cartesian axes

     site n.     atom                  positions (alat units)
         1           Fe  tau(   1) = (   0.0000000   0.0000000   0.0000000  )
         2           Fe  tau(   2) = (  -0.0000000   0.5773520   0.8164960  )

     number of k points=   125  Methfessel-Paxton smearing, width (Ry)=  0.0200

     Number of k-points >= 100: set verbosity='high' to print them.

     Dense  grid:     9369 G-vectors     FFT dimensions: (  24,  24,  40)

     Smooth grid:     3357 G-vectors     FFT dimensions: (  18,  18,  27)

     Estimated max dynamical RAM per process >       9.63 MB

     Estimated total dynamical RAM >      77.03 MB
     Generating pointlists ...
     new r_m :   0.4125 (alat units)  1.9488 (a.u.) for type    1

     Initial potential from superposition of free atoms

     starting charge      15.9987, renormalised to      16.0000
     Starting wfcs are   12 randomized atomic wfcs

     total cpu time spent up to now is        0.7 secs

     Self-consistent Calculation

     iteration #  1     ecut=    30.00 Ry     beta= 0.50
     Davidson diagonalization with overlap
     ethr =  1.00E-02,  avg # of iterations =  3.9

     total cpu time spent up to now is        2.2 secs

     total energy              =    -111.36710869 Ry
     estimated scf accuracy    <       0.51357665 Ry

     total magnetization       =     6.32 Bohr mag/cell
     absolute magnetization    =     6.32 Bohr mag/cell

     iteration #  2     ecut=    30.00 Ry     beta= 0.50
     Davidson diagonalization with overlap
     ethr =  3.21E-03,  avg # of iterations =  1.9

     total cpu time spent up to now is        3.4 secs

     total energy              =    -111.52685556 Ry
     estimated scf accuracy    <       0.04071771 Ry

     total magnetization       =     5.83 Bohr mag/cell
     absolute magnetization    =     5.83 Bohr mag/cell

     iteration #  3     ecut=    30.00 Ry     beta= 0.50
     Davidson diagonalization with overlap
     ethr =  2.54E-04,  avg # of iterations =  1.6

     total cpu time spent up to now is        4.4 secs

     total energy              =    -111.55651239 Ry
     estimated scf accuracy    <       0.01193483 Ry

     total magnetization       =     5.60 Bohr mag/cell
     absolute magnetization    =     5.64 Bohr mag/cell

     iteration #  4     ecut=    30.00 Ry     beta= 0.50
     Davidson diagonalization with overlap
     ethr =  7.46E-05,  avg # of iterations =  1.9

     total cpu time spent up to now is        5.6 secs

     total energy              =    -111.56732740 Ry
     estimated scf accuracy    <       0.00546017 Ry

     total magnetization       =     5.08 Bohr mag/cell
     absolute magnetization    =     5.25 Bohr mag/cell

     iteration #  5     ecut=    30.00 Ry     beta= 0.50
     Davidson diagonalization with overlap
     ethr =  3.41E-05,  avg # of iterations =  1.1

     total cpu time spent up to now is        6.5 secs

     total energy              =    -111.56779520 Ry
     estimated scf accuracy    <       0.00076650 Ry

     total magnetization       =     5.08 Bohr mag/cell
     absolute magnetization    =     5.26 Bohr mag/cell

     iteration #  6     ecut=    30.00 Ry     beta= 0.50
     Davidson diagonalization with overlap
     ethr =  4.79E-06,  avg # of iterations =  2.6

     total cpu time spent up to now is        7.7 secs

     total energy              =    -111.56793123 Ry
     estimated scf accuracy    <       0.00020386 Ry

     total magnetization       =     5.09 Bohr mag/cell
     absolute magnetization    =     5.27 Bohr mag/cell

     iteration #  7     ecut=    30.00 Ry     beta= 0.50
     Davidson diagonalization with overlap
     ethr =  1.27E-06,  avg # of iterations =  2.4

     total cpu time spent up to now is        9.0 secs

     total energy              =    -111.56796888 Ry
     estimated scf accuracy    <       0.00006783 Ry

     total magnetization       =     5.09 Bohr mag/cell
     absolute magnetization    =     5.27 Bohr mag/cell

     iteration #  8     ecut=    30.00 Ry     beta= 0.50
     Davidson diagonalization with overlap
     ethr =  4.24E-07,  avg # of iterations =  3.4

     total cpu time spent up to now is       10.8 secs

     total energy              =    -111.56800076 Ry
     estimated scf accuracy    <       0.00000927 Ry

     total magnetization       =     5.09 Bohr mag/cell
     absolute magnetization    =     5.28 Bohr mag/cell

     iteration #  9     ecut=    30.00 Ry     beta= 0.50
     Davidson diagonalization with overlap
     ethr =  5.79E-08,  avg # of iterations =  5.5

     total cpu time spent up to now is       13.1 secs

     total energy              =    -111.56801130 Ry
     estimated scf accuracy    <       0.00000132 Ry

     total magnetization       =     5.09 Bohr mag/cell
     absolute magnetization    =     5.28 Bohr mag/cell

     iteration # 10     ecut=    30.00 Ry     beta= 0.50
     Davidson diagonalization with overlap
     ethr =  8.22E-09,  avg # of iterations =  4.6

     total cpu time spent up to now is       14.8 secs

     total energy              =    -111.56801202 Ry
     estimated scf accuracy    <       0.00000011 Ry

     total magnetization       =     5.09 Bohr mag/cell
     absolute magnetization    =     5.28 Bohr mag/cell

     iteration # 11     ecut=    30.00 Ry     beta= 0.50
     Davidson diagonalization with overlap
     ethr =  6.73E-10,  avg # of iterations =  5.2

     Magnetic moment per site  (integrated on atomic sphere of radius R)
     atom   1 (R=0.412)  charge=  6.6078  magn=  2.5759
     atom   2 (R=0.412)  charge=  6.6080  magn=  2.5758

     total cpu time spent up to now is       16.7 secs

     End of self-consistent calculation

     Number of k-points >= 100: set verbosity='high' to print the bands.

     the Fermi energy is    14.3333 ev

!    total energy              =    -111.56801211 Ry
     estimated scf accuracy    <       0.00000005 Ry
     smearing contrib. (-TS)   =       0.00074739 Ry
     internal energy E=F+TS    =    -111.56875950 Ry

     The total energy is F=E-TS. E is the sum of the following terms:
     one-electron contribution =      16.47395718 Ry
     hartree contribution      =      12.82836815 Ry
     xc contribution           =     -53.03657858 Ry
     ewald contribution        =     -87.83450626 Ry

     total magnetization       =     5.09 Bohr mag/cell
     absolute magnetization    =     5.28 Bohr mag/cell

     convergence has been achieved in  11 iterations

     Forces acting on atoms (cartesian axes, Ry/au):

     atom    1 type  1   force =     0.00000000    0.00000185    0.00000000
     atom    2 type  1   force =     0.00000000   -0.00000185    0.00000000
     The non-local contrib.  to forces
     atom    1 type  1   force =     0.00000000    0.00000013    0.00000000
     atom    2 type  1   force =     0.00000000   -0.00000190    0.00000000
     The ionic contribution  to forces
     atom    1 type  1   force =    -0.00000000    0.00000403   -0.00002690
     atom    2 type  1   force =     0.00000000   -0.00000403    0.00002690
     The local contribution  to forces
     atom    1 type  1   force =    -0.00000000   -0.00000499   -0.00000000
     atom    2 type  1   force =    -0.00000000    0.00000626    0.00007644
     The core correction contribution to forces
     atom    1 type  1   force =    -0.00000000   -0.00000018    0.00000000
     atom    2 type  1   force =    -0.00000000    0.00000033    0.00001275
     The Hubbard contrib.    to forces
     atom    1 type  1   force =     0.00000000    0.00000000    0.00000000
     atom    2 type  1   force =     0.00000000    0.00000000    0.00000000
     The SCF correction term to forces
     atom    1 type  1   force =     0.00000000    0.00000116   -0.00000000
     atom    2 type  1   force =    -0.00000000   -0.00000420   -0.00000000

     Total force =     0.000003     Total SCF correction =     0.000004
     SCF correction compared to forces is large: reduce conv_thr to get better values


     Computing stress (Cartesian axis) and pressure

          total   stress  (Ry/bohr**3)                   (kbar)     P=      196.02
   0.00100823   0.00000000   0.00000000          148.32        0.00        0.00
   0.00000000   0.00100821   0.00000000            0.00      148.31        0.00
   0.00000000   0.00000000   0.00198108            0.00        0.00      291.43


     BFGS Geometry Optimization
     Energy error            =      0.0E+00 Ry
     Gradient error          =      1.8E-06 Ry/Bohr
     Cell gradient error     =      2.9E+02 kbar

     number of scf cycles    =   1
     number of bfgs steps    =   0

     enthalpy           new  =    -111.5680121133 Ry

     new trust radius        =       0.1209589908 bohr
     new conv_thr            =       0.0000001000 Ry

     new unit-cell volume =    164.49287 a.u.^3 (    24.37533 Ang^3 )
     density =      7.60874 g/cm^3

CELL_PARAMETERS (angstrom)
   2.563014329   0.000000000   0.000000000
  -1.281507165   2.219634376   0.000000000
   0.000000000   0.000000000   4.284676186

ATOMIC_POSITIONS (angstrom)
Fe            0.0000000000        0.0000010019        0.0000000000
Fe            0.0000000000        1.4797596846        2.1423365690



     Writing config-only to output data dir /home/gridsan/epan1/labutil/lab3_samples/problem1/Lab3/Fe_hcp_a_2.5_ecut_30_nk_9/pwscf.save/
     NEW-OLD atomic charge density approx. for the potential

     Check: negative core charge=   -0.000004
     extrapolated charge   17.49532, renormalised to   16.00000
     Generating pointlists ...

     total cpu time spent up to now is       18.3 secs

     Self-consistent Calculation

     iteration #  1     ecut=    30.00 Ry     beta= 0.50
     Davidson diagonalization with overlap
     ethr =  1.00E-06,  avg # of iterations = 12.6

     total cpu time spent up to now is       23.0 secs

     total energy              =    -110.71254011 Ry
     estimated scf accuracy    <       0.89636379 Ry

     total magnetization       =     4.04 Bohr mag/cell
     absolute magnetization    =     4.29 Bohr mag/cell

     iteration #  2     ecut=    30.00 Ry     beta= 0.50
     Davidson diagonalization with overlap
     ethr =  5.60E-03,  avg # of iterations =  3.3

     total cpu time spent up to now is       24.6 secs

     total energy              =    -111.53790455 Ry
     estimated scf accuracy    <       1.91472923 Ry

     total magnetization       =     4.82 Bohr mag/cell
     absolute magnetization    =     4.95 Bohr mag/cell

     iteration #  3     ecut=    30.00 Ry     beta= 0.50
     Davidson diagonalization with overlap
     ethr =  5.60E-03,  avg # of iterations =  1.7

     total cpu time spent up to now is       25.7 secs

     total energy              =    -111.61507743 Ry
     estimated scf accuracy    <       0.38648873 Ry

     total magnetization       =     5.05 Bohr mag/cell
     absolute magnetization    =     5.23 Bohr mag/cell

     iteration #  4     ecut=    30.00 Ry     beta= 0.50
     Davidson diagonalization with overlap
     ethr =  2.42E-03,  avg # of iterations =  1.0

     total cpu time spent up to now is       26.7 secs

     total energy              =    -111.60498485 Ry
     estimated scf accuracy    <       0.22725782 Ry

     total magnetization       =     5.06 Bohr mag/cell
     absolute magnetization    =     5.24 Bohr mag/cell

     iteration #  5     ecut=    30.00 Ry     beta= 0.50
     Davidson diagonalization with overlap
     ethr =  1.42E-03,  avg # of iterations =  1.1

     total cpu time spent up to now is       27.7 secs

     total energy              =    -111.60897271 Ry
     estimated scf accuracy    <       0.13451184 Ry

     total magnetization       =     5.06 Bohr mag/cell
     absolute magnetization    =     5.26 Bohr mag/cell

     iteration #  6     ecut=    30.00 Ry     beta= 0.50
     Davidson diagonalization with overlap
     ethr =  8.41E-04,  avg # of iterations =  1.0

     total cpu time spent up to now is       29.7 secs

     total energy              =    -111.60950100 Ry
     estimated scf accuracy    <       0.13518274 Ry

     total magnetization       =     5.06 Bohr mag/cell
     absolute magnetization    =     5.26 Bohr mag/cell

     iteration #  7     ecut=    30.00 Ry     beta= 0.50
     Davidson diagonalization with overlap
     ethr =  8.41E-04,  avg # of iterations =  1.0

     total cpu time spent up to now is       30.7 secs

     total energy              =    -111.58237085 Ry
     estimated scf accuracy    <       0.13445633 Ry

     total magnetization       =     5.06 Bohr mag/cell
     absolute magnetization    =     5.26 Bohr mag/cell

     iteration #  8     ecut=    30.00 Ry     beta= 0.50
     Davidson diagonalization with overlap
     ethr =  8.40E-04,  avg # of iterations =  1.0

     total cpu time spent up to now is       31.7 secs

     total energy              =    -111.57235231 Ry
     estimated scf accuracy    <       0.05234355 Ry

     total magnetization       =     5.07 Bohr mag/cell
     absolute magnetization    =     5.28 Bohr mag/cell

     iteration #  9     ecut=    30.00 Ry     beta= 0.50
     Davidson diagonalization with overlap
     ethr =  3.27E-04,  avg # of iterations =  1.8

     total cpu time spent up to now is       32.9 secs

     total energy              =    -111.58230529 Ry
     estimated scf accuracy    <       0.01699307 Ry

     total magnetization       =     5.09 Bohr mag/cell
     absolute magnetization    =     5.33 Bohr mag/cell

     iteration # 10     ecut=    30.00 Ry     beta= 0.50
     Davidson diagonalization with overlap
     ethr =  1.06E-04,  avg # of iterations =  1.0

     total cpu time spent up to now is       33.9 secs

     total energy              =    -111.57264298 Ry
     estimated scf accuracy    <       0.02942755 Ry

     total magnetization       =     5.09 Bohr mag/cell
     absolute magnetization    =     5.33 Bohr mag/cell

     iteration # 11     ecut=    30.00 Ry     beta= 0.50
     Davidson diagonalization with overlap
     ethr =  1.06E-04,  avg # of iterations =  2.1

     total cpu time spent up to now is       35.2 secs

     total energy              =    -111.58046840 Ry
     estimated scf accuracy    <       0.00235549 Ry

     total magnetization       =     5.11 Bohr mag/cell
     absolute magnetization    =     5.35 Bohr mag/cell

     iteration # 12     ecut=    30.00 Ry     beta= 0.50
     Davidson diagonalization with overlap
     ethr =  1.47E-05,  avg # of iterations =  3.3

     total cpu time spent up to now is       36.8 secs

     total energy              =    -111.57664581 Ry
     estimated scf accuracy    <       0.03675702 Ry

     total magnetization       =     5.11 Bohr mag/cell
     absolute magnetization    =     5.34 Bohr mag/cell

     iteration # 13     ecut=    30.00 Ry     beta= 0.50
     Davidson diagonalization with overlap
     ethr =  1.47E-05,  avg # of iterations =  2.4

     total cpu time spent up to now is       38.2 secs

     total energy              =    -111.57732897 Ry
     estimated scf accuracy    <       0.00324790 Ry

     total magnetization       =     5.12 Bohr mag/cell
     absolute magnetization    =     5.37 Bohr mag/cell

     iteration # 14     ecut=    30.00 Ry     beta= 0.50
     Davidson diagonalization with overlap
     ethr =  1.47E-05,  avg # of iterations =  2.1

     total cpu time spent up to now is       39.7 secs

     total energy              =    -111.57792546 Ry
     estimated scf accuracy    <       0.00242159 Ry

     total magnetization       =     5.12 Bohr mag/cell
     absolute magnetization    =     5.40 Bohr mag/cell

     iteration # 15     ecut=    30.00 Ry     beta= 0.50
     Davidson diagonalization with overlap
     ethr =  1.47E-05,  avg # of iterations =  1.1

     total cpu time spent up to now is       41.0 secs

     total energy              =    -111.57805929 Ry
     estimated scf accuracy    <       0.00030269 Ry

     total magnetization       =     5.13 Bohr mag/cell
     absolute magnetization    =     5.40 Bohr mag/cell

     iteration # 16     ecut=    30.00 Ry     beta= 0.50
     Davidson diagonalization with overlap
     ethr =  1.89E-06,  avg # of iterations =  1.1

     total cpu time spent up to now is       42.0 secs

     total energy              =    -111.57806044 Ry
     estimated scf accuracy    <       0.00055859 Ry

     total magnetization       =     5.12 Bohr mag/cell
     absolute magnetization    =     5.40 Bohr mag/cell

     iteration # 17     ecut=    30.00 Ry     beta= 0.50
     Davidson diagonalization with overlap
     ethr =  1.89E-06,  avg # of iterations =  2.0

     total cpu time spent up to now is       43.2 secs

     total energy              =    -111.57803692 Ry
     estimated scf accuracy    <       0.00016399 Ry

     total magnetization       =     5.13 Bohr mag/cell
     absolute magnetization    =     5.40 Bohr mag/cell

     iteration # 18     ecut=    30.00 Ry     beta= 0.50
     Davidson diagonalization with overlap
     ethr =  1.02E-06,  avg # of iterations =  2.0

     total cpu time spent up to now is       44.5 secs

     total energy              =    -111.57808321 Ry
     estimated scf accuracy    <       0.00003970 Ry

     total magnetization       =     5.13 Bohr mag/cell
     absolute magnetization    =     5.40 Bohr mag/cell

     iteration # 19     ecut=    30.00 Ry     beta= 0.50
     Davidson diagonalization with overlap
     ethr =  2.48E-07,  avg # of iterations =  2.0

     total cpu time spent up to now is       45.7 secs

     total energy              =    -111.57808538 Ry
     estimated scf accuracy    <       0.00003734 Ry

     total magnetization       =     5.13 Bohr mag/cell
     absolute magnetization    =     5.40 Bohr mag/cell

     iteration # 20     ecut=    30.00 Ry     beta= 0.50
     Davidson diagonalization with overlap
     ethr =  2.33E-07,  avg # of iterations =  1.0

     total cpu time spent up to now is       46.7 secs

     total energy              =    -111.57808676 Ry
     estimated scf accuracy    <       0.00000453 Ry

     total magnetization       =     5.13 Bohr mag/cell
     absolute magnetization    =     5.40 Bohr mag/cell

     iteration # 21     ecut=    30.00 Ry     beta= 0.50
     Davidson diagonalization with overlap
     ethr =  2.83E-08,  avg # of iterations =  1.6

     total cpu time spent up to now is       47.8 secs

     total energy              =    -111.57808693 Ry
     estimated scf accuracy    <       0.00000249 Ry

     total magnetization       =     5.13 Bohr mag/cell
     absolute magnetization    =     5.40 Bohr mag/cell

     iteration # 22     ecut=    30.00 Ry     beta= 0.50
     Davidson diagonalization with overlap
     ethr =  1.56E-08,  avg # of iterations =  1.1

     total cpu time spent up to now is       48.9 secs

     total energy              =    -111.57808658 Ry
     estimated scf accuracy    <       0.00000137 Ry

     total magnetization       =     5.13 Bohr mag/cell
     absolute magnetization    =     5.40 Bohr mag/cell

     iteration # 23     ecut=    30.00 Ry     beta= 0.50
     Davidson diagonalization with overlap
     ethr =  8.55E-09,  avg # of iterations =  2.0

     Magnetic moment per site  (integrated on atomic sphere of radius R)
     atom   1 (R=0.412)  charge=  6.4843  magn=  2.6169
     atom   2 (R=0.412)  charge=  6.4844  magn=  2.6171

     total cpu time spent up to now is       50.7 secs

     End of self-consistent calculation

     Number of k-points >= 100: set verbosity='high' to print the bands.

     the Fermi energy is    12.7544 ev

!    total energy              =    -111.57808683 Ry
     estimated scf accuracy    <          4.1E-09 Ry
     smearing contrib. (-TS)   =      -0.00008052 Ry
     internal energy E=F+TS    =    -111.57800631 Ry

     The total energy is F=E-TS. E is the sum of the following terms:
     one-electron contribution =      12.46832936 Ry
     hartree contribution      =      13.85538187 Ry
     xc contribution           =     -52.89950764 Ry
     ewald contribution        =     -85.00220990 Ry

     total magnetization       =     5.13 Bohr mag/cell
     absolute magnetization    =     5.40 Bohr mag/cell

     convergence has been achieved in  23 iterations

     Forces acting on atoms (cartesian axes, Ry/au):

     atom    1 type  1   force =     0.00000000   -0.00000014    0.00000000
     atom    2 type  1   force =    -0.00000000    0.00000014    0.00000000
     The non-local contrib.  to forces
     atom    1 type  1   force =     0.00000000   -0.00000098    0.00000000
     atom    2 type  1   force =    -0.00000000    0.00000130    0.00000000
     The ionic contribution  to forces
     atom    1 type  1   force =     0.00000000    0.00000097   -0.00002587
     atom    2 type  1   force =     0.00000000   -0.00000097    0.00002587
     The local contribution  to forces
     atom    1 type  1   force =    -0.00000000   -0.00000006   -0.00000000
     atom    2 type  1   force =    -0.00000000   -0.00000015    0.00008267
     The core correction contribution to forces
     atom    1 type  1   force =    -0.00000000    0.00000012    0.00000002
     atom    2 type  1   force =    -0.00000000   -0.00000013    0.00001350
     The Hubbard contrib.    to forces
     atom    1 type  1   force =     0.00000000    0.00000000    0.00000000
     atom    2 type  1   force =     0.00000000    0.00000000    0.00000000
     The SCF correction term to forces
     atom    1 type  1   force =     0.00000000   -0.00000012   -0.00000000
     atom    2 type  1   force =    -0.00000000    0.00000016    0.00000000

     Total force =     0.000000     Total SCF correction =     0.000000
     SCF correction compared to forces is large: reduce conv_thr to get better values


     Computing stress (Cartesian axis) and pressure

          total   stress  (Ry/bohr**3)                   (kbar)     P=      -14.39
  -0.00032352   0.00000000   0.00000000          -47.59        0.00        0.00
   0.00000000  -0.00032353   0.00000000            0.00      -47.59        0.00
   0.00000000   0.00000000   0.00035368            0.00        0.00       52.03

     Energy error            =      1.0E-02 Ry
     Gradient error          =      1.4E-07 Ry/Bohr
     Cell gradient error     =      5.2E+01 kbar

     number of scf cycles    =   2
     number of bfgs steps    =   1

     enthalpy           old  =    -111.5680121133 Ry
     enthalpy           new  =    -111.5780868282 Ry

     CASE: enthalpy          _new < enthalpy          _old

     new trust radius        =       0.0306637075 bohr
     new conv_thr            =       0.0000000010 Ry

     new unit-cell volume =    164.15345 a.u.^3 (    24.32503 Ang^3 )
     density =      7.62448 g/cm^3

CELL_PARAMETERS (angstrom)
   2.545201263   0.000000000   0.000000000
  -1.272600632   2.204207233   0.000000000
   0.000000000   0.000000000   4.335896134

ATOMIC_POSITIONS (angstrom)
Fe            0.0000000000        0.0000009795        0.0000000000
Fe            0.0000000000        1.4694749145        2.1679465247



     Writing config-only to output data dir /home/gridsan/epan1/labutil/lab3_samples/problem1/Lab3/Fe_hcp_a_2.5_ecut_30_nk_9/pwscf.save/
     NEW-OLD atomic charge density approx. for the potential

     Check: negative core charge=   -0.000004
     extrapolated charge   15.96692, renormalised to   16.00000
     Generating pointlists ...

     total cpu time spent up to now is       52.5 secs

     Self-consistent Calculation

     iteration #  1     ecut=    30.00 Ry     beta= 0.50
     Davidson diagonalization with overlap
     ethr =  1.00E-06,  avg # of iterations =  5.4

     total cpu time spent up to now is       54.9 secs

     total energy              =    -111.57880720 Ry
     estimated scf accuracy    <       0.00057596 Ry

     total magnetization       =     5.12 Bohr mag/cell
     absolute magnetization    =     5.39 Bohr mag/cell

     iteration #  2     ecut=    30.00 Ry     beta= 0.50
     Davidson diagonalization with overlap
     ethr =  3.60E-06,  avg # of iterations =  3.5

     total cpu time spent up to now is       56.5 secs

     total energy              =    -111.57922757 Ry
     estimated scf accuracy    <       0.00099426 Ry

     total magnetization       =     5.12 Bohr mag/cell
     absolute magnetization    =     5.39 Bohr mag/cell

     iteration #  3     ecut=    30.00 Ry     beta= 0.50
     Davidson diagonalization with overlap
     ethr =  3.60E-06,  avg # of iterations =  1.6

     total cpu time spent up to now is       57.6 secs

     total energy              =    -111.57927110 Ry
     estimated scf accuracy    <       0.00052291 Ry

     total magnetization       =     5.12 Bohr mag/cell
     absolute magnetization    =     5.39 Bohr mag/cell

     iteration #  4     ecut=    30.00 Ry     beta= 0.50
     Davidson diagonalization with overlap
     ethr =  3.27E-06,  avg # of iterations =  1.0

     total cpu time spent up to now is       58.6 secs

     total energy              =    -111.57923033 Ry
     estimated scf accuracy    <       0.00013832 Ry

     total magnetization       =     5.12 Bohr mag/cell
     absolute magnetization    =     5.39 Bohr mag/cell

     iteration #  5     ecut=    30.00 Ry     beta= 0.50
     Davidson diagonalization with overlap
     ethr =  8.65E-07,  avg # of iterations =  3.1

     total cpu time spent up to now is       60.1 secs

     total energy              =    -111.57928468 Ry
     estimated scf accuracy    <       0.00009425 Ry

     total magnetization       =     5.12 Bohr mag/cell
     absolute magnetization    =     5.39 Bohr mag/cell

     iteration #  6     ecut=    30.00 Ry     beta= 0.50
     Davidson diagonalization with overlap
     ethr =  5.89E-07,  avg # of iterations =  1.0

     total cpu time spent up to now is       61.1 secs

     total energy              =    -111.57928076 Ry
     estimated scf accuracy    <       0.00001623 Ry

     total magnetization       =     5.12 Bohr mag/cell
     absolute magnetization    =     5.39 Bohr mag/cell

     iteration #  7     ecut=    30.00 Ry     beta= 0.50
     Davidson diagonalization with overlap
     ethr =  1.01E-07,  avg # of iterations =  3.3

     total cpu time spent up to now is       62.8 secs

     total energy              =    -111.57928889 Ry
     estimated scf accuracy    <       0.00000781 Ry

     total magnetization       =     5.12 Bohr mag/cell
     absolute magnetization    =     5.39 Bohr mag/cell

     iteration #  8     ecut=    30.00 Ry     beta= 0.50
     Davidson diagonalization with overlap
     ethr =  4.88E-08,  avg # of iterations =  1.0

     total cpu time spent up to now is       63.8 secs

     total energy              =    -111.57928791 Ry
     estimated scf accuracy    <       0.00000272 Ry

     total magnetization       =     5.12 Bohr mag/cell
     absolute magnetization    =     5.39 Bohr mag/cell

     iteration #  9     ecut=    30.00 Ry     beta= 0.50
     Davidson diagonalization with overlap
     ethr =  1.70E-08,  avg # of iterations =  2.3

     total cpu time spent up to now is       65.3 secs

     total energy              =    -111.57928858 Ry
     estimated scf accuracy    <          3.9E-09 Ry

     total magnetization       =     5.12 Bohr mag/cell
     absolute magnetization    =     5.39 Bohr mag/cell

     iteration # 10     ecut=    30.00 Ry     beta= 0.50
     Davidson diagonalization with overlap
     ethr =  2.44E-11,  avg # of iterations = 10.9

     total cpu time spent up to now is       69.1 secs

     total energy              =    -111.57928861 Ry
     estimated scf accuracy    <       0.00000014 Ry

     total magnetization       =     5.12 Bohr mag/cell
     absolute magnetization    =     5.39 Bohr mag/cell

     iteration # 11     ecut=    30.00 Ry     beta= 0.50
     Davidson diagonalization with overlap
     ethr =  2.44E-11,  avg # of iterations =  4.4

     Magnetic moment per site  (integrated on atomic sphere of radius R)
     atom   1 (R=0.412)  charge=  6.4886  magn=  2.6132
     atom   2 (R=0.412)  charge=  6.4886  magn=  2.6132

     total cpu time spent up to now is       70.9 secs

     End of self-consistent calculation

     Number of k-points >= 100: set verbosity='high' to print the bands.

     the Fermi energy is    12.7663 ev

!    total energy              =    -111.57928863 Ry
     estimated scf accuracy    <          8.8E-10 Ry
     smearing contrib. (-TS)   =       0.00006295 Ry
     internal energy E=F+TS    =    -111.57935158 Ry

     The total energy is F=E-TS. E is the sum of the following terms:
     one-electron contribution =      12.52286104 Ry
     hartree contribution      =      13.84736350 Ry
     xc contribution           =     -52.90378901 Ry
     ewald contribution        =     -85.04578711 Ry

     total magnetization       =     5.12 Bohr mag/cell
     absolute magnetization    =     5.39 Bohr mag/cell

     convergence has been achieved in  11 iterations

     Forces acting on atoms (cartesian axes, Ry/au):

     atom    1 type  1   force =     0.00000000   -0.00000030    0.00000000
     atom    2 type  1   force =    -0.00000000    0.00000030    0.00000000
     The non-local contrib.  to forces
     atom    1 type  1   force =     0.00000000   -0.00000096    0.00000000
     atom    2 type  1   force =    -0.00000000    0.00000104    0.00000000
     The ionic contribution  to forces
     atom    1 type  1   force =     0.00000000    0.00000048   -0.00002644
     atom    2 type  1   force =     0.00000000   -0.00000048    0.00002644
     The local contribution  to forces
     atom    1 type  1   force =    -0.00000000    0.00000011    0.00000000
     atom    2 type  1   force =    -0.00000000   -0.00000011    0.00008416
     The core correction contribution to forces
     atom    1 type  1   force =    -0.00000000    0.00000006    0.00000002
     atom    2 type  1   force =    -0.00000000   -0.00000006    0.00001369
     The Hubbard contrib.    to forces
     atom    1 type  1   force =     0.00000000    0.00000000    0.00000000
     atom    2 type  1   force =     0.00000000    0.00000000    0.00000000
     The SCF correction term to forces
     atom    1 type  1   force =     0.00000000    0.00000006    0.00000000
     atom    2 type  1   force =    -0.00000000   -0.00000006   -0.00000000

     Total force =     0.000000     Total SCF correction =     0.000000
     SCF correction compared to forces is large: reduce conv_thr to get better values


     Computing stress (Cartesian axis) and pressure

          total   stress  (Ry/bohr**3)                   (kbar)     P=      -10.45
  -0.00021845   0.00000000   0.00000000          -32.13        0.00        0.00
   0.00000000  -0.00021845   0.00000000            0.00      -32.14        0.00
   0.00000000   0.00000000   0.00022379            0.00        0.00       32.92

     Energy error            =      1.2E-03 Ry
     Gradient error          =      3.0E-07 Ry/Bohr
     Cell gradient error     =      3.3E+01 kbar

     number of scf cycles    =   3
     number of bfgs steps    =   2

     enthalpy           old  =    -111.5780868282 Ry
     enthalpy           new  =    -111.5792886295 Ry

     CASE: enthalpy          _new < enthalpy          _old

     new trust radius        =       0.0454052978 bohr
     new conv_thr            =       0.0000000010 Ry

     new unit-cell volume =    163.29872 a.u.^3 (    24.19837 Ang^3 )
     density =      7.66438 g/cm^3

CELL_PARAMETERS (angstrom)
   2.516370499   0.000000000   0.000000000
  -1.258185250   2.179237832   0.000000000
   0.000000000   0.000000000   4.412726056

ATOMIC_POSITIONS (angstrom)
Fe            0.0000000000        0.0000006857        0.0000000000
Fe            0.0000000000        1.4528288910        2.2063614582



     Writing config-only to output data dir /home/gridsan/epan1/labutil/lab3_samples/problem1/Lab3/Fe_hcp_a_2.5_ecut_30_nk_9/pwscf.save/
     NEW-OLD atomic charge density approx. for the potential

     Check: negative core charge=   -0.000004
     extrapolated charge   15.91626, renormalised to   16.00000
     Generating pointlists ...

     total cpu time spent up to now is       72.3 secs

     Self-consistent Calculation

     iteration #  1     ecut=    30.00 Ry     beta= 0.50
     Davidson diagonalization with overlap
     ethr =  1.00E-06,  avg # of iterations =  6.2

     total cpu time spent up to now is       74.9 secs

     total energy              =    -111.57696840 Ry
     estimated scf accuracy    <       0.00338462 Ry

     total magnetization       =     5.13 Bohr mag/cell
     absolute magnetization    =     5.38 Bohr mag/cell

     iteration #  2     ecut=    30.00 Ry     beta= 0.50
     Davidson diagonalization with overlap
     ethr =  2.12E-05,  avg # of iterations =  3.6

     total cpu time spent up to now is       76.5 secs

     total energy              =    -111.57973715 Ry
     estimated scf accuracy    <       0.00586075 Ry

     total magnetization       =     5.15 Bohr mag/cell
     absolute magnetization    =     5.40 Bohr mag/cell

     iteration #  3     ecut=    30.00 Ry     beta= 0.50
     Davidson diagonalization with overlap
     ethr =  2.12E-05,  avg # of iterations =  1.7

     total cpu time spent up to now is       77.7 secs

     total energy              =    -111.57946942 Ry
     estimated scf accuracy    <       0.00104740 Ry

     total magnetization       =     5.14 Bohr mag/cell
     absolute magnetization    =     5.39 Bohr mag/cell

     iteration #  4     ecut=    30.00 Ry     beta= 0.50
     Davidson diagonalization with overlap
     ethr =  6.55E-06,  avg # of iterations =  3.4

     total cpu time spent up to now is       79.7 secs

     total energy              =    -111.58000697 Ry
     estimated scf accuracy    <       0.00053046 Ry

     total magnetization       =     5.14 Bohr mag/cell
     absolute magnetization    =     5.39 Bohr mag/cell

     iteration #  5     ecut=    30.00 Ry     beta= 0.50
     Davidson diagonalization with overlap
     ethr =  3.32E-06,  avg # of iterations =  1.0

     total cpu time spent up to now is       80.8 secs

     total energy              =    -111.57996418 Ry
     estimated scf accuracy    <       0.00034070 Ry

     total magnetization       =     5.14 Bohr mag/cell
     absolute magnetization    =     5.39 Bohr mag/cell

     iteration #  6     ecut=    30.00 Ry     beta= 0.50
     Davidson diagonalization with overlap
     ethr =  2.13E-06,  avg # of iterations =  1.0

     total cpu time spent up to now is       81.8 secs

     total energy              =    -111.57992760 Ry
     estimated scf accuracy    <       0.00009771 Ry

     total magnetization       =     5.14 Bohr mag/cell
     absolute magnetization    =     5.39 Bohr mag/cell

     iteration #  7     ecut=    30.00 Ry     beta= 0.50
     Davidson diagonalization with overlap
     ethr =  6.11E-07,  avg # of iterations =  2.2

     total cpu time spent up to now is       83.5 secs

     total energy              =    -111.57995575 Ry
     estimated scf accuracy    <       0.00000121 Ry

     total magnetization       =     5.14 Bohr mag/cell
     absolute magnetization    =     5.39 Bohr mag/cell

     iteration #  8     ecut=    30.00 Ry     beta= 0.50
     Davidson diagonalization with overlap
     ethr =  7.53E-09,  avg # of iterations =  4.7

     total cpu time spent up to now is       85.4 secs

     total energy              =    -111.57995190 Ry
     estimated scf accuracy    <       0.00001455 Ry

     total magnetization       =     5.14 Bohr mag/cell
     absolute magnetization    =     5.39 Bohr mag/cell

     iteration #  9     ecut=    30.00 Ry     beta= 0.50
     Davidson diagonalization with overlap
     ethr =  7.53E-09,  avg # of iterations =  4.1

     total cpu time spent up to now is       87.2 secs

     total energy              =    -111.57995525 Ry
     estimated scf accuracy    <       0.00000024 Ry

     total magnetization       =     5.14 Bohr mag/cell
     absolute magnetization    =     5.39 Bohr mag/cell

     iteration # 10     ecut=    30.00 Ry     beta= 0.50
     Davidson diagonalization with overlap
     ethr =  1.48E-09,  avg # of iterations =  1.4

     total cpu time spent up to now is       88.2 secs

     total energy              =    -111.57995525 Ry
     estimated scf accuracy    <       0.00000007 Ry

     total magnetization       =     5.14 Bohr mag/cell
     absolute magnetization    =     5.39 Bohr mag/cell

     iteration # 11     ecut=    30.00 Ry     beta= 0.50
     Davidson diagonalization with overlap
     ethr =  4.40E-10,  avg # of iterations =  2.8

     total cpu time spent up to now is       89.6 secs

     total energy              =    -111.57995527 Ry
     estimated scf accuracy    <          9.2E-09 Ry

     total magnetization       =     5.14 Bohr mag/cell
     absolute magnetization    =     5.39 Bohr mag/cell

     iteration # 12     ecut=    30.00 Ry     beta= 0.50
     Davidson diagonalization with overlap
     ethr =  5.76E-11,  avg # of iterations =  4.7

     Magnetic moment per site  (integrated on atomic sphere of radius R)
     atom   1 (R=0.412)  charge=  6.4987  magn=  2.6176
     atom   2 (R=0.412)  charge=  6.4987  magn=  2.6176

     total cpu time spent up to now is       91.5 secs

     End of self-consistent calculation

     Number of k-points >= 100: set verbosity='high' to print the bands.

     the Fermi energy is    12.8178 ev

!    total energy              =    -111.57995527 Ry
     estimated scf accuracy    <          5.0E-10 Ry
     smearing contrib. (-TS)   =       0.00004275 Ry
     internal energy E=F+TS    =    -111.57999802 Ry

     The total energy is F=E-TS. E is the sum of the following terms:
     one-electron contribution =      12.65701542 Ry
     hartree contribution      =      13.83185745 Ry
     xc contribution           =     -52.91729718 Ry
     ewald contribution        =     -85.15157371 Ry

     total magnetization       =     5.14 Bohr mag/cell
     absolute magnetization    =     5.39 Bohr mag/cell

     convergence has been achieved in  12 iterations

     Forces acting on atoms (cartesian axes, Ry/au):

     atom    1 type  1   force =     0.00000000   -0.00000025    0.00000000
     atom    2 type  1   force =    -0.00000000    0.00000025    0.00000000
     The non-local contrib.  to forces
     atom    1 type  1   force =     0.00000000   -0.00000126    0.00000000
     atom    2 type  1   force =    -0.00000000    0.00000135    0.00000000
     The ionic contribution  to forces
     atom    1 type  1   force =     0.00000000   -0.00000005   -0.00002735
     atom    2 type  1   force =     0.00000000    0.00000005    0.00002735
     The local contribution  to forces
     atom    1 type  1   force =    -0.00000000    0.00000095   -0.00000000
     atom    2 type  1   force =    -0.00000000   -0.00000099    0.00008647
     The core correction contribution to forces
     atom    1 type  1   force =     0.00000000    0.00000011    0.00000002
     atom    2 type  1   force =    -0.00000000   -0.00000011    0.00001396
     The Hubbard contrib.    to forces
     atom    1 type  1   force =     0.00000000    0.00000000    0.00000000
     atom    2 type  1   force =     0.00000000    0.00000000    0.00000000
     The SCF correction term to forces
     atom    1 type  1   force =    -0.00000000    0.00000002    0.00000000
     atom    2 type  1   force =    -0.00000000   -0.00000002   -0.00000000

     Total force =     0.000000     Total SCF correction =     0.000000


     Computing stress (Cartesian axis) and pressure

          total   stress  (Ry/bohr**3)                   (kbar)     P=        4.02
   0.00004633  -0.00000000   0.00000000            6.81       -0.00        0.00
  -0.00000000   0.00004631   0.00000000           -0.00        6.81        0.00
   0.00000000   0.00000000  -0.00001056            0.00        0.00       -1.55

     Energy error            =      6.7E-04 Ry
     Gradient error          =      2.5E-07 Ry/Bohr
     Cell gradient error     =      6.8E+00 kbar

     number of scf cycles    =   4
     number of bfgs steps    =   3

     enthalpy           old  =    -111.5792886295 Ry
     enthalpy           new  =    -111.5799552721 Ry

     CASE: enthalpy          _new < enthalpy          _old

     new trust radius        =       0.0042383997 bohr
     new conv_thr            =       0.0000000010 Ry

     new unit-cell volume =    163.58654 a.u.^3 (    24.24102 Ang^3 )
     density =      7.65090 g/cm^3

CELL_PARAMETERS (angstrom)
   2.520543564   0.000000000   0.000000000
  -1.260271782   2.182851098   0.000000000
   0.000000000   0.000000000   4.405879883

ATOMIC_POSITIONS (angstrom)
Fe            0.0000000000        0.0000005798        0.0000000000
Fe            0.0000000000        1.4552378479        2.2029383739



     Writing config-only to output data dir /home/gridsan/epan1/labutil/lab3_samples/problem1/Lab3/Fe_hcp_a_2.5_ecut_30_nk_9/pwscf.save/
     NEW-OLD atomic charge density approx. for the potential

     Check: negative core charge=   -0.000004
     extrapolated charge   16.02815, renormalised to   16.00000
     Generating pointlists ...

     total cpu time spent up to now is       93.1 secs

     Self-consistent Calculation

     iteration #  1     ecut=    30.00 Ry     beta= 0.50
     Davidson diagonalization with overlap
     ethr =  1.00E-06,  avg # of iterations =  3.1

     total cpu time spent up to now is       94.8 secs

     total energy              =    -111.57964563 Ry
     estimated scf accuracy    <       0.00034252 Ry

     total magnetization       =     5.14 Bohr mag/cell
     absolute magnetization    =     5.39 Bohr mag/cell

     iteration #  2     ecut=    30.00 Ry     beta= 0.50
     Davidson diagonalization with overlap
     ethr =  2.14E-06,  avg # of iterations =  3.5

     total cpu time spent up to now is       96.4 secs

     total energy              =    -111.57994923 Ry
     estimated scf accuracy    <       0.00065215 Ry

     total magnetization       =     5.14 Bohr mag/cell
     absolute magnetization    =     5.39 Bohr mag/cell

     iteration #  3     ecut=    30.00 Ry     beta= 0.50
     Davidson diagonalization with overlap
     ethr =  2.14E-06,  avg # of iterations =  1.7

     total cpu time spent up to now is       97.5 secs

     total energy              =    -111.57997477 Ry
     estimated scf accuracy    <       0.00012186 Ry

     total magnetization       =     5.14 Bohr mag/cell
     absolute magnetization    =     5.39 Bohr mag/cell

     iteration #  4     ecut=    30.00 Ry     beta= 0.50
     Davidson diagonalization with overlap
     ethr =  7.62E-07,  avg # of iterations =  1.2

     total cpu time spent up to now is       98.5 secs

     total energy              =    -111.57994499 Ry
     estimated scf accuracy    <       0.00005900 Ry

     total magnetization       =     5.14 Bohr mag/cell
     absolute magnetization    =     5.39 Bohr mag/cell

     iteration #  5     ecut=    30.00 Ry     beta= 0.50
     Davidson diagonalization with overlap
     ethr =  3.69E-07,  avg # of iterations =  3.1

     total cpu time spent up to now is      100.0 secs

     total energy              =    -111.57997431 Ry
     estimated scf accuracy    <       0.00002139 Ry

     total magnetization       =     5.14 Bohr mag/cell
     absolute magnetization    =     5.39 Bohr mag/cell

     iteration #  6     ecut=    30.00 Ry     beta= 0.50
     Davidson diagonalization with overlap
     ethr =  1.34E-07,  avg # of iterations =  1.0

     total cpu time spent up to now is      101.0 secs

     total energy              =    -111.57996237 Ry
     estimated scf accuracy    <       0.00002550 Ry

     total magnetization       =     5.14 Bohr mag/cell
     absolute magnetization    =     5.39 Bohr mag/cell

     iteration #  7     ecut=    30.00 Ry     beta= 0.50
     Davidson diagonalization with overlap
     ethr =  1.34E-07,  avg # of iterations =  2.0

     total cpu time spent up to now is      102.2 secs

     total energy              =    -111.57996764 Ry
     estimated scf accuracy    <       0.00000002 Ry

     total magnetization       =     5.14 Bohr mag/cell
     absolute magnetization    =     5.39 Bohr mag/cell

     iteration #  8     ecut=    30.00 Ry     beta= 0.50
     Davidson diagonalization with overlap
     ethr =  1.25E-10,  avg # of iterations =  5.8

     total cpu time spent up to now is      104.9 secs

     total energy              =    -111.57996761 Ry
     estimated scf accuracy    <       0.00000117 Ry

     total magnetization       =     5.14 Bohr mag/cell
     absolute magnetization    =     5.39 Bohr mag/cell

     iteration #  9     ecut=    30.00 Ry     beta= 0.50
     Davidson diagonalization with overlap
     ethr =  1.25E-10,  avg # of iterations =  4.5

     total cpu time spent up to now is      106.9 secs

     total energy              =    -111.57996773 Ry
     estimated scf accuracy    <       0.00000005 Ry

     total magnetization       =     5.14 Bohr mag/cell
     absolute magnetization    =     5.39 Bohr mag/cell

     iteration # 10     ecut=    30.00 Ry     beta= 0.50
     Davidson diagonalization with overlap
     ethr =  1.25E-10,  avg # of iterations =  2.5

     Magnetic moment per site  (integrated on atomic sphere of radius R)
     atom   1 (R=0.412)  charge=  6.4960  magn=  2.6175
     atom   2 (R=0.412)  charge=  6.4960  magn=  2.6175

     total cpu time spent up to now is      108.3 secs

     End of self-consistent calculation

     Number of k-points >= 100: set verbosity='high' to print the bands.

     the Fermi energy is    12.7939 ev

!    total energy              =    -111.57996774 Ry
     estimated scf accuracy    <          7.9E-10 Ry
     smearing contrib. (-TS)   =       0.00004246 Ry
     internal energy E=F+TS    =    -111.58001020 Ry

     The total energy is F=E-TS. E is the sum of the following terms:
     one-electron contribution =      12.59661243 Ry
     hartree contribution      =      13.84504487 Ry
     xc contribution           =     -52.91416649 Ry
     ewald contribution        =     -85.10750101 Ry

     total magnetization       =     5.14 Bohr mag/cell
     absolute magnetization    =     5.39 Bohr mag/cell

     convergence has been achieved in  10 iterations

     Forces acting on atoms (cartesian axes, Ry/au):

     atom    1 type  1   force =     0.00000000   -0.00000056    0.00000000
     atom    2 type  1   force =    -0.00000000    0.00000056    0.00000000
     The non-local contrib.  to forces
     atom    1 type  1   force =     0.00000000   -0.00000168    0.00000000
     atom    2 type  1   force =    -0.00000000    0.00000176    0.00000000
     The ionic contribution  to forces
     atom    1 type  1   force =    -0.00000000   -0.00000036   -0.00002723
     atom    2 type  1   force =     0.00000000    0.00000036    0.00002723
     The local contribution  to forces
     atom    1 type  1   force =     0.00000000    0.00000151   -0.00000000
     atom    2 type  1   force =    -0.00000000   -0.00000152    0.00008626
     The core correction contribution to forces
     atom    1 type  1   force =    -0.00000000    0.00000014    0.00000002
     atom    2 type  1   force =    -0.00000000   -0.00000013    0.00001394
     The Hubbard contrib.    to forces
     atom    1 type  1   force =     0.00000000    0.00000000    0.00000000
     atom    2 type  1   force =     0.00000000    0.00000000    0.00000000
     The SCF correction term to forces
     atom    1 type  1   force =     0.00000000   -0.00000013    0.00000000
     atom    2 type  1   force =    -0.00000000    0.00000012   -0.00000000

     Total force =     0.000001     Total SCF correction =     0.000000
     SCF correction compared to forces is large: reduce conv_thr to get better values


     Computing stress (Cartesian axis) and pressure

          total   stress  (Ry/bohr**3)                   (kbar)     P=        0.25
  -0.00000060   0.00000000   0.00000000           -0.09        0.00        0.00
   0.00000000  -0.00000062   0.00000000            0.00       -0.09        0.00
   0.00000000   0.00000000   0.00000640            0.00        0.00        0.94

     Energy error            =      1.2E-05 Ry
     Gradient error          =      5.6E-07 Ry/Bohr
     Cell gradient error     =      9.4E-01 kbar

     number of scf cycles    =   5
     number of bfgs steps    =   4

     enthalpy           old  =    -111.5799552721 Ry
     enthalpy           new  =    -111.5799677399 Ry

     CASE: enthalpy          _new < enthalpy          _old

     new trust radius        =       0.0007408261 bohr
     new conv_thr            =       0.0000000010 Ry

     new unit-cell volume =    163.60932 a.u.^3 (    24.24440 Ang^3 )
     density =      7.64983 g/cm^3

CELL_PARAMETERS (angstrom)
   2.520354751   0.000000000   0.000000000
  -1.260177376   2.182686477   0.000000000
   0.000000000   0.000000000   4.407155866

ATOMIC_POSITIONS (angstrom)
Fe            0.0000000000        0.0000002961        0.0000000000
Fe            0.0000000000        1.4551283839        2.2035763654



     Writing config-only to output data dir /home/gridsan/epan1/labutil/lab3_samples/problem1/Lab3/Fe_hcp_a_2.5_ecut_30_nk_9/pwscf.save/
     NEW-OLD atomic charge density approx. for the potential

     Check: negative core charge=   -0.000004
     extrapolated charge   16.00223, renormalised to   16.00000
     Generating pointlists ...

     total cpu time spent up to now is      109.5 secs

     Self-consistent Calculation

     iteration #  1     ecut=    30.00 Ry     beta= 0.50
     Davidson diagonalization with overlap
     ethr =  1.00E-06,  avg # of iterations =  2.0

     Threshold (ethr) on eigenvalues was too large:
     Diagonalizing with lowered threshold

     Davidson diagonalization with overlap
     ethr =  1.04E-08,  avg # of iterations =  1.0

     total cpu time spent up to now is      111.9 secs

     total energy              =    -111.57996591 Ry
     estimated scf accuracy    <       0.00000208 Ry

     total magnetization       =     5.14 Bohr mag/cell
     absolute magnetization    =     5.39 Bohr mag/cell

     iteration #  2     ecut=    30.00 Ry     beta= 0.50
     Davidson diagonalization with overlap
     ethr =  1.30E-08,  avg # of iterations =  3.6

     total cpu time spent up to now is      113.5 secs

     total energy              =    -111.57996775 Ry
     estimated scf accuracy    <       0.00000417 Ry

     total magnetization       =     5.14 Bohr mag/cell
     absolute magnetization    =     5.39 Bohr mag/cell

     iteration #  3     ecut=    30.00 Ry     beta= 0.50
     Davidson diagonalization with overlap
     ethr =  1.30E-08,  avg # of iterations =  1.8

     total cpu time spent up to now is      114.6 secs

     total energy              =    -111.57996797 Ry
     estimated scf accuracy    <       0.00000125 Ry

     total magnetization       =     5.14 Bohr mag/cell
     absolute magnetization    =     5.39 Bohr mag/cell

     iteration #  4     ecut=    30.00 Ry     beta= 0.50
     Davidson diagonalization with overlap
     ethr =  7.79E-09,  avg # of iterations =  1.0

     total cpu time spent up to now is      115.6 secs

     total energy              =    -111.57996762 Ry
     estimated scf accuracy    <       0.00000058 Ry

     total magnetization       =     5.14 Bohr mag/cell
     absolute magnetization    =     5.39 Bohr mag/cell

     iteration #  5     ecut=    30.00 Ry     beta= 0.50
     Davidson diagonalization with overlap
     ethr =  3.60E-09,  avg # of iterations =  3.3

     total cpu time spent up to now is      117.1 secs

     total energy              =    -111.57996792 Ry
     estimated scf accuracy    <       0.00000040 Ry

     total magnetization       =     5.14 Bohr mag/cell
     absolute magnetization    =     5.39 Bohr mag/cell

     iteration #  6     ecut=    30.00 Ry     beta= 0.50
     Davidson diagonalization with overlap
     ethr =  2.52E-09,  avg # of iterations =  1.0

     total cpu time spent up to now is      118.1 secs

     total energy              =    -111.57996786 Ry
     estimated scf accuracy    <       0.00000017 Ry

     total magnetization       =     5.14 Bohr mag/cell
     absolute magnetization    =     5.39 Bohr mag/cell

     iteration #  7     ecut=    30.00 Ry     beta= 0.50
     Davidson diagonalization with overlap
     ethr =  1.06E-09,  avg # of iterations =  1.9

     total cpu time spent up to now is      119.3 secs

     total energy              =    -111.57996788 Ry
     estimated scf accuracy    <          9.8E-09 Ry

     total magnetization       =     5.14 Bohr mag/cell
     absolute magnetization    =     5.39 Bohr mag/cell

     iteration #  8     ecut=    30.00 Ry     beta= 0.50
     Davidson diagonalization with overlap
     ethr =  6.11E-11,  avg # of iterations =  3.8

     total cpu time spent up to now is      122.5 secs

     total energy              =    -111.57996789 Ry
     estimated scf accuracy    <          4.4E-09 Ry

     total magnetization       =     5.14 Bohr mag/cell
     absolute magnetization    =     5.39 Bohr mag/cell

     iteration #  9     ecut=    30.00 Ry     beta= 0.50
     Davidson diagonalization with overlap
     ethr =  2.74E-11,  avg # of iterations =  1.0

     total cpu time spent up to now is      123.6 secs

     total energy              =    -111.57996788 Ry
     estimated scf accuracy    <          3.4E-09 Ry

     total magnetization       =     5.14 Bohr mag/cell
     absolute magnetization    =     5.39 Bohr mag/cell

     iteration # 10     ecut=    30.00 Ry     beta= 0.50
     Davidson diagonalization with overlap
     ethr =  2.09E-11,  avg # of iterations =  2.2

     Magnetic moment per site  (integrated on atomic sphere of radius R)
     atom   1 (R=0.412)  charge=  6.4959  magn=  2.6178
     atom   2 (R=0.412)  charge=  6.4959  magn=  2.6178

     total cpu time spent up to now is      124.9 secs

     End of self-consistent calculation

     Number of k-points >= 100: set verbosity='high' to print the bands.

     the Fermi energy is    12.7915 ev

!    total energy              =    -111.57996788 Ry
     estimated scf accuracy    <          1.5E-10 Ry
     smearing contrib. (-TS)   =       0.00004018 Ry
     internal energy E=F+TS    =    -111.58000807 Ry

     The total energy is F=E-TS. E is the sum of the following terms:
     one-electron contribution =      12.58996263 Ry
     hartree contribution      =      13.84694011 Ry
     xc contribution           =     -52.91401423 Ry
     ewald contribution        =     -85.10289658 Ry

     total magnetization       =     5.14 Bohr mag/cell
     absolute magnetization    =     5.39 Bohr mag/cell

     convergence has been achieved in  10 iterations

     Forces acting on atoms (cartesian axes, Ry/au):

     atom    1 type  1   force =     0.00000000   -0.00000043    0.00000000
     atom    2 type  1   force =    -0.00000000    0.00000043    0.00000000
     The non-local contrib.  to forces
     atom    1 type  1   force =     0.00000000   -0.00000203    0.00000000
     atom    2 type  1   force =    -0.00000000    0.00000211    0.00000000
     The ionic contribution  to forces
     atom    1 type  1   force =     0.00000000   -0.00000071   -0.00002724
     atom    2 type  1   force =    -0.00000000    0.00000071    0.00002724
     The local contribution  to forces
     atom    1 type  1   force =     0.00000000    0.00000215   -0.00000000
     atom    2 type  1   force =     0.00000000   -0.00000217    0.00008630
     The core correction contribution to forces
     atom    1 type  1   force =     0.00000000    0.00000019    0.00000002
     atom    2 type  1   force =     0.00000000   -0.00000018    0.00001394
     The Hubbard contrib.    to forces
     atom    1 type  1   force =     0.00000000    0.00000000    0.00000000
     atom    2 type  1   force =     0.00000000    0.00000000    0.00000000
     The SCF correction term to forces
     atom    1 type  1   force =    -0.00000000    0.00000001   -0.00000000
     atom    2 type  1   force =    -0.00000000   -0.00000001    0.00000000

     Total force =     0.000001     Total SCF correction =     0.000000


     Computing stress (Cartesian axis) and pressure

          total   stress  (Ry/bohr**3)                   (kbar)     P=       -0.43
  -0.00000315  -0.00000000   0.00000000           -0.46       -0.00        0.00
   0.00000000  -0.00000317   0.00000000            0.00       -0.47        0.00
   0.00000000   0.00000000  -0.00000241            0.00        0.00       -0.36

     Energy error            =      1.4E-07 Ry
     Gradient error          =      4.3E-07 Ry/Bohr
     Cell gradient error     =      4.7E-01 kbar

     bfgs converged in   6 scf cycles and   5 bfgs steps
     (criteria: energy <  1.0E-04 Ry, force <  1.0E-03 Ry/Bohr, cell <  5.0E-01 kbar)

     End of BFGS Geometry Optimization

     Final enthalpy           =    -111.5799678847 Ry

     File /home/gridsan/epan1/labutil/lab3_samples/problem1/Lab3/Fe_hcp_a_2.5_ecut_30_nk_9/pwscf.bfgs deleted, as requested
Begin final coordinates
     new unit-cell volume =    163.60932 a.u.^3 (    24.24440 Ang^3 )
     density =      7.64983 g/cm^3

CELL_PARAMETERS (angstrom)
   2.520354751   0.000000000   0.000000000
  -1.260177376   2.182686477   0.000000000
   0.000000000   0.000000000   4.407155866

ATOMIC_POSITIONS (angstrom)
Fe            0.0000000000        0.0000002961        0.0000000000
Fe            0.0000000000        1.4551283839        2.2035763654
End final coordinates



     Writing config-only to output data dir /home/gridsan/epan1/labutil/lab3_samples/problem1/Lab3/Fe_hcp_a_2.5_ecut_30_nk_9/pwscf.save/

     Final scf calculation at the relaxed structure.
     The G-vectors are recalculated for the final unit cell
     Results may differ from those at the preceding step.

     Parallelization info
     --------------------
     sticks:   dense  smooth     PW     G-vecs:    dense   smooth      PW
     Min          46      23      7                 1285      453      87
     Max          48      24      8                 1288      460      92
     Sum         379     187     61                10295     3647     713

     Using Slab Decomposition



     bravais-lattice index     =            0
     lattice parameter (alat)  =       4.7243  a.u.
     unit-cell volume          =     163.6093 (a.u.)^3
     number of atoms/cell      =            2
     number of atomic types    =            1
     number of electrons       =        16.00
     number of Kohn-Sham states=           12
     kinetic-energy cutoff     =      30.0000  Ry
     charge density cutoff     =     240.0000  Ry
     scf convergence threshold =      1.0E-09
     mixing beta               =       0.5000
     number of iterations used =            8  plain     mixing
     press convergence thresh. =      5.0E-01
     Exchange-correlation=  SLA  PW   PBE  PBE
                           (   1   4   3   4   0   0   0)

     celldm(1)=   4.724315  celldm(2)=   0.000000  celldm(3)=   0.000000
     celldm(4)=   0.000000  celldm(5)=   0.000000  celldm(6)=   0.000000

     crystal axes: (cart. coord. in units of alat)
               a(1) = (   1.008142   0.000000   0.000000 )  
               a(2) = (  -0.504071   0.873075   0.000000 )  
               a(3) = (   0.000000   0.000000   1.762862 )  

     reciprocal axes: (cart. coord. in units 2 pi/alat)
               b(1) = (  0.991924  0.572689 -0.000000 )  
               b(2) = ( -0.000000  1.145378  0.000000 )  
               b(3) = (  0.000000 -0.000000  0.567259 )  


     PseudoPot. # 1 for Fe read from file:
     /home/gridsan/epan1/labutil/lab3_samples/pseudopotentials/Fe.pbe-nd-rrkjus.UPF
     MD5 check sum: 398036227a04b607635f6f5e8dfd8242
     Pseudo is Ultrasoft + core correction, Zval =  8.0
     Generated by new atomic code, or converted to UPF format
     Using radial grid of  957 points,  6 beta functions with: 
                l(1) =   0
                l(2) =   0
                l(3) =   1
                l(4) =   1
                l(5) =   2
                l(6) =   2
     Q(r) pseudized with 0 coefficients 


     atomic species   valence    mass     pseudopotential
        Fe             8.00    55.84500     Fe( 1.00)

     Starting magnetic structure 
     atomic species   magnetization
        Fe           0.403

      4 Sym. Ops. (no inversion) found



   Cartesian axes

     site n.     atom                  positions (alat units)
         1           Fe  tau(   1) = (   0.0000000   0.0000001   0.0000000  )
         2           Fe  tau(   2) = (   0.0000000   0.5820514   0.8814305  )

     number of k points=   125  Methfessel-Paxton smearing, width (Ry)=  0.0200

     Number of k-points >= 100: set verbosity='high' to print them.

     Dense  grid:    10295 G-vectors     FFT dimensions: (  24,  24,  45)

     Smooth grid:     3647 G-vectors     FFT dimensions: (  18,  18,  30)

     Estimated max dynamical RAM per process >      10.37 MB

     Estimated total dynamical RAM >      82.95 MB
     Generating pointlists ...

     Initial potential from superposition of free atoms

     starting charge      15.9987, renormalised to      16.0000
     Starting wfcs are   12 randomized atomic wfcs

     total cpu time spent up to now is      126.7 secs

     Self-consistent Calculation

     iteration #  1     ecut=    30.00 Ry     beta= 0.50
     Davidson diagonalization with overlap
     c_bands:  1 eigenvalues not converged
     c_bands:  1 eigenvalues not converged
     c_bands:  1 eigenvalues not converged
     c_bands:  1 eigenvalues not converged
     c_bands:  1 eigenvalues not converged
     c_bands:  1 eigenvalues not converged
     c_bands:  1 eigenvalues not converged
     c_bands:  1 eigenvalues not converged
     c_bands:  1 eigenvalues not converged
     c_bands:  1 eigenvalues not converged
     c_bands:  1 eigenvalues not converged
     c_bands:  1 eigenvalues not converged
     c_bands:  1 eigenvalues not converged
     c_bands:  1 eigenvalues not converged
     c_bands:  1 eigenvalues not converged
     c_bands:  1 eigenvalues not converged
     c_bands:  1 eigenvalues not converged
     c_bands:  1 eigenvalues not converged
     c_bands:  1 eigenvalues not converged
     c_bands:  1 eigenvalues not converged
     c_bands:  1 eigenvalues not converged
     c_bands:  1 eigenvalues not converged
     c_bands:  1 eigenvalues not converged
     c_bands:  1 eigenvalues not converged
     ethr =  1.00E-06,  avg # of iterations = 15.7

     total cpu time spent up to now is      132.3 secs

     total energy              =    -111.30132656 Ry
     estimated scf accuracy    <       0.72627159 Ry

     total magnetization       =     4.77 Bohr mag/cell
     absolute magnetization    =     4.77 Bohr mag/cell

     iteration #  2     ecut=    30.00 Ry     beta= 0.50
     Davidson diagonalization with overlap
     ethr =  4.54E-03,  avg # of iterations =  2.3

     total cpu time spent up to now is      133.6 secs

     total energy              =    -111.54686666 Ry
     estimated scf accuracy    <       0.16964593 Ry

     total magnetization       =     5.09 Bohr mag/cell
     absolute magnetization    =     5.12 Bohr mag/cell

     iteration #  3     ecut=    30.00 Ry     beta= 0.50
     Davidson diagonalization with overlap
     ethr =  1.06E-03,  avg # of iterations =  1.4

     total cpu time spent up to now is      134.7 secs

     total energy              =    -111.57167507 Ry
     estimated scf accuracy    <       0.01053155 Ry

     total magnetization       =     5.13 Bohr mag/cell
     absolute magnetization    =     5.18 Bohr mag/cell

     iteration #  4     ecut=    30.00 Ry     beta= 0.50
     Davidson diagonalization with overlap
     ethr =  6.58E-05,  avg # of iterations =  3.1

     total cpu time spent up to now is      136.4 secs

     total energy              =    -111.57616975 Ry
     estimated scf accuracy    <       0.00684842 Ry

     total magnetization       =     5.15 Bohr mag/cell
     absolute magnetization    =     5.30 Bohr mag/cell

     iteration #  5     ecut=    30.00 Ry     beta= 0.50
     Davidson diagonalization with overlap
     ethr =  4.28E-05,  avg # of iterations =  2.8

     total cpu time spent up to now is      138.1 secs

     total energy              =    -111.58101140 Ry
     estimated scf accuracy    <       0.00768296 Ry

     total magnetization       =     5.13 Bohr mag/cell
     absolute magnetization    =     5.37 Bohr mag/cell

     iteration #  6     ecut=    30.00 Ry     beta= 0.50
     Davidson diagonalization with overlap
     ethr =  4.28E-05,  avg # of iterations =  1.0

     total cpu time spent up to now is      139.1 secs

     total energy              =    -111.57980881 Ry
     estimated scf accuracy    <       0.00676871 Ry

     total magnetization       =     5.13 Bohr mag/cell
     absolute magnetization    =     5.38 Bohr mag/cell

     iteration #  7     ecut=    30.00 Ry     beta= 0.50
     Davidson diagonalization with overlap
     ethr =  4.23E-05,  avg # of iterations =  1.0

     total cpu time spent up to now is      140.1 secs

     total energy              =    -111.57998742 Ry
     estimated scf accuracy    <       0.00062608 Ry

     total magnetization       =     5.14 Bohr mag/cell
     absolute magnetization    =     5.38 Bohr mag/cell

     iteration #  8     ecut=    30.00 Ry     beta= 0.50
     Davidson diagonalization with overlap
     ethr =  3.91E-06,  avg # of iterations =  2.2

     total cpu time spent up to now is      141.4 secs

     total energy              =    -111.58018189 Ry
     estimated scf accuracy    <       0.00000444 Ry

     total magnetization       =     5.14 Bohr mag/cell
     absolute magnetization    =     5.38 Bohr mag/cell

     iteration #  9     ecut=    30.00 Ry     beta= 0.50
     Davidson diagonalization with overlap
     ethr =  2.77E-08,  avg # of iterations =  7.4

     total cpu time spent up to now is      144.2 secs

     total energy              =    -111.58018800 Ry
     estimated scf accuracy    <       0.00006468 Ry

     total magnetization       =     5.14 Bohr mag/cell
     absolute magnetization    =     5.39 Bohr mag/cell

     iteration # 10     ecut=    30.00 Ry     beta= 0.50
     Davidson diagonalization with overlap
     ethr =  2.77E-08,  avg # of iterations =  4.0

     total cpu time spent up to now is      145.9 secs

     total energy              =    -111.58019660 Ry
     estimated scf accuracy    <       0.00000123 Ry

     total magnetization       =     5.14 Bohr mag/cell
     absolute magnetization    =     5.39 Bohr mag/cell

     iteration # 11     ecut=    30.00 Ry     beta= 0.50
     Davidson diagonalization with overlap
     ethr =  7.67E-09,  avg # of iterations =  2.3

     total cpu time spent up to now is      147.7 secs

     total energy              =    -111.58019703 Ry
     estimated scf accuracy    <       0.00000002 Ry

     total magnetization       =     5.14 Bohr mag/cell
     absolute magnetization    =     5.39 Bohr mag/cell

     iteration # 12     ecut=    30.00 Ry     beta= 0.50
     Davidson diagonalization with overlap
     ethr =  1.06E-10,  avg # of iterations =  8.2

     total cpu time spent up to now is      151.1 secs

     total energy              =    -111.58019706 Ry
     estimated scf accuracy    <       0.00000007 Ry

     total magnetization       =     5.14 Bohr mag/cell
     absolute magnetization    =     5.39 Bohr mag/cell

     iteration # 13     ecut=    30.00 Ry     beta= 0.50
     Davidson diagonalization with overlap
     ethr =  1.06E-10,  avg # of iterations =  4.2

     total cpu time spent up to now is      152.9 secs

     total energy              =    -111.58019708 Ry
     estimated scf accuracy    <       0.00000006 Ry

     total magnetization       =     5.14 Bohr mag/cell
     absolute magnetization    =     5.39 Bohr mag/cell

     iteration # 14     ecut=    30.00 Ry     beta= 0.50
     Davidson diagonalization with overlap
     ethr =  1.06E-10,  avg # of iterations =  3.2

     Magnetic moment per site  (integrated on atomic sphere of radius R)
     atom   1 (R=0.412)  charge=  6.4963  magn=  2.6176
     atom   2 (R=0.412)  charge=  6.4956  magn=  2.6176

     total cpu time spent up to now is      154.4 secs

     End of self-consistent calculation

     Number of k-points >= 100: set verbosity='high' to print the bands.

     the Fermi energy is    12.7894 ev

!    total energy              =    -111.58019709 Ry
     estimated scf accuracy    <          9.8E-11 Ry
     smearing contrib. (-TS)   =       0.00004064 Ry
     internal energy E=F+TS    =    -111.58023773 Ry

     The total energy is F=E-TS. E is the sum of the following terms:
     one-electron contribution =      12.58933520 Ry
     hartree contribution      =      13.84569623 Ry
     xc contribution           =     -52.91237264 Ry
     ewald contribution        =     -85.10289652 Ry

     total magnetization       =     5.14 Bohr mag/cell
     absolute magnetization    =     5.39 Bohr mag/cell

     convergence has been achieved in  14 iterations

     Forces acting on atoms (cartesian axes, Ry/au):

     atom    1 type  1   force =     0.00000000   -0.00000069    0.00000000
     atom    2 type  1   force =    -0.00000000    0.00000069    0.00000000
     The non-local contrib.  to forces
     atom    1 type  1   force =     0.00000000   -0.00000208    0.00000000
     atom    2 type  1   force =    -0.00000000    0.00000215    0.00000000
     The ionic contribution  to forces
     atom    1 type  1   force =    -0.00000000   -0.00000071   -0.00002724
     atom    2 type  1   force =    -0.00000000    0.00000071    0.00002724
     The local contribution  to forces
     atom    1 type  1   force =    -0.00000000    0.00000213   -0.00000000
     atom    2 type  1   force =    -0.00000000   -0.00000209    0.00008628
     The core correction contribution to forces
     atom    1 type  1   force =    -0.00000000    0.00000017   -0.00000000
     atom    2 type  1   force =     0.00000000   -0.00000015    0.00001394
     The Hubbard contrib.    to forces
     atom    1 type  1   force =     0.00000000    0.00000000    0.00000000
     atom    2 type  1   force =     0.00000000    0.00000000    0.00000000
     The SCF correction term to forces
     atom    1 type  1   force =     0.00000000   -0.00000018    0.00000000
     atom    2 type  1   force =     0.00000000    0.00000009   -0.00000000

     Total force =     0.000001     Total SCF correction =     0.000000
     SCF correction compared to forces is large: reduce conv_thr to get better values


     Computing stress (Cartesian axis) and pressure

          total   stress  (Ry/bohr**3)                   (kbar)     P=       -6.59
  -0.00003510   0.00000000   0.00000000           -5.16        0.00        0.00
   0.00000000  -0.00003512   0.00000000            0.00       -5.17        0.00
   0.00000000   0.00000000  -0.00006423            0.00        0.00       -9.45


     init_run     :      1.02s CPU      1.19s WALL (       2 calls)
     electrons    :    152.70s CPU    144.66s WALL (       7 calls)
     update_pot   :      0.40s CPU      0.48s WALL (       5 calls)
     forces       :      1.25s CPU      1.87s WALL (       7 calls)
     stress       :      4.00s CPU      4.66s WALL (       7 calls)

     Called by init_run:
     wfcinit      :      0.49s CPU      0.56s WALL (       2 calls)
     potinit      :      0.13s CPU      0.14s WALL (       2 calls)
     hinit0       :      0.37s CPU      0.38s WALL (       2 calls)

     Called by electrons:
     c_bands      :    135.62s CPU    127.12s WALL (      92 calls)
     sum_band     :     14.91s CPU     14.28s WALL (      92 calls)
     v_of_rho     :      1.00s CPU      1.19s WALL (      98 calls)
     newd         :      0.53s CPU      0.54s WALL (      98 calls)
     mix_rho      :      0.38s CPU      0.39s WALL (      92 calls)

     Called by c_bands:
     init_us_2    :      1.82s CPU      1.73s WALL (   50000 calls)
     init_us_2:cp :      1.73s CPU      1.64s WALL (   50000 calls)
     cegterg      :    121.27s CPU    109.74s WALL (   23000 calls)

     Called by *egterg:
     cdiaghg      :     26.48s CPU     24.02s WALL (   88385 calls)
     h_psi        :     77.27s CPU     69.80s WALL (   90385 calls)
     s_psi        :      2.38s CPU      2.13s WALL (   90385 calls)
     g_psi        :      0.31s CPU      0.28s WALL (   66885 calls)

     Called by h_psi:
     h_psi:calbec :      6.05s CPU      5.47s WALL (   90385 calls)
     vloc_psi     :     68.76s CPU     62.05s WALL (   90385 calls)
     add_vuspsi   :      1.81s CPU      1.63s WALL (   90385 calls)

     General routines
     calbec       :      8.24s CPU      7.59s WALL (  122135 calls)
     fft          :      0.96s CPU      0.90s WALL (    2723 calls)
     ffts         :      0.29s CPU      0.29s WALL (     380 calls)
     fftw         :     71.37s CPU     64.53s WALL ( 1917764 calls)
     interpolate  :      0.25s CPU      0.25s WALL (     196 calls)

     Parallel routines

     PWSCF        :   2m39.90s CPU   2m35.66s WALL


   This run was terminated on:  18: 5:51   1Nov2023            

=------------------------------------------------------------------------------=
   JOB DONE.
=------------------------------------------------------------------------------=
