
     Program PWSCF v.7.2 starts on  3Nov2023 at 11: 6:21 

     This program is part of the open-source Quantum ESPRESSO suite
     for quantum simulation of materials; please cite
         "P. Giannozzi et al., J. Phys.:Condens. Matter 21 395502 (2009);
         "P. Giannozzi et al., J. Phys.:Condens. Matter 29 465901 (2017);
         "P. Giannozzi et al., J. Chem. Phys. 152 154105 (2020);
          URL http://www.quantum-espresso.org", 
     in publications or presentations arising from this work. More details at
     http://www.quantum-espresso.org/quote

     Parallel version (MPI), running on     8 processors

     MPI processes distributed on     8 nodes
     185437 MiB available memory on the printing compute node when the environment starts

     Waiting for input...
     Reading input from standard input

     Current dimensions of program PWSCF are:
     Max number of different atomic species (ntypx) = 10
     Max number of k-points (npk) =  40000
     Max angular momentum in pseudopotentials (lmaxx) =  4
     Message from routine setup:
     using ibrav=0 with symmetry is DISCOURAGED, use correct ibrav instead

     R & G space division:  proc/nbgrp/npool/nimage =       8
     Subspace diagonalization in iterative solution of the eigenvalue problem:
     a serial algorithm will be used


     Parallelization info
     --------------------
     sticks:   dense  smooth     PW     G-vecs:    dense   smooth      PW
     Min          79      39     13                 1301      461      90
     Max          80      40     14                 1303      463      91
     Sum         637     313    109                10417     3695     725

     Using Slab Decomposition



     bravais-lattice index     =            0
     lattice parameter (alat)  =       5.3450  a.u.
     unit-cell volume          =     107.9734 (a.u.)^3
     number of atoms/cell      =            1
     number of atomic types    =            1
     number of electrons       =        11.00
     number of Kohn-Sham states=           10
     kinetic-energy cutoff     =      40.0000  Ry
     charge density cutoff     =     320.0000  Ry
     scf convergence threshold =      1.0E-07
     mixing beta               =       0.5000
     number of iterations used =            8  plain     mixing
     energy convergence thresh.=      1.0E-04
     force convergence thresh. =      1.0E-03
     press convergence thresh. =      5.0E-01
     Exchange-correlation=  SLA  PZ   NOGX NOGC
                           (   1   1   0   0   0   0   0)
     nstep                     =           50


     celldm(1)=   5.344953  celldm(2)=   0.000000  celldm(3)=   0.000000
     celldm(4)=   0.000000  celldm(5)=   0.000000  celldm(6)=   0.000000

     crystal axes: (cart. coord. in units of alat)
               a(1) = (   0.000000   0.707107   0.707107 )  
               a(2) = (   0.707107   0.000000   0.707107 )  
               a(3) = (   0.707107   0.707107   0.000000 )  

     reciprocal axes: (cart. coord. in units 2 pi/alat)
               b(1) = ( -0.707107  0.707107  0.707107 )  
               b(2) = (  0.707107 -0.707107  0.707107 )  
               b(3) = (  0.707107  0.707107 -0.707107 )  


     PseudoPot. # 1 for Au read from file:
     /home/gridsan/epan1/labutil/lab3_samples/pseudopotentials/Au.pz-d-rrkjus.UPF
     MD5 check sum: 424ffd4ac9c90487cbadcd287136c95b
     Pseudo is Ultrasoft, Zval = 11.0
     Generated by new atomic code, or converted to UPF format
     Using radial grid of 1279 points,  3 beta functions with: 
                l(1) =   2
                l(2) =   2
                l(3) =   1
     Q(r) pseudized with 0 coefficients 


     atomic species   valence    mass     pseudopotential
        Au            11.00   196.96657     Au( 1.00)

     Starting magnetic structure 
     atomic species   magnetization
        Au           0.700

     48 Sym. Ops., with inversion, found



   Cartesian axes

     site n.     atom                  positions (alat units)
         1           Au  tau(   1) = (   0.0000000   0.0000000   0.0000000  )

     number of k points=    16  Methfessel-Paxton smearing, width (Ry)=  0.0200
                       cart. coord. in units 2pi/alat
        k(    1) = (   0.0000000   0.0000000   0.0000000), wk =   0.0046296
        k(    2) = (   0.1178511   0.1178511  -0.1178511), wk =   0.0370370
        k(    3) = (   0.2357023   0.2357023  -0.2357023), wk =   0.0370370
        k(    4) = (  -0.3535534  -0.3535534   0.3535534), wk =   0.0185185
        k(    5) = (   0.2357023   0.0000000   0.0000000), wk =   0.0277778
        k(    6) = (   0.3535534   0.1178511  -0.1178511), wk =   0.1111111
        k(    7) = (  -0.2357023  -0.4714045   0.4714045), wk =   0.1111111
        k(    8) = (  -0.1178511  -0.3535534   0.3535534), wk =   0.1111111
        k(    9) = (   0.0000000  -0.2357023   0.2357023), wk =   0.0555556
        k(   10) = (   0.4714045   0.0000000   0.0000000), wk =   0.0277778
        k(   11) = (  -0.1178511  -0.5892557   0.5892557), wk =   0.1111111
        k(   12) = (  -0.0000000  -0.4714045   0.4714045), wk =   0.0555556
        k(   13) = (  -0.7071068   0.0000000   0.0000000), wk =   0.0138889
        k(   14) = (  -0.2357023  -0.4714045   0.7071068), wk =   0.1111111
        k(   15) = (  -0.1178511  -0.3535534   0.5892557), wk =   0.1111111
        k(   16) = (  -0.7071068   0.2357023   0.0000000), wk =   0.0555556

     Dense  grid:    10417 G-vectors     FFT dimensions: (  32,  32,  32)

     Smooth grid:     3695 G-vectors     FFT dimensions: (  24,  24,  24)

     Estimated max dynamical RAM per process >       4.92 MB

     Estimated total dynamical RAM >      39.40 MB
     Generating pointlists ...
     new r_m :   0.4125 (alat units)  2.2048 (a.u.) for type    1

     Initial potential from superposition of free atoms

     starting charge      10.9999, renormalised to      11.0000
     Starting wfcs are    9 randomized atomic wfcs +    1 random wfcs

     total cpu time spent up to now is        0.5 secs

     Self-consistent Calculation

     iteration #  1     ecut=    40.00 Ry     beta= 0.50
     Davidson diagonalization with overlap
     ethr =  1.00E-02,  avg # of iterations =  5.5

     total cpu time spent up to now is        0.7 secs

     total energy              =     -66.47044688 Ry
     estimated scf accuracy    <       0.46550276 Ry

     total magnetization       =     1.35 Bohr mag/cell
     absolute magnetization    =     1.37 Bohr mag/cell

     iteration #  2     ecut=    40.00 Ry     beta= 0.50
     Davidson diagonalization with overlap
     ethr =  4.23E-03,  avg # of iterations =  1.4

     total cpu time spent up to now is        0.8 secs

     total energy              =     -66.76333304 Ry
     estimated scf accuracy    <       0.14131454 Ry

     total magnetization       =     0.50 Bohr mag/cell
     absolute magnetization    =     0.57 Bohr mag/cell

     iteration #  3     ecut=    40.00 Ry     beta= 0.50
     Davidson diagonalization with overlap
     ethr =  1.28E-03,  avg # of iterations =  1.0

     total cpu time spent up to now is        0.9 secs

     total energy              =     -66.85028133 Ry
     estimated scf accuracy    <       0.04460052 Ry

     total magnetization       =     0.37 Bohr mag/cell
     absolute magnetization    =     0.41 Bohr mag/cell

     iteration #  4     ecut=    40.00 Ry     beta= 0.50
     Davidson diagonalization with overlap
     ethr =  4.05E-04,  avg # of iterations =  1.7

     total cpu time spent up to now is        1.1 secs

     total energy              =     -66.86634656 Ry
     estimated scf accuracy    <       0.00234658 Ry

     total magnetization       =     0.01 Bohr mag/cell
     absolute magnetization    =     0.05 Bohr mag/cell

     iteration #  5     ecut=    40.00 Ry     beta= 0.50
     Davidson diagonalization with overlap
     ethr =  2.13E-05,  avg # of iterations =  2.4

     total cpu time spent up to now is        1.2 secs

     total energy              =     -66.86720301 Ry
     estimated scf accuracy    <       0.00015306 Ry

     total magnetization       =    -0.02 Bohr mag/cell
     absolute magnetization    =     0.02 Bohr mag/cell

     iteration #  6     ecut=    40.00 Ry     beta= 0.50
     Davidson diagonalization with overlap
     ethr =  1.39E-06,  avg # of iterations =  1.8

     total cpu time spent up to now is        1.4 secs

     total energy              =     -66.86724493 Ry
     estimated scf accuracy    <       0.00002064 Ry

     total magnetization       =     0.01 Bohr mag/cell
     absolute magnetization    =     0.01 Bohr mag/cell

     iteration #  7     ecut=    40.00 Ry     beta= 0.50
     Davidson diagonalization with overlap
     ethr =  1.88E-07,  avg # of iterations =  1.5

     total cpu time spent up to now is        1.5 secs

     total energy              =     -66.86725210 Ry
     estimated scf accuracy    <       0.00000208 Ry

     total magnetization       =     0.00 Bohr mag/cell
     absolute magnetization    =     0.00 Bohr mag/cell

     iteration #  8     ecut=    40.00 Ry     beta= 0.50
     Davidson diagonalization with overlap
     ethr =  1.89E-08,  avg # of iterations =  1.5

     total cpu time spent up to now is        1.6 secs

     total energy              =     -66.86725272 Ry
     estimated scf accuracy    <       0.00000014 Ry

     total magnetization       =    -0.00 Bohr mag/cell
     absolute magnetization    =     0.00 Bohr mag/cell

     iteration #  9     ecut=    40.00 Ry     beta= 0.50
     Davidson diagonalization with overlap
     ethr =  1.29E-09,  avg # of iterations =  1.5

     Magnetic moment per site  (integrated on atomic sphere of radius R)
     atom   1 (R=0.413)  charge=  9.2991  magn= -0.0001

     total cpu time spent up to now is        1.7 secs

     End of self-consistent calculation

 ------ SPIN UP ------------


          k = 0.0000 0.0000 0.0000 (   459 PWs)   bands (ev):

     6.3995  12.0197  12.0197  12.0197  13.7176  13.7176  33.5444  37.4097
    37.4097  37.4097

          k = 0.1179 0.1179-0.1179 (   471 PWs)   bands (ev):

     7.3779  11.7731  12.2947  12.2947  13.6607  13.6607  32.1463  34.5468
    38.0156  38.0156

          k = 0.2357 0.2357-0.2357 (   468 PWs)   bands (ev):

     8.9546  12.1861  12.1861  12.7495  14.4095  14.4095  25.2936  33.5625
    37.0180  37.0180

          k =-0.3536-0.3536 0.3536 (   464 PWs)   bands (ev):

     9.1147  11.9721  11.9721  15.0700  15.0700  15.8028  20.3790  32.6134
    35.5475  35.5475

          k = 0.2357 0.0000 0.0000 (   471 PWs)   bands (ev):

     7.7167  11.3643  12.6588  12.6588  13.0471  14.0236  34.7032  34.8126
    35.1230  35.1230

          k = 0.3536 0.1179-0.1179 (   462 PWs)   bands (ev):

     9.3268  11.1322  12.1574  12.9212  14.3516  14.6297  28.0154  33.3461
    34.0732  35.4682

          k =-0.2357-0.4714 0.4714 (   454 PWs)   bands (ev):

     9.7794  11.5584  12.6177  12.7085  15.1188  17.7466  21.4153  31.4916
    33.2446  34.2309

          k =-0.1179-0.3536 0.3536 (   461 PWs)   bands (ev):

     9.8756  11.7070  12.4406  12.5928  14.2330  16.7799  23.6511  30.3510
    34.4104  36.0570

          k = 0.0000-0.2357 0.2357 (   475 PWs)   bands (ev):

     8.7909  11.3822  12.3112  12.8602  13.0847  14.7361  29.7323  31.7540
    36.8071  37.8215

          k = 0.4714 0.0000 0.0000 (   452 PWs)   bands (ev):

     9.6102  10.2311  13.7799  14.2920  14.2920  14.6730  29.6544  30.1793
    30.1793  34.2076

          k =-0.1179-0.5893 0.5893 (   458 PWs)   bands (ev):

     9.8382  10.3176  13.3795  14.1602  15.2373  18.2589  23.8959  27.2442
    29.5041  35.5180

          k =-0.0000-0.4714 0.4714 (   456 PWs)   bands (ev):

    10.3802  11.2540  12.2214  13.5864  14.5788  19.6368  23.8051  24.5504
    32.1174  35.1585

          k =-0.7071 0.0000 0.0000 (   460 PWs)   bands (ev):

     9.3724   9.7307  15.0189  15.4364  15.4364  17.9316  23.1266  27.6574
    27.6574  34.6558

          k =-0.2357-0.4714 0.7071 (   467 PWs)   bands (ev):

    10.5570  10.8421  11.6648  13.8755  14.2816  17.0177  25.9858  27.8331
    31.2373  38.5381

          k =-0.1179-0.3536 0.5893 (   464 PWs)   bands (ev):

    10.8180  10.9168  11.9209  13.4270  14.9716  20.6009  21.3583  27.3056
    29.3470  37.9661

          k =-0.7071 0.2357 0.0000 (   462 PWs)   bands (ev):

    10.1850  10.5197  12.7985  14.0177  15.4382  21.4071  22.2745  25.6463
    27.0537  39.3601

 ------ SPIN DOWN ----------


          k = 0.0000 0.0000 0.0000 (   459 PWs)   bands (ev):

     6.3993  12.0192  12.0192  12.0192  13.7171  13.7171  33.5442  37.4095
    37.4095  37.4095

          k = 0.1179 0.1179-0.1179 (   471 PWs)   bands (ev):

     7.3777  11.7727  12.2942  12.2942  13.6603  13.6603  32.1461  34.5466
    38.0153  38.0153

          k = 0.2357 0.2357-0.2357 (   468 PWs)   bands (ev):

     8.9543  12.1856  12.1856  12.7492  14.4090  14.4090  25.2933  33.5623
    37.0177  37.0177

          k =-0.3536-0.3536 0.3536 (   464 PWs)   bands (ev):

     9.1144  11.9716  11.9716  15.0695  15.0695  15.8026  20.3786  32.6132
    35.5472  35.5472

          k = 0.2357 0.0000 0.0000 (   471 PWs)   bands (ev):

     7.7165  11.3639  12.6583  12.6583  13.0467  14.0232  34.7030  34.8123
    35.1228  35.1228

          k = 0.3536 0.1179-0.1179 (   462 PWs)   bands (ev):

     9.3265  11.1318  12.1570  12.9207  14.3512  14.6292  28.0152  33.3459
    34.0729  35.4680

          k =-0.2357-0.4714 0.4714 (   454 PWs)   bands (ev):

     9.7790  11.5580  12.6173  12.7081  15.1183  17.7463  21.4150  31.4913
    33.2444  34.2307

          k =-0.1179-0.3536 0.3536 (   461 PWs)   bands (ev):

     9.8753  11.7066  12.4403  12.5924  14.2325  16.7795  23.6508  30.3507
    34.4102  36.0567

          k = 0.0000-0.2357 0.2357 (   475 PWs)   bands (ev):

     8.7906  11.3818  12.3108  12.8598  13.0843  14.7357  29.7321  31.7537
    36.8069  37.8213

          k = 0.4714 0.0000 0.0000 (   452 PWs)   bands (ev):

     9.6099  10.2307  13.7796  14.2916  14.2916  14.6725  29.6541  30.1791
    30.1791  34.2074

          k =-0.1179-0.5893 0.5893 (   458 PWs)   bands (ev):

     9.8379  10.3172  13.3790  14.1597  15.2368  18.2585  23.8956  27.2439
    29.5038  35.5177

          k =-0.0000-0.4714 0.4714 (   456 PWs)   bands (ev):

    10.3798  11.2536  12.2210  13.5860  14.5783  19.6365  23.8048  24.5501
    32.1172  35.1582

          k =-0.7071 0.0000 0.0000 (   460 PWs)   bands (ev):

     9.3720   9.7303  15.0184  15.4359  15.4359  17.9314  23.1262  27.6572
    27.6572  34.6555

          k =-0.2357-0.4714 0.7071 (   467 PWs)   bands (ev):

    10.5567  10.8417  11.6644  13.8751  14.2812  17.0173  25.9855  27.8329
    31.2370  38.5379

          k =-0.1179-0.3536 0.5893 (   464 PWs)   bands (ev):

    10.8176  10.9165  11.9205  13.4265  14.9711  20.6005  21.3580  27.3053
    29.3467  37.9659

          k =-0.7071 0.2357 0.0000 (   462 PWs)   bands (ev):

    10.1847  10.5193  12.7981  14.0172  15.4376  21.4068  22.2742  25.6460
    27.0534  39.3600

     the Fermi energy is    17.0503 ev

!    total energy              =     -66.86725278 Ry
     estimated scf accuracy    <          1.2E-09 Ry
     smearing contrib. (-TS)   =      -0.00036074 Ry
     internal energy E=F+TS    =     -66.86689204 Ry

     The total energy is F=E-TS. E is the sum of the following terms:
     one-electron contribution =      10.18404345 Ry
     hartree contribution      =       6.83763026 Ry
     xc contribution           =     -10.49587888 Ry
     ewald contribution        =     -73.39268687 Ry

     total magnetization       =    -0.00 Bohr mag/cell
     absolute magnetization    =     0.00 Bohr mag/cell

     convergence has been achieved in   9 iterations

     Forces acting on atoms (cartesian axes, Ry/au):

     atom    1 type  1   force =     0.00000000    0.00000000    0.00000000
     The non-local contrib.  to forces
     atom    1 type  1   force =    -0.00000000    0.00000000    0.00000000
     The ionic contribution  to forces
     atom    1 type  1   force =    -0.00000000   -0.00000000   -0.00000000
     The local contribution  to forces
     atom    1 type  1   force =     0.00000000    0.00000000    0.00000000
     The core correction contribution to forces
     atom    1 type  1   force =     0.00000000    0.00000000    0.00000000
     The Hubbard contrib.    to forces
     atom    1 type  1   force =     0.00000000    0.00000000    0.00000000
     The SCF correction term to forces
     atom    1 type  1   force =     0.00000000    0.00000000    0.00000000

     Total force =     0.000000     Total SCF correction =     0.000000


     Computing stress (Cartesian axis) and pressure

          total   stress  (Ry/bohr**3)                   (kbar)     P=       91.59
   0.00062262  -0.00000000  -0.00000000           91.59       -0.00       -0.00
  -0.00000000   0.00062262  -0.00000000           -0.00       91.59       -0.00
  -0.00000000  -0.00000000   0.00062262           -0.00       -0.00       91.59


     BFGS Geometry Optimization
     Energy error            =      0.0E+00 Ry
     Gradient error          =      0.0E+00 Ry/Bohr
     Cell gradient error     =      9.2E+01 kbar

     number of scf cycles    =   1
     number of bfgs steps    =   0

     enthalpy           new  =     -66.8672527774 Ry

     new trust radius        =       0.0323484145 bohr
     new conv_thr            =       0.0000001000 Ry

     new unit-cell volume =    113.09424 a.u.^3 (    16.75884 Ang^3 )
     density =     19.51631 g/cm^3

CELL_PARAMETERS (angstrom)
  -0.000000000   2.031131117   2.031131117
   2.031131117  -0.000000000   2.031131117
   2.031131117   2.031131117  -0.000000000

ATOMIC_POSITIONS (angstrom)
Au            0.0000000000        0.0000000000        0.0000000000



     Writing config-only to output data dir /home/gridsan/epan1/labutil/lab3_samples/problem3/Lab3/Au_a_4.0_ecut_40_nk_6/pwscf.save/
     NEW-OLD atomic charge density approx. for the potential
     extrapolated charge   11.49807, renormalised to   11.00000
     Generating pointlists ...

     total cpu time spent up to now is        2.0 secs

     Self-consistent Calculation

     iteration #  1     ecut=    40.00 Ry     beta= 0.50
     Davidson diagonalization with overlap
     ethr =  1.00E-06,  avg # of iterations =  3.3

     total cpu time spent up to now is        2.2 secs

     total energy              =     -66.82747616 Ry
     estimated scf accuracy    <       0.03446802 Ry

     total magnetization       =    -0.00 Bohr mag/cell
     absolute magnetization    =     0.00 Bohr mag/cell

     iteration #  2     ecut=    40.00 Ry     beta= 0.50
     Davidson diagonalization with overlap
     ethr =  3.13E-04,  avg # of iterations =  2.0

     total cpu time spent up to now is        2.4 secs

     total energy              =     -66.86972738 Ry
     estimated scf accuracy    <       0.04138383 Ry

     total magnetization       =    -0.00 Bohr mag/cell
     absolute magnetization    =     0.00 Bohr mag/cell

     iteration #  3     ecut=    40.00 Ry     beta= 0.50
     Davidson diagonalization with overlap
     ethr =  3.13E-04,  avg # of iterations =  1.0

     total cpu time spent up to now is        2.5 secs

     total energy              =     -66.86863871 Ry
     estimated scf accuracy    <       0.00937847 Ry

     total magnetization       =    -0.00 Bohr mag/cell
     absolute magnetization    =     0.00 Bohr mag/cell

     iteration #  4     ecut=    40.00 Ry     beta= 0.50
     Davidson diagonalization with overlap
     ethr =  8.53E-05,  avg # of iterations =  1.0

     total cpu time spent up to now is        2.6 secs

     total energy              =     -66.86924488 Ry
     estimated scf accuracy    <       0.00171963 Ry

     total magnetization       =    -0.00 Bohr mag/cell
     absolute magnetization    =     0.00 Bohr mag/cell

     iteration #  5     ecut=    40.00 Ry     beta= 0.50
     Davidson diagonalization with overlap
     ethr =  1.56E-05,  avg # of iterations =  1.0

     total cpu time spent up to now is        2.7 secs

     total energy              =     -66.86870405 Ry
     estimated scf accuracy    <       0.00171054 Ry

     total magnetization       =    -0.00 Bohr mag/cell
     absolute magnetization    =     0.00 Bohr mag/cell

     iteration #  6     ecut=    40.00 Ry     beta= 0.50
     Davidson diagonalization with overlap
     ethr =  1.56E-05,  avg # of iterations =  1.0

     total cpu time spent up to now is        2.9 secs

     total energy              =     -66.86855865 Ry
     estimated scf accuracy    <       0.00041428 Ry

     total magnetization       =    -0.00 Bohr mag/cell
     absolute magnetization    =     0.00 Bohr mag/cell

     iteration #  7     ecut=    40.00 Ry     beta= 0.50
     Davidson diagonalization with overlap
     ethr =  3.77E-06,  avg # of iterations =  2.0

     total cpu time spent up to now is        3.0 secs

     total energy              =     -66.86864787 Ry
     estimated scf accuracy    <       0.00000535 Ry

     total magnetization       =    -0.00 Bohr mag/cell
     absolute magnetization    =     0.00 Bohr mag/cell

     iteration #  8     ecut=    40.00 Ry     beta= 0.50
     Davidson diagonalization with overlap
     ethr =  4.86E-08,  avg # of iterations =  1.4

     total cpu time spent up to now is        3.1 secs

     total energy              =     -66.86864798 Ry
     estimated scf accuracy    <       0.00000555 Ry

     total magnetization       =    -0.00 Bohr mag/cell
     absolute magnetization    =     0.00 Bohr mag/cell

     iteration #  9     ecut=    40.00 Ry     beta= 0.50
     Davidson diagonalization with overlap
     ethr =  4.86E-08,  avg # of iterations =  1.0

     total cpu time spent up to now is        3.3 secs

     total energy              =     -66.86864806 Ry
     estimated scf accuracy    <       0.00000531 Ry

     total magnetization       =    -0.00 Bohr mag/cell
     absolute magnetization    =     0.00 Bohr mag/cell

     iteration # 10     ecut=    40.00 Ry     beta= 0.50
     Davidson diagonalization with overlap
     ethr =  4.82E-08,  avg # of iterations =  1.0

     total cpu time spent up to now is        3.4 secs

     total energy              =     -66.86864862 Ry
     estimated scf accuracy    <       0.00000555 Ry

     total magnetization       =    -0.00 Bohr mag/cell
     absolute magnetization    =     0.00 Bohr mag/cell

     iteration # 11     ecut=    40.00 Ry     beta= 0.50
     Davidson diagonalization with overlap
     ethr =  4.82E-08,  avg # of iterations =  2.0

     total cpu time spent up to now is        3.6 secs

     total energy              =     -66.86865074 Ry
     estimated scf accuracy    <       0.00001763 Ry

     total magnetization       =    -0.00 Bohr mag/cell
     absolute magnetization    =     0.00 Bohr mag/cell

     iteration # 12     ecut=    40.00 Ry     beta= 0.50
     Davidson diagonalization with overlap
     ethr =  4.82E-08,  avg # of iterations =  1.0

     total cpu time spent up to now is        3.7 secs

     total energy              =     -66.86864993 Ry
     estimated scf accuracy    <       0.00001288 Ry

     total magnetization       =    -0.00 Bohr mag/cell
     absolute magnetization    =     0.00 Bohr mag/cell

     iteration # 13     ecut=    40.00 Ry     beta= 0.50
     Davidson diagonalization with overlap
     ethr =  4.82E-08,  avg # of iterations =  1.0

     total cpu time spent up to now is        3.8 secs

     total energy              =     -66.86864544 Ry
     estimated scf accuracy    <       0.00001048 Ry

     total magnetization       =    -0.00 Bohr mag/cell
     absolute magnetization    =     0.00 Bohr mag/cell

     iteration # 14     ecut=    40.00 Ry     beta= 0.50
     Davidson diagonalization with overlap
     ethr =  4.82E-08,  avg # of iterations =  2.0

     total cpu time spent up to now is        4.0 secs

     total energy              =     -66.86865767 Ry
     estimated scf accuracy    <       0.00001130 Ry

     total magnetization       =     0.00 Bohr mag/cell
     absolute magnetization    =     0.00 Bohr mag/cell

     iteration # 15     ecut=    40.00 Ry     beta= 0.50
     Davidson diagonalization with overlap
     ethr =  4.82E-08,  avg # of iterations =  2.0

     total cpu time spent up to now is        4.1 secs

     total energy              =     -66.86866146 Ry
     estimated scf accuracy    <       0.00004911 Ry

     total magnetization       =    -0.00 Bohr mag/cell
     absolute magnetization    =     0.00 Bohr mag/cell

     iteration # 16     ecut=    40.00 Ry     beta= 0.50
     Davidson diagonalization with overlap
     ethr =  4.82E-08,  avg # of iterations =  1.0

     total cpu time spent up to now is        4.3 secs

     total energy              =     -66.86864558 Ry
     estimated scf accuracy    <       0.00004764 Ry

     total magnetization       =    -0.00 Bohr mag/cell
     absolute magnetization    =     0.00 Bohr mag/cell

     iteration # 17     ecut=    40.00 Ry     beta= 0.50
     Davidson diagonalization with overlap
     ethr =  4.82E-08,  avg # of iterations =  1.8

     Magnetic moment per site  (integrated on atomic sphere of radius R)
     atom   1 (R=0.413)  charge=  9.2390  magn=  0.0000

     total cpu time spent up to now is        4.4 secs

     End of self-consistent calculation

 ------ SPIN UP ------------


          k = 0.0000 0.0000 0.0000 (   459 PWs)   bands (ev):

     5.7988  11.1745  11.1745  11.1745  12.7406  12.7406  32.3337  35.9075
    35.9075  35.9075

          k = 0.1160 0.1160-0.1160 (   471 PWs)   bands (ev):

     6.7379  10.9509  11.4301  11.4301  12.6911  12.6911  30.6726  33.2622
    36.3852  36.3852

          k = 0.2321 0.2321-0.2321 (   468 PWs)   bands (ev):

     8.2795  11.3312  11.3312  11.8911  13.3833  13.3833  23.8821  32.3161
    35.3204  35.3204

          k =-0.3481-0.3481 0.3481 (   464 PWs)   bands (ev):

     8.4506  11.1336  11.1336  13.9888  13.9888  14.9095  19.0087  31.4228
    33.9511  33.9511

          k = 0.2321 0.0000 0.0000 (   471 PWs)   bands (ev):

     7.0631  10.5711  11.7683  11.7683  12.1290  13.0234  33.2768  33.4452
    33.5293  33.5293

          k = 0.3481 0.1160-0.1160 (   462 PWs)   bands (ev):

     8.6251  10.3590  11.3088  12.0121  13.3476  13.5836  26.5603  31.7780
    32.6519  33.8113

          k =-0.2321-0.4642 0.4642 (   454 PWs)   bands (ev):

     9.0802  10.7589  11.7327  11.8395  14.0335  16.6105  20.0999  30.0033
    31.6933  32.7976

          k =-0.1160-0.3481 0.3481 (   461 PWs)   bands (ev):

     9.1648  10.8929  11.5956  11.7099  13.2221  15.6328  22.2843  28.8509
    33.0531  34.3811

          k = 0.0000-0.2321 0.2321 (   475 PWs)   bands (ev):

     8.0985  10.5903  11.4515  11.9545  12.1638  13.6877  28.2739  30.1974
    35.3527  36.4002

          k = 0.4642 0.0000 0.0000 (   452 PWs)   bands (ev):

     8.9233   9.5197  12.8543  13.2787  13.2787  13.6220  28.0557  28.7429
    28.7429  32.6876

          k =-0.1160-0.5802 0.5802 (   458 PWs)   bands (ev):

     9.1528   9.6025  12.4578  13.1563  14.1423  17.0913  22.5590  25.7988
    28.1016  33.9159

          k =-0.0000-0.4642 0.4642 (   456 PWs)   bands (ev):

     9.6558  10.4833  11.3774  12.6300  13.5396  18.4029  22.4724  23.1486
    30.5840  33.6453

          k =-0.6963 0.0000 0.0000 (   460 PWs)   bands (ev):

     8.7194   9.0528  13.9398  14.3257  14.3257  16.9436  21.6360  26.3567
    26.3567  33.0553

          k =-0.2321-0.4642 0.6963 (   467 PWs)   bands (ev):

     9.8179  10.0890  10.8525  12.9014  13.2684  15.8568  24.5878  26.3894
    29.7329  36.9168

          k =-0.1160-0.3481 0.5802 (   464 PWs)   bands (ev):

    10.0616  10.1680  11.0990  12.4840  13.9010  19.2803  20.1369  25.8541
    27.8928  36.4271

          k =-0.6963 0.2321 0.0000 (   462 PWs)   bands (ev):

     9.4842   9.7884  11.9151  13.0280  14.3272  20.1948  20.8731  24.3241
    25.6499  37.6557

 ------ SPIN DOWN ----------


          k = 0.0000 0.0000 0.0000 (   459 PWs)   bands (ev):

     5.7988  11.1745  11.1745  11.1745  12.7406  12.7406  32.3337  35.9075
    35.9075  35.9075

          k = 0.1160 0.1160-0.1160 (   471 PWs)   bands (ev):

     6.7379  10.9509  11.4301  11.4301  12.6911  12.6911  30.6726  33.2622
    36.3852  36.3852

          k = 0.2321 0.2321-0.2321 (   468 PWs)   bands (ev):

     8.2796  11.3312  11.3312  11.8912  13.3833  13.3833  23.8821  32.3161
    35.3204  35.3204

          k =-0.3481-0.3481 0.3481 (   464 PWs)   bands (ev):

     8.4506  11.1336  11.1336  13.9888  13.9888  14.9095  19.0087  31.4228
    33.9511  33.9511

          k = 0.2321 0.0000 0.0000 (   471 PWs)   bands (ev):

     7.0631  10.5711  11.7683  11.7683  12.1290  13.0234  33.2768  33.4453
    33.5293  33.5293

          k = 0.3481 0.1160-0.1160 (   462 PWs)   bands (ev):

     8.6251  10.3590  11.3088  12.0121  13.3476  13.5836  26.5603  31.7780
    32.6519  33.8114

          k =-0.2321-0.4642 0.4642 (   454 PWs)   bands (ev):

     9.0802  10.7589  11.7327  11.8395  14.0335  16.6106  20.0999  30.0033
    31.6933  32.7976

          k =-0.1160-0.3481 0.3481 (   461 PWs)   bands (ev):

     9.1648  10.8929  11.5956  11.7100  13.2221  15.6328  22.2844  28.8509
    33.0531  34.3811

          k = 0.0000-0.2321 0.2321 (   475 PWs)   bands (ev):

     8.0985  10.5904  11.4515  11.9545  12.1638  13.6878  28.2739  30.1975
    35.3527  36.4002

          k = 0.4642 0.0000 0.0000 (   452 PWs)   bands (ev):

     8.9233   9.5197  12.8543  13.2787  13.2787  13.6220  28.0557  28.7429
    28.7429  32.6876

          k =-0.1160-0.5802 0.5802 (   458 PWs)   bands (ev):

     9.1528   9.6025  12.4578  13.1563  14.1423  17.0913  22.5590  25.7988
    28.1016  33.9159

          k =-0.0000-0.4642 0.4642 (   456 PWs)   bands (ev):

     9.6558  10.4833  11.3774  12.6300  13.5396  18.4029  22.4724  23.1486
    30.5840  33.6453

          k =-0.6963 0.0000 0.0000 (   460 PWs)   bands (ev):

     8.7194   9.0528  13.9398  14.3257  14.3257  16.9436  21.6360  26.3567
    26.3567  33.0553

          k =-0.2321-0.4642 0.6963 (   467 PWs)   bands (ev):

     9.8179  10.0890  10.8526  12.9014  13.2684  15.8568  24.5878  26.3894
    29.7329  36.9168

          k =-0.1160-0.3481 0.5802 (   464 PWs)   bands (ev):

    10.0616  10.1680  11.0990  12.4840  13.9010  19.2803  20.1369  25.8541
    27.8928  36.4271

          k =-0.6963 0.2321 0.0000 (   462 PWs)   bands (ev):

     9.4842   9.7884  11.9151  13.0280  14.3273  20.1948  20.8731  24.3241
    25.6500  37.6558

     the Fermi energy is    15.8914 ev

!    total energy              =     -66.86864651 Ry
     estimated scf accuracy    <       0.00000007 Ry
     smearing contrib. (-TS)   =      -0.00038474 Ry
     internal energy E=F+TS    =     -66.86826176 Ry

     The total energy is F=E-TS. E is the sum of the following terms:
     one-electron contribution =       8.61584116 Ry
     hartree contribution      =       7.23755225 Ry
     xc contribution           =     -10.45385695 Ry
     ewald contribution        =     -72.26779822 Ry

     total magnetization       =     0.00 Bohr mag/cell
     absolute magnetization    =     0.00 Bohr mag/cell

     convergence has been achieved in  17 iterations

     Forces acting on atoms (cartesian axes, Ry/au):

     atom    1 type  1   force =     0.00000000    0.00000000    0.00000000
     The non-local contrib.  to forces
     atom    1 type  1   force =    -0.00000000   -0.00000000   -0.00000000
     The ionic contribution  to forces
     atom    1 type  1   force =    -0.00000000   -0.00000000   -0.00000000
     The local contribution  to forces
     atom    1 type  1   force =     0.00000000    0.00000000    0.00000000
     The core correction contribution to forces
     atom    1 type  1   force =     0.00000000    0.00000000    0.00000000
     The Hubbard contrib.    to forces
     atom    1 type  1   force =     0.00000000    0.00000000    0.00000000
     The SCF correction term to forces
     atom    1 type  1   force =     0.00000000    0.00000000    0.00000000

     Total force =     0.000000     Total SCF correction =     0.000000


     Computing stress (Cartesian axis) and pressure

          total   stress  (Ry/bohr**3)                   (kbar)     P=       -8.83
  -0.00006004   0.00000000   0.00000000           -8.83        0.00        0.00
   0.00000000  -0.00006004   0.00000000            0.00       -8.83        0.00
   0.00000000   0.00000000  -0.00006004            0.00        0.00       -8.83

     Energy error            =      1.4E-03 Ry
     Gradient error          =      0.0E+00 Ry/Bohr
     Cell gradient error     =      8.8E+00 kbar

     number of scf cycles    =   2
     number of bfgs steps    =   1

     enthalpy           old  =     -66.8672527774 Ry
     enthalpy           new  =     -66.8686465093 Ry

     CASE: enthalpy          _new < enthalpy          _old

     new trust radius        =       0.0029490982 bohr
     new conv_thr            =       0.0000000010 Ry

     new unit-cell volume =    112.62445 a.u.^3 (    16.68922 Ang^3 )
     density =     19.59772 g/cm^3

CELL_PARAMETERS (angstrom)
  -0.000000000   2.028314830   2.028314830
   2.028314830  -0.000000000   2.028314830
   2.028314830   2.028314830  -0.000000000

ATOMIC_POSITIONS (angstrom)
Au            0.0000000000        0.0000000000        0.0000000000



     Writing config-only to output data dir /home/gridsan/epan1/labutil/lab3_samples/problem3/Lab3/Au_a_4.0_ecut_40_nk_6/pwscf.save/
     NEW-OLD atomic charge density approx. for the potential
     extrapolated charge   10.95412, renormalised to   11.00000
     Generating pointlists ...

     total cpu time spent up to now is        4.6 secs

     Self-consistent Calculation

     iteration #  1     ecut=    40.00 Ry     beta= 0.50
     Davidson diagonalization with overlap
     ethr =  1.00E-06,  avg # of iterations =  2.0

     total cpu time spent up to now is        4.8 secs

     total energy              =     -66.86830222 Ry
     estimated scf accuracy    <       0.00031516 Ry

     total magnetization       =     0.00 Bohr mag/cell
     absolute magnetization    =     0.00 Bohr mag/cell

     iteration #  2     ecut=    40.00 Ry     beta= 0.50
     Davidson diagonalization with overlap
     ethr =  2.87E-06,  avg # of iterations =  2.0

     total cpu time spent up to now is        4.9 secs

     total energy              =     -66.86866048 Ry
     estimated scf accuracy    <       0.00033494 Ry

     total magnetization       =     0.00 Bohr mag/cell
     absolute magnetization    =     0.00 Bohr mag/cell

     iteration #  3     ecut=    40.00 Ry     beta= 0.50
     Davidson diagonalization with overlap
     ethr =  2.87E-06,  avg # of iterations =  1.0

     total cpu time spent up to now is        5.1 secs

     total energy              =     -66.86865812 Ry
     estimated scf accuracy    <       0.00006879 Ry

     total magnetization       =     0.00 Bohr mag/cell
     absolute magnetization    =     0.00 Bohr mag/cell

     iteration #  4     ecut=    40.00 Ry     beta= 0.50
     Davidson diagonalization with overlap
     ethr =  6.25E-07,  avg # of iterations =  1.0

     total cpu time spent up to now is        5.2 secs

     total energy              =     -66.86865902 Ry
     estimated scf accuracy    <       0.00001652 Ry

     total magnetization       =     0.00 Bohr mag/cell
     absolute magnetization    =     0.00 Bohr mag/cell

     iteration #  5     ecut=    40.00 Ry     beta= 0.50
     Davidson diagonalization with overlap
     ethr =  1.50E-07,  avg # of iterations =  1.0

     total cpu time spent up to now is        5.3 secs

     total energy              =     -66.86865531 Ry
     estimated scf accuracy    <       0.00000935 Ry

     total magnetization       =     0.00 Bohr mag/cell
     absolute magnetization    =     0.00 Bohr mag/cell

     iteration #  6     ecut=    40.00 Ry     beta= 0.50
     Davidson diagonalization with overlap
     ethr =  8.50E-08,  avg # of iterations =  1.0

     total cpu time spent up to now is        5.4 secs

     total energy              =     -66.86865585 Ry
     estimated scf accuracy    <       0.00000084 Ry

     total magnetization       =     0.00 Bohr mag/cell
     absolute magnetization    =     0.00 Bohr mag/cell

     iteration #  7     ecut=    40.00 Ry     beta= 0.50
     Davidson diagonalization with overlap
     ethr =  7.63E-09,  avg # of iterations =  1.4

     total cpu time spent up to now is        5.6 secs

     total energy              =     -66.86865593 Ry
     estimated scf accuracy    <       0.00000005 Ry

     total magnetization       =     0.00 Bohr mag/cell
     absolute magnetization    =     0.00 Bohr mag/cell

     iteration #  8     ecut=    40.00 Ry     beta= 0.50
     Davidson diagonalization with overlap
     ethr =  4.42E-10,  avg # of iterations =  1.3

     total cpu time spent up to now is        5.7 secs

     total energy              =     -66.86865593 Ry
     estimated scf accuracy    <          1.9E-09 Ry

     total magnetization       =     0.00 Bohr mag/cell
     absolute magnetization    =     0.00 Bohr mag/cell

     iteration #  9     ecut=    40.00 Ry     beta= 0.50
     Davidson diagonalization with overlap
     ethr =  1.75E-11,  avg # of iterations =  2.0

     total cpu time spent up to now is        5.8 secs

     total energy              =     -66.86865593 Ry
     estimated scf accuracy    <          1.7E-09 Ry

     total magnetization       =     0.00 Bohr mag/cell
     absolute magnetization    =     0.00 Bohr mag/cell

     iteration # 10     ecut=    40.00 Ry     beta= 0.50
     Davidson diagonalization with overlap
     ethr =  1.51E-11,  avg # of iterations =  1.0

     Magnetic moment per site  (integrated on atomic sphere of radius R)
     atom   1 (R=0.413)  charge=  9.2442  magn=  0.0000

     total cpu time spent up to now is        6.0 secs

     End of self-consistent calculation

 ------ SPIN UP ------------


          k = 0.0000 0.0000 0.0000 (   459 PWs)   bands (ev):

     5.8514  11.2481  11.2481  11.2481  12.8255  12.8255  32.4407  36.0405
    36.0405  36.0405

          k = 0.1162 0.1162-0.1162 (   471 PWs)   bands (ev):

     6.7940  11.0226  11.5054  11.5054  12.7754  12.7754  30.8027  33.3757
    36.5293  36.5293

          k = 0.2324 0.2324-0.2324 (   468 PWs)   bands (ev):

     8.3386  11.4056  11.4056  11.9662  13.4725  13.4725  24.0057  32.4262
    35.4699  35.4699

          k =-0.3486-0.3486 0.3486 (   464 PWs)   bands (ev):

     8.5086  11.2066  11.2066  14.0827  14.0827  14.9879  19.1283  31.5281
    34.0919  34.0919

          k = 0.2324 0.0000 0.0000 (   471 PWs)   bands (ev):

     7.1203  10.6403  11.8458  11.8458  12.2089  13.1104  33.4033  33.5659
    33.6697  33.6697

          k = 0.3486 0.1162-0.1162 (   462 PWs)   bands (ev):

     8.6865  10.4265  11.3828  12.0912  13.4351  13.6745  26.6881  31.9159
    32.7778  33.9567

          k =-0.2324-0.4648 0.4648 (   454 PWs)   bands (ev):

     9.1413  10.8287  11.8098  11.9153  14.1277  16.7098  20.2147  30.1346
    31.8298  32.9236

          k =-0.1162-0.3486 0.3486 (   461 PWs)   bands (ev):

     9.2269  10.9639  11.6695  11.7868  13.3100  15.7327  22.4039  28.9828
    33.1729  34.5286

          k = 0.0000-0.2324 0.2324 (   475 PWs)   bands (ev):

     8.1592  10.6594  11.5264  12.0333  12.2439  13.7789  28.4024  30.3341
    35.4808  36.5258

          k = 0.4648 0.0000 0.0000 (   452 PWs)   bands (ev):

     8.9834   9.5818  12.9352  13.3668  13.3668  13.7133  28.1960  28.8692
    28.8692  32.8214

          k =-0.1162-0.5810 0.5810 (   458 PWs)   bands (ev):

     9.2127   9.6649  12.5382  13.2436  14.2373  17.1933  22.6764  25.9253
    28.2249  34.0569

          k =-0.0000-0.4648 0.4648 (   456 PWs)   bands (ev):

     9.7191  10.5506  11.4510  12.7132  13.6299  18.5109  22.5889  23.2713
    30.7188  33.7786

          k =-0.6972 0.0000 0.0000 (   460 PWs)   bands (ev):

     8.7765   9.1120  14.0335  14.4222  14.4222  17.0303  21.7663  26.4712
    26.4712  33.1961

          k =-0.2324-0.4648 0.6972 (   467 PWs)   bands (ev):

     9.8826  10.1547  10.9234  12.9862  13.3565  15.9580  24.7106  26.5159
    29.8651  37.0597

          k =-0.1162-0.3486 0.5810 (   464 PWs)   bands (ev):

    10.1277  10.2334  11.1707  12.5661  13.9940  19.3958  20.2436  25.9813
    28.0204  36.5629

          k =-0.6972 0.2324 0.0000 (   462 PWs)   bands (ev):

     9.5454   9.8522  11.9922  13.1141  14.4237  20.3008  20.9959  24.4401
    25.7729  37.8060

 ------ SPIN DOWN ----------


          k = 0.0000 0.0000 0.0000 (   459 PWs)   bands (ev):

     5.8514  11.2481  11.2481  11.2481  12.8255  12.8255  32.4407  36.0405
    36.0405  36.0405

          k = 0.1162 0.1162-0.1162 (   471 PWs)   bands (ev):

     6.7940  11.0226  11.5054  11.5054  12.7754  12.7754  30.8027  33.3757
    36.5293  36.5293

          k = 0.2324 0.2324-0.2324 (   468 PWs)   bands (ev):

     8.3386  11.4056  11.4056  11.9662  13.4725  13.4725  24.0057  32.4262
    35.4699  35.4699

          k =-0.3486-0.3486 0.3486 (   464 PWs)   bands (ev):

     8.5086  11.2066  11.2066  14.0827  14.0827  14.9879  19.1283  31.5281
    34.0919  34.0919

          k = 0.2324 0.0000 0.0000 (   471 PWs)   bands (ev):

     7.1203  10.6403  11.8458  11.8458  12.2089  13.1104  33.4033  33.5659
    33.6697  33.6697

          k = 0.3486 0.1162-0.1162 (   462 PWs)   bands (ev):

     8.6865  10.4265  11.3828  12.0912  13.4351  13.6745  26.6881  31.9159
    32.7778  33.9567

          k =-0.2324-0.4648 0.4648 (   454 PWs)   bands (ev):

     9.1413  10.8287  11.8098  11.9153  14.1277  16.7098  20.2147  30.1346
    31.8298  32.9236

          k =-0.1162-0.3486 0.3486 (   461 PWs)   bands (ev):

     9.2269  10.9639  11.6695  11.7868  13.3100  15.7327  22.4039  28.9828
    33.1729  34.5286

          k = 0.0000-0.2324 0.2324 (   475 PWs)   bands (ev):

     8.1592  10.6594  11.5264  12.0333  12.2439  13.7789  28.4024  30.3341
    35.4808  36.5258

          k = 0.4648 0.0000 0.0000 (   452 PWs)   bands (ev):

     8.9834   9.5818  12.9352  13.3668  13.3668  13.7133  28.1960  28.8692
    28.8692  32.8214

          k =-0.1162-0.5810 0.5810 (   458 PWs)   bands (ev):

     9.2127   9.6649  12.5382  13.2436  14.2373  17.1933  22.6764  25.9253
    28.2249  34.0569

          k =-0.0000-0.4648 0.4648 (   456 PWs)   bands (ev):

     9.7191  10.5506  11.4510  12.7132  13.6299  18.5109  22.5889  23.2713
    30.7188  33.7786

          k =-0.6972 0.0000 0.0000 (   460 PWs)   bands (ev):

     8.7765   9.1120  14.0335  14.4222  14.4222  17.0303  21.7663  26.4712
    26.4712  33.1961

          k =-0.2324-0.4648 0.6972 (   467 PWs)   bands (ev):

     9.8826  10.1547  10.9234  12.9862  13.3565  15.9580  24.7106  26.5159
    29.8651  37.0597

          k =-0.1162-0.3486 0.5810 (   464 PWs)   bands (ev):

    10.1277  10.2334  11.1707  12.5661  13.9940  19.3958  20.2436  25.9813
    28.0204  36.5629

          k =-0.6972 0.2324 0.0000 (   462 PWs)   bands (ev):

     9.5454   9.8522  11.9922  13.1141  14.4237  20.3008  20.9959  24.4401
    25.7729  37.8060

     the Fermi energy is    15.9923 ev

!    total energy              =     -66.86865593 Ry
     estimated scf accuracy    <          1.6E-10 Ry
     smearing contrib. (-TS)   =      -0.00038258 Ry
     internal energy E=F+TS    =     -66.86827335 Ry

     The total energy is F=E-TS. E is the sum of the following terms:
     one-electron contribution =       8.75574238 Ry
     hartree contribution      =       7.20176383 Ry
     xc contribution           =     -10.45763848 Ry
     ewald contribution        =     -72.36814107 Ry

     total magnetization       =     0.00 Bohr mag/cell
     absolute magnetization    =     0.00 Bohr mag/cell

     convergence has been achieved in  10 iterations

     Forces acting on atoms (cartesian axes, Ry/au):

     atom    1 type  1   force =     0.00000000    0.00000000    0.00000000
     The non-local contrib.  to forces
     atom    1 type  1   force =    -0.00000000   -0.00000000    0.00000000
     The ionic contribution  to forces
     atom    1 type  1   force =    -0.00000000   -0.00000000   -0.00000000
     The local contribution  to forces
     atom    1 type  1   force =     0.00000000    0.00000000    0.00000000
     The core correction contribution to forces
     atom    1 type  1   force =     0.00000000    0.00000000    0.00000000
     The Hubbard contrib.    to forces
     atom    1 type  1   force =     0.00000000    0.00000000    0.00000000
     The SCF correction term to forces
     atom    1 type  1   force =     0.00000000    0.00000000    0.00000000

     Total force =     0.000000     Total SCF correction =     0.000000


     Computing stress (Cartesian axis) and pressure

          total   stress  (Ry/bohr**3)                   (kbar)     P=        1.10
   0.00000746  -0.00000000   0.00000000            1.10       -0.00        0.00
  -0.00000000   0.00000746   0.00000000           -0.00        1.10        0.00
   0.00000000   0.00000000   0.00000746            0.00        0.00        1.10

     Energy error            =      9.4E-06 Ry
     Gradient error          =      0.0E+00 Ry/Bohr
     Cell gradient error     =      1.1E+00 kbar

     number of scf cycles    =   3
     number of bfgs steps    =   2

     enthalpy           old  =     -66.8686465093 Ry
     enthalpy           new  =     -66.8686559310 Ry

     CASE: enthalpy          _new < enthalpy          _old

     new trust radius        =       0.0003249975 bohr
     new conv_thr            =       0.0000000010 Ry

     new unit-cell volume =    112.67620 a.u.^3 (    16.69689 Ang^3 )
     density =     19.58872 g/cm^3

CELL_PARAMETERS (angstrom)
  -0.000000000   2.028625407   2.028625407
   2.028625407  -0.000000000   2.028625407
   2.028625407   2.028625407  -0.000000000

ATOMIC_POSITIONS (angstrom)
Au            0.0000000000        0.0000000000        0.0000000000



     Writing config-only to output data dir /home/gridsan/epan1/labutil/lab3_samples/problem3/Lab3/Au_a_4.0_ecut_40_nk_6/pwscf.save/
     NEW-OLD atomic charge density approx. for the potential
     extrapolated charge   11.00505, renormalised to   11.00000
     Generating pointlists ...

     total cpu time spent up to now is        6.2 secs

     Self-consistent Calculation

     iteration #  1     ecut=    40.00 Ry     beta= 0.50
     Davidson diagonalization with overlap
     ethr =  1.00E-06,  avg # of iterations =  2.0

     Threshold (ethr) on eigenvalues was too large:
     Diagonalizing with lowered threshold

     Davidson diagonalization with overlap
     ethr =  3.40E-08,  avg # of iterations =  1.0

     total cpu time spent up to now is        6.5 secs

     total energy              =     -66.86865189 Ry
     estimated scf accuracy    <       0.00000375 Ry

     total magnetization       =     0.00 Bohr mag/cell
     absolute magnetization    =     0.00 Bohr mag/cell

     iteration #  2     ecut=    40.00 Ry     beta= 0.50
     Davidson diagonalization with overlap
     ethr =  3.41E-08,  avg # of iterations =  2.0

     total cpu time spent up to now is        6.6 secs

     total energy              =     -66.86865619 Ry
     estimated scf accuracy    <       0.00000408 Ry

     total magnetization       =     0.00 Bohr mag/cell
     absolute magnetization    =     0.00 Bohr mag/cell

     iteration #  3     ecut=    40.00 Ry     beta= 0.50
     Davidson diagonalization with overlap
     ethr =  3.41E-08,  avg # of iterations =  1.0

     total cpu time spent up to now is        6.8 secs

     total energy              =     -66.86865615 Ry
     estimated scf accuracy    <       0.00000085 Ry

     total magnetization       =     0.00 Bohr mag/cell
     absolute magnetization    =     0.00 Bohr mag/cell

     iteration #  4     ecut=    40.00 Ry     beta= 0.50
     Davidson diagonalization with overlap
     ethr =  7.75E-09,  avg # of iterations =  1.0

     total cpu time spent up to now is        6.9 secs

     total energy              =     -66.86865617 Ry
     estimated scf accuracy    <       0.00000020 Ry

     total magnetization       =     0.00 Bohr mag/cell
     absolute magnetization    =     0.00 Bohr mag/cell

     iteration #  5     ecut=    40.00 Ry     beta= 0.50
     Davidson diagonalization with overlap
     ethr =  1.81E-09,  avg # of iterations =  1.0

     total cpu time spent up to now is        7.0 secs

     total energy              =     -66.86865611 Ry
     estimated scf accuracy    <       0.00000013 Ry

     total magnetization       =     0.00 Bohr mag/cell
     absolute magnetization    =     0.00 Bohr mag/cell

     iteration #  6     ecut=    40.00 Ry     beta= 0.50
     Davidson diagonalization with overlap
     ethr =  1.19E-09,  avg # of iterations =  1.2

     total cpu time spent up to now is        7.1 secs

     total energy              =     -66.86865613 Ry
     estimated scf accuracy    <          4.7E-09 Ry

     total magnetization       =     0.00 Bohr mag/cell
     absolute magnetization    =     0.00 Bohr mag/cell

     iteration #  7     ecut=    40.00 Ry     beta= 0.50
     Davidson diagonalization with overlap
     ethr =  4.30E-11,  avg # of iterations =  1.0

     total cpu time spent up to now is        7.2 secs

     total energy              =     -66.86865613 Ry
     estimated scf accuracy    <          1.6E-09 Ry

     total magnetization       =     0.00 Bohr mag/cell
     absolute magnetization    =     0.00 Bohr mag/cell

     iteration #  8     ecut=    40.00 Ry     beta= 0.50
     Davidson diagonalization with overlap
     ethr =  1.46E-11,  avg # of iterations =  1.9

     Magnetic moment per site  (integrated on atomic sphere of radius R)
     atom   1 (R=0.413)  charge=  9.2437  magn=  0.0000

     total cpu time spent up to now is        8.1 secs

     End of self-consistent calculation

 ------ SPIN UP ------------


          k = 0.0000 0.0000 0.0000 (   459 PWs)   bands (ev):

     5.8456  11.2399  11.2399  11.2399  12.8161  12.8161  32.4289  36.0258
    36.0258  36.0258

          k = 0.1162 0.1162-0.1162 (   471 PWs)   bands (ev):

     6.7878  11.0146  11.4970  11.4970  12.7660  12.7660  30.7883  33.3632
    36.5134  36.5134

          k = 0.2324 0.2324-0.2324 (   468 PWs)   bands (ev):

     8.3321  11.3973  11.3973  11.9579  13.4625  13.4625  23.9920  32.4140
    35.4533  35.4533

          k =-0.3486-0.3486 0.3486 (   464 PWs)   bands (ev):

     8.5022  11.1985  11.1985  14.0722  14.0722  14.9792  19.1150  31.5164
    34.0763  34.0763

          k = 0.2324 0.0000 0.0000 (   471 PWs)   bands (ev):

     7.1140  10.6326  11.8372  11.8372  12.2000  13.1007  33.3893  33.5526
    33.6542  33.6542

          k = 0.3486 0.1162-0.1162 (   462 PWs)   bands (ev):

     8.6797  10.4189  11.3745  12.0824  13.4253  13.6644  26.6740  31.9006
    32.7639  33.9406

          k =-0.2324-0.4648 0.4648 (   454 PWs)   bands (ev):

     9.1345  10.8209  11.8012  11.9069  14.1172  16.6988  20.2020  30.1201
    31.8147  32.9096

          k =-0.1162-0.3486 0.3486 (   461 PWs)   bands (ev):

     9.2200  10.9560  11.6612  11.7783  13.3002  15.7216  22.3907  28.9682
    33.1597  34.5122

          k = 0.0000-0.2324 0.2324 (   475 PWs)   bands (ev):

     8.1524  10.6517  11.5181  12.0245  12.2350  13.7687  28.3882  30.3189
    35.4667  36.5119

          k = 0.4648 0.0000 0.0000 (   452 PWs)   bands (ev):

     8.9767   9.5749  12.9262  13.3570  13.3570  13.7031  28.1804  28.8552
    28.8552  32.8066

          k =-0.1162-0.5809 0.5809 (   458 PWs)   bands (ev):

     9.2060   9.6579  12.5293  13.2339  14.2267  17.1820  22.6634  25.9113
    28.2113  34.0413

          k =-0.0000-0.4648 0.4648 (   456 PWs)   bands (ev):

     9.7120  10.5431  11.4428  12.7040  13.6198  18.4989  22.5759  23.2577
    30.7039  33.7639

          k =-0.6971 0.0000 0.0000 (   460 PWs)   bands (ev):

     8.7701   9.1054  14.0230  14.4114  14.4114  17.0207  21.7519  26.4586
    26.4586  33.1805

          k =-0.2324-0.4648 0.6971 (   467 PWs)   bands (ev):

     9.8754  10.1474  10.9155  12.9768  13.3466  15.9467  24.6970  26.5019
    29.8505  37.0439

          k =-0.1162-0.3486 0.5809 (   464 PWs)   bands (ev):

    10.1203  10.2261  11.1627  12.5569  13.9836  19.3830  20.2318  25.9672
    28.0063  36.5479

          k =-0.6971 0.2324 0.0000 (   462 PWs)   bands (ev):

     9.5386   9.8451  11.9836  13.1045  14.4129  20.2890  20.9823  24.4273
    25.7593  37.7893

 ------ SPIN DOWN ----------


          k = 0.0000 0.0000 0.0000 (   459 PWs)   bands (ev):

     5.8456  11.2399  11.2399  11.2399  12.8161  12.8161  32.4289  36.0258
    36.0258  36.0258

          k = 0.1162 0.1162-0.1162 (   471 PWs)   bands (ev):

     6.7878  11.0146  11.4970  11.4970  12.7660  12.7660  30.7883  33.3632
    36.5134  36.5134

          k = 0.2324 0.2324-0.2324 (   468 PWs)   bands (ev):

     8.3321  11.3973  11.3973  11.9579  13.4625  13.4625  23.9920  32.4140
    35.4533  35.4533

          k =-0.3486-0.3486 0.3486 (   464 PWs)   bands (ev):

     8.5022  11.1985  11.1985  14.0722  14.0722  14.9792  19.1150  31.5164
    34.0763  34.0763

          k = 0.2324 0.0000 0.0000 (   471 PWs)   bands (ev):

     7.1140  10.6326  11.8372  11.8372  12.2000  13.1007  33.3893  33.5526
    33.6542  33.6542

          k = 0.3486 0.1162-0.1162 (   462 PWs)   bands (ev):

     8.6797  10.4189  11.3745  12.0824  13.4253  13.6644  26.6740  31.9006
    32.7639  33.9406

          k =-0.2324-0.4648 0.4648 (   454 PWs)   bands (ev):

     9.1345  10.8209  11.8012  11.9069  14.1172  16.6988  20.2020  30.1201
    31.8147  32.9096

          k =-0.1162-0.3486 0.3486 (   461 PWs)   bands (ev):

     9.2200  10.9560  11.6612  11.7783  13.3002  15.7216  22.3907  28.9682
    33.1597  34.5122

          k = 0.0000-0.2324 0.2324 (   475 PWs)   bands (ev):

     8.1524  10.6517  11.5181  12.0245  12.2350  13.7687  28.3882  30.3189
    35.4667  36.5119

          k = 0.4648 0.0000 0.0000 (   452 PWs)   bands (ev):

     8.9767   9.5749  12.9262  13.3570  13.3570  13.7031  28.1804  28.8552
    28.8552  32.8066

          k =-0.1162-0.5809 0.5809 (   458 PWs)   bands (ev):

     9.2060   9.6579  12.5293  13.2339  14.2267  17.1820  22.6634  25.9113
    28.2113  34.0413

          k =-0.0000-0.4648 0.4648 (   456 PWs)   bands (ev):

     9.7120  10.5431  11.4428  12.7040  13.6198  18.4989  22.5759  23.2577
    30.7039  33.7639

          k =-0.6971 0.0000 0.0000 (   460 PWs)   bands (ev):

     8.7701   9.1054  14.0230  14.4114  14.4114  17.0207  21.7519  26.4586
    26.4586  33.1805

          k =-0.2324-0.4648 0.6971 (   467 PWs)   bands (ev):

     9.8754  10.1474  10.9155  12.9768  13.3466  15.9467  24.6970  26.5019
    29.8505  37.0439

          k =-0.1162-0.3486 0.5809 (   464 PWs)   bands (ev):

    10.1203  10.2261  11.1627  12.5569  13.9836  19.3830  20.2318  25.9672
    28.0063  36.5479

          k =-0.6971 0.2324 0.0000 (   462 PWs)   bands (ev):

     9.5386   9.8451  11.9836  13.1045  14.4129  20.2890  20.9823  24.4273
    25.7593  37.7893

     the Fermi energy is    15.9811 ev

!    total energy              =     -66.86865613 Ry
     estimated scf accuracy    <          1.9E-11 Ry
     smearing contrib. (-TS)   =      -0.00038282 Ry
     internal energy E=F+TS    =     -66.86827331 Ry

     The total energy is F=E-TS. E is the sum of the following terms:
     one-electron contribution =       8.74026387 Ry
     hartree contribution      =       7.20575543 Ry
     xc contribution           =     -10.45723089 Ry
     ewald contribution        =     -72.35706172 Ry

     total magnetization       =     0.00 Bohr mag/cell
     absolute magnetization    =     0.00 Bohr mag/cell

     convergence has been achieved in   8 iterations

     Forces acting on atoms (cartesian axes, Ry/au):

     atom    1 type  1   force =     0.00000000    0.00000000    0.00000000
     The non-local contrib.  to forces
     atom    1 type  1   force =     0.00000000    0.00000000   -0.00000000
     The ionic contribution  to forces
     atom    1 type  1   force =    -0.00000000   -0.00000000   -0.00000000
     The local contribution  to forces
     atom    1 type  1   force =     0.00000000    0.00000000    0.00000000
     The core correction contribution to forces
     atom    1 type  1   force =     0.00000000    0.00000000    0.00000000
     The Hubbard contrib.    to forces
     atom    1 type  1   force =     0.00000000    0.00000000    0.00000000
     The SCF correction term to forces
     atom    1 type  1   force =     0.00000000    0.00000000    0.00000000

     Total force =     0.000000     Total SCF correction =     0.000000


     Computing stress (Cartesian axis) and pressure

          total   stress  (Ry/bohr**3)                   (kbar)     P=        0.14
   0.00000094  -0.00000000  -0.00000000            0.14       -0.00       -0.00
  -0.00000000   0.00000094  -0.00000000           -0.00        0.14       -0.00
  -0.00000000  -0.00000000   0.00000094           -0.00       -0.00        0.14

     Energy error            =      2.0E-07 Ry
     Gradient error          =      0.0E+00 Ry/Bohr
     Cell gradient error     =      1.4E-01 kbar
Begin final coordinates
     new unit-cell volume =    112.67620 a.u.^3 (    16.69689 Ang^3 )
     density =     19.58872 g/cm^3

CELL_PARAMETERS (angstrom)
  -0.000000000   2.028625407   2.028625407
   2.028625407  -0.000000000   2.028625407
   2.028625407   2.028625407  -0.000000000

ATOMIC_POSITIONS (angstrom)
Au            0.0000000000        0.0000000000        0.0000000000
End final coordinates



     Writing config-only to output data dir /home/gridsan/epan1/labutil/lab3_samples/problem3/Lab3/Au_a_4.0_ecut_40_nk_6/pwscf.save/

     lsda relaxation :  a final configuration with zero
                        absolute magnetization has been found

     the program is checking if it is really the minimum energy structure
     by performing a new scf iteration without any "electronic" history

     Initial potential from superposition of free atoms

     starting charge      10.9999, renormalised to      11.0000

     total cpu time spent up to now is        8.7 secs

     Self-consistent Calculation

     iteration #  1     ecut=    40.00 Ry     beta= 0.50
     Davidson diagonalization with overlap
     ethr =  1.00E-06,  avg # of iterations =  3.6

     total cpu time spent up to now is        9.0 secs

     total energy              =     -66.45481034 Ry
     estimated scf accuracy    <       0.47686301 Ry

     total magnetization       =     1.43 Bohr mag/cell
     absolute magnetization    =     1.45 Bohr mag/cell

     iteration #  2     ecut=    40.00 Ry     beta= 0.50
     Davidson diagonalization with overlap
     ethr =  4.34E-03,  avg # of iterations =  1.5

     total cpu time spent up to now is        9.1 secs

     total energy              =     -66.75641407 Ry
     estimated scf accuracy    <       0.15416509 Ry

     total magnetization       =     0.50 Bohr mag/cell
     absolute magnetization    =     0.57 Bohr mag/cell

     iteration #  3     ecut=    40.00 Ry     beta= 0.50
     Davidson diagonalization with overlap
     ethr =  1.40E-03,  avg # of iterations =  1.0

     total cpu time spent up to now is        9.2 secs

     total energy              =     -66.85026093 Ry
     estimated scf accuracy    <       0.04884701 Ry

     total magnetization       =     0.36 Bohr mag/cell
     absolute magnetization    =     0.42 Bohr mag/cell

     iteration #  4     ecut=    40.00 Ry     beta= 0.50
     Davidson diagonalization with overlap
     ethr =  4.44E-04,  avg # of iterations =  1.5

     total cpu time spent up to now is        9.4 secs

     total energy              =     -66.86755210 Ry
     estimated scf accuracy    <       0.00322438 Ry

     total magnetization       =    -0.01 Bohr mag/cell
     absolute magnetization    =     0.05 Bohr mag/cell

     iteration #  5     ecut=    40.00 Ry     beta= 0.50
     Davidson diagonalization with overlap
     ethr =  2.93E-05,  avg # of iterations =  1.7

     total cpu time spent up to now is        9.5 secs

     total energy              =     -66.86859415 Ry
     estimated scf accuracy    <       0.00015489 Ry

     total magnetization       =    -0.02 Bohr mag/cell
     absolute magnetization    =     0.02 Bohr mag/cell

     iteration #  6     ecut=    40.00 Ry     beta= 0.50
     Davidson diagonalization with overlap
     ethr =  1.41E-06,  avg # of iterations =  1.6

     total cpu time spent up to now is        9.6 secs

     total energy              =     -66.86864501 Ry
     estimated scf accuracy    <       0.00002840 Ry

     total magnetization       =     0.01 Bohr mag/cell
     absolute magnetization    =     0.01 Bohr mag/cell

     iteration #  7     ecut=    40.00 Ry     beta= 0.50
     Davidson diagonalization with overlap
     ethr =  2.58E-07,  avg # of iterations =  1.5

     total cpu time spent up to now is        9.8 secs

     total energy              =     -66.86865536 Ry
     estimated scf accuracy    <       0.00000184 Ry

     total magnetization       =     0.00 Bohr mag/cell
     absolute magnetization    =     0.00 Bohr mag/cell

     iteration #  8     ecut=    40.00 Ry     beta= 0.50
     Davidson diagonalization with overlap
     ethr =  1.67E-08,  avg # of iterations =  1.5

     total cpu time spent up to now is        9.9 secs

     total energy              =     -66.86865607 Ry
     estimated scf accuracy    <       0.00000019 Ry

     total magnetization       =    -0.00 Bohr mag/cell
     absolute magnetization    =     0.00 Bohr mag/cell

     iteration #  9     ecut=    40.00 Ry     beta= 0.50
     Davidson diagonalization with overlap
     ethr =  1.70E-09,  avg # of iterations =  1.5

     total cpu time spent up to now is       10.1 secs

     total energy              =     -66.86865613 Ry
     estimated scf accuracy    <          2.4E-09 Ry

     total magnetization       =    -0.00 Bohr mag/cell
     absolute magnetization    =     0.00 Bohr mag/cell

     iteration # 10     ecut=    40.00 Ry     beta= 0.50
     Davidson diagonalization with overlap
     ethr =  2.16E-11,  avg # of iterations =  1.9

     Magnetic moment per site  (integrated on atomic sphere of radius R)
     atom   1 (R=0.413)  charge=  9.2437  magn= -0.0000

     total cpu time spent up to now is       10.2 secs

     End of self-consistent calculation

 ------ SPIN UP ------------


          k = 0.0000 0.0000 0.0000 (   459 PWs)   bands (ev):

     5.8456  11.2399  11.2399  11.2399  12.8160  12.8160  32.4289  36.0258
    36.0258  36.0258

          k = 0.1162 0.1162-0.1162 (   471 PWs)   bands (ev):

     6.7878  11.0146  11.4970  11.4970  12.7660  12.7660  30.7883  33.3632
    36.5134  36.5134

          k = 0.2324 0.2324-0.2324 (   468 PWs)   bands (ev):

     8.3321  11.3973  11.3973  11.9579  13.4625  13.4625  23.9920  32.4140
    35.4534  35.4534

          k =-0.3486-0.3486 0.3486 (   464 PWs)   bands (ev):

     8.5022  11.1985  11.1985  14.0722  14.0722  14.9792  19.1150  31.5165
    34.0763  34.0763

          k = 0.2324 0.0000 0.0000 (   471 PWs)   bands (ev):

     7.1140  10.6326  11.8372  11.8372  12.2000  13.1007  33.3894  33.5526
    33.6542  33.6542

          k = 0.3486 0.1162-0.1162 (   462 PWs)   bands (ev):

     8.6797  10.4189  11.3745  12.0824  13.4253  13.6643  26.6740  31.9007
    32.7639  33.9406

          k =-0.2324-0.4648 0.4648 (   454 PWs)   bands (ev):

     9.1345  10.8209  11.8012  11.9069  14.1172  16.6988  20.2020  30.1201
    31.8147  32.9097

          k =-0.1162-0.3486 0.3486 (   461 PWs)   bands (ev):

     9.2200  10.9560  11.6612  11.7783  13.3002  15.7216  22.3907  28.9682
    33.1597  34.5123

          k = 0.0000-0.2324 0.2324 (   475 PWs)   bands (ev):

     8.1525  10.6517  11.5181  12.0245  12.2350  13.7687  28.3882  30.3190
    35.4667  36.5119

          k = 0.4648 0.0000 0.0000 (   452 PWs)   bands (ev):

     8.9768   9.5749  12.9262  13.3570  13.3570  13.7031  28.1805  28.8552
    28.8552  32.8066

          k =-0.1162-0.5809 0.5809 (   458 PWs)   bands (ev):

     9.2060   9.6579  12.5293  13.2339  14.2267  17.1820  22.6634  25.9113
    28.2113  34.0413

          k =-0.0000-0.4648 0.4648 (   456 PWs)   bands (ev):

     9.7120  10.5431  11.4428  12.7039  13.6198  18.4990  22.5760  23.2577
    30.7039  33.7639

          k =-0.6971 0.0000 0.0000 (   460 PWs)   bands (ev):

     8.7702   9.1054  14.0230  14.4114  14.4114  17.0207  21.7519  26.4586
    26.4586  33.1806

          k =-0.2324-0.4648 0.6971 (   467 PWs)   bands (ev):

     9.8754  10.1474  10.9155  12.9768  13.3466  15.9467  24.6970  26.5019
    29.8505  37.0440

          k =-0.1162-0.3486 0.5809 (   464 PWs)   bands (ev):

    10.1203  10.2261  11.1627  12.5569  13.9836  19.3830  20.2318  25.9673
    28.0063  36.5479

          k =-0.6971 0.2324 0.0000 (   462 PWs)   bands (ev):

     9.5386   9.8451  11.9836  13.1045  14.4129  20.2891  20.9823  24.4273
    25.7593  37.7894

 ------ SPIN DOWN ----------


          k = 0.0000 0.0000 0.0000 (   459 PWs)   bands (ev):

     5.8456  11.2398  11.2398  11.2398  12.8159  12.8159  32.4289  36.0258
    36.0258  36.0258

          k = 0.1162 0.1162-0.1162 (   471 PWs)   bands (ev):

     6.7877  11.0145  11.4969  11.4969  12.7659  12.7659  30.7882  33.3632
    36.5133  36.5133

          k = 0.2324 0.2324-0.2324 (   468 PWs)   bands (ev):

     8.3320  11.3972  11.3972  11.9578  13.4624  13.4624  23.9920  32.4140
    35.4533  35.4533

          k =-0.3486-0.3486 0.3486 (   464 PWs)   bands (ev):

     8.5021  11.1983  11.1983  14.0720  14.0720  14.9792  19.1149  31.5164
    34.0763  34.0763

          k = 0.2324 0.0000 0.0000 (   471 PWs)   bands (ev):

     7.1140  10.6324  11.8371  11.8371  12.1999  13.1005  33.3893  33.5525
    33.6542  33.6542

          k = 0.3486 0.1162-0.1162 (   462 PWs)   bands (ev):

     8.6797  10.4188  11.3744  12.0822  13.4252  13.6642  26.6739  31.9006
    32.7638  33.9405

          k =-0.2324-0.4648 0.4648 (   454 PWs)   bands (ev):

     9.1344  10.8208  11.8010  11.9068  14.1171  16.6987  20.2019  30.1200
    31.8147  32.9096

          k =-0.1162-0.3486 0.3486 (   461 PWs)   bands (ev):

     9.2199  10.9559  11.6612  11.7781  13.3001  15.7215  22.3906  28.9681
    33.1597  34.5122

          k = 0.0000-0.2324 0.2324 (   475 PWs)   bands (ev):

     8.1524  10.6516  11.5180  12.0244  12.2349  13.7686  28.3882  30.3189
    35.4666  36.5119

          k = 0.4648 0.0000 0.0000 (   452 PWs)   bands (ev):

     8.9767   9.5748  12.9262  13.3569  13.3569  13.7029  28.1804  28.8552
    28.8552  32.8066

          k =-0.1162-0.5809 0.5809 (   458 PWs)   bands (ev):

     9.2059   9.6578  12.5292  13.2337  14.2266  17.1819  22.6634  25.9112
    28.2112  34.0412

          k =-0.0000-0.4648 0.4648 (   456 PWs)   bands (ev):

     9.7119  10.5430  11.4427  12.7038  13.6197  18.4989  22.5759  23.2576
    30.7038  33.7638

          k =-0.6971 0.0000 0.0000 (   460 PWs)   bands (ev):

     8.7701   9.1053  14.0229  14.4113  14.4113  17.0207  21.7518  26.4585
    26.4585  33.1805

          k =-0.2324-0.4648 0.6971 (   467 PWs)   bands (ev):

     9.8753  10.1473  10.9154  12.9766  13.3465  15.9466  24.6969  26.5019
    29.8504  37.0439

          k =-0.1162-0.3486 0.5809 (   464 PWs)   bands (ev):

    10.1202  10.2260  11.1626  12.5568  13.9835  19.3829  20.2317  25.9672
    28.0063  36.5479

          k =-0.6971 0.2324 0.0000 (   462 PWs)   bands (ev):

     9.5385   9.8450  11.9835  13.1044  14.4128  20.2890  20.9822  24.4272
    25.7592  37.7893

     the Fermi energy is    15.9810 ev

!    total energy              =     -66.86865613 Ry
     estimated scf accuracy    <          4.8E-10 Ry
     smearing contrib. (-TS)   =      -0.00038282 Ry
     internal energy E=F+TS    =     -66.86827331 Ry

     The total energy is F=E-TS. E is the sum of the following terms:
     one-electron contribution =       8.74022331 Ry
     hartree contribution      =       7.20580796 Ry
     xc contribution           =     -10.45724286 Ry
     ewald contribution        =     -72.35706172 Ry

     total magnetization       =    -0.00 Bohr mag/cell
     absolute magnetization    =     0.00 Bohr mag/cell

     convergence has been achieved in  10 iterations

     Forces acting on atoms (cartesian axes, Ry/au):

     atom    1 type  1   force =     0.00000000    0.00000000    0.00000000
     The non-local contrib.  to forces
     atom    1 type  1   force =     0.00000000    0.00000000    0.00000000
     The ionic contribution  to forces
     atom    1 type  1   force =    -0.00000000   -0.00000000   -0.00000000
     The local contribution  to forces
     atom    1 type  1   force =     0.00000000    0.00000000    0.00000000
     The core correction contribution to forces
     atom    1 type  1   force =     0.00000000    0.00000000    0.00000000
     The Hubbard contrib.    to forces
     atom    1 type  1   force =     0.00000000    0.00000000    0.00000000
     The SCF correction term to forces
     atom    1 type  1   force =     0.00000000    0.00000000    0.00000000

     Total force =     0.000000     Total SCF correction =     0.000000


     Computing stress (Cartesian axis) and pressure

          total   stress  (Ry/bohr**3)                   (kbar)     P=        0.30
   0.00000201  -0.00000000  -0.00000000            0.30       -0.00       -0.00
  -0.00000000   0.00000201   0.00000000           -0.00        0.30        0.00
  -0.00000000   0.00000000   0.00000201           -0.00        0.00        0.30

     Energy error            =      2.0E-07 Ry
     Gradient error          =      0.0E+00 Ry/Bohr
     Cell gradient error     =      3.0E-01 kbar

     bfgs converged in   4 scf cycles and   3 bfgs steps
     (criteria: energy <  1.0E-04 Ry, force <  1.0E-03 Ry/Bohr, cell <  5.0E-01 kbar)

     End of BFGS Geometry Optimization

     Final enthalpy           =     -66.8686561284 Ry

     File /home/gridsan/epan1/labutil/lab3_samples/problem3/Lab3/Au_a_4.0_ecut_40_nk_6/pwscf.bfgs deleted, as requested
Begin final coordinates
     new unit-cell volume =    112.67620 a.u.^3 (    16.69689 Ang^3 )
     density =     19.58872 g/cm^3

CELL_PARAMETERS (angstrom)
  -0.000000000   2.028625407   2.028625407
   2.028625407  -0.000000000   2.028625407
   2.028625407   2.028625407  -0.000000000

ATOMIC_POSITIONS (angstrom)
Au            0.0000000000        0.0000000000        0.0000000000
End final coordinates



     Writing config-only to output data dir /home/gridsan/epan1/labutil/lab3_samples/problem3/Lab3/Au_a_4.0_ecut_40_nk_6/pwscf.save/

     Final scf calculation at the relaxed structure.
     The G-vectors are recalculated for the final unit cell
     Results may differ from those at the preceding step.

     Parallelization info
     --------------------
     sticks:   dense  smooth     PW     G-vecs:    dense   smooth      PW
     Min          81      39     13                 1370      479      92
     Max          82      40     14                 1374      484      95
     Sum         649     313    109                10969     3839     749

     Using Slab Decomposition



     bravais-lattice index     =            0
     lattice parameter (alat)  =       5.3450  a.u.
     unit-cell volume          =     112.6762 (a.u.)^3
     number of atoms/cell      =            1
     number of atomic types    =            1
     number of electrons       =        11.00
     number of Kohn-Sham states=           10
     kinetic-energy cutoff     =      40.0000  Ry
     charge density cutoff     =     320.0000  Ry
     scf convergence threshold =      1.0E-09
     mixing beta               =       0.5000
     number of iterations used =            8  plain     mixing
     press convergence thresh. =      5.0E-01
     Exchange-correlation=  SLA  PZ   NOGX NOGC
                           (   1   1   0   0   0   0   0)

     celldm(1)=   5.344953  celldm(2)=   0.000000  celldm(3)=   0.000000
     celldm(4)=   0.000000  celldm(5)=   0.000000  celldm(6)=   0.000000

     crystal axes: (cart. coord. in units of alat)
               a(1) = (  -0.000000   0.717227   0.717227 )  
               a(2) = (   0.717227  -0.000000   0.717227 )  
               a(3) = (   0.717227   0.717227  -0.000000 )  

     reciprocal axes: (cart. coord. in units 2 pi/alat)
               b(1) = ( -0.697129  0.697129  0.697129 )  
               b(2) = (  0.697129 -0.697129  0.697129 )  
               b(3) = (  0.697129  0.697129 -0.697129 )  


     PseudoPot. # 1 for Au read from file:
     /home/gridsan/epan1/labutil/lab3_samples/pseudopotentials/Au.pz-d-rrkjus.UPF
     MD5 check sum: 424ffd4ac9c90487cbadcd287136c95b
     Pseudo is Ultrasoft, Zval = 11.0
     Generated by new atomic code, or converted to UPF format
     Using radial grid of 1279 points,  3 beta functions with: 
                l(1) =   2
                l(2) =   2
                l(3) =   1
     Q(r) pseudized with 0 coefficients 


     atomic species   valence    mass     pseudopotential
        Au            11.00   196.96657     Au( 1.00)

     Starting magnetic structure 
     atomic species   magnetization
        Au          -0.000

     48 Sym. Ops., with inversion, found



   Cartesian axes

     site n.     atom                  positions (alat units)
         1           Au  tau(   1) = (   0.0000000   0.0000000   0.0000000  )

     number of k points=    16  Methfessel-Paxton smearing, width (Ry)=  0.0200
                       cart. coord. in units 2pi/alat
        k(    1) = (   0.0000000   0.0000000   0.0000000), wk =   0.0046296
        k(    2) = (   0.1161882   0.1161882  -0.1161882), wk =   0.0370370
        k(    3) = (   0.2323763   0.2323763  -0.2323763), wk =   0.0370370
        k(    4) = (  -0.3485645  -0.3485645   0.3485645), wk =   0.0185185
        k(    5) = (   0.2323763   0.0000000   0.0000000), wk =   0.0277778
        k(    6) = (   0.3485645   0.1161882  -0.1161882), wk =   0.1111111
        k(    7) = (  -0.2323763  -0.4647527   0.4647527), wk =   0.1111111
        k(    8) = (  -0.1161882  -0.3485645   0.3485645), wk =   0.1111111
        k(    9) = (   0.0000000  -0.2323763   0.2323763), wk =   0.0555556
        k(   10) = (   0.4647527   0.0000000   0.0000000), wk =   0.0277778
        k(   11) = (  -0.1161882  -0.5809408   0.5809408), wk =   0.1111111
        k(   12) = (  -0.0000000  -0.4647527   0.4647527), wk =   0.0555556
        k(   13) = (  -0.6971290   0.0000000   0.0000000), wk =   0.0138889
        k(   14) = (  -0.2323763  -0.4647527   0.6971290), wk =   0.1111111
        k(   15) = (  -0.1161882  -0.3485645   0.5809408), wk =   0.1111111
        k(   16) = (  -0.6971290   0.2323763   0.0000000), wk =   0.0555556

     Dense  grid:    10969 G-vectors     FFT dimensions: (  32,  32,  32)

     Smooth grid:     3839 G-vectors     FFT dimensions: (  24,  24,  24)

     Estimated max dynamical RAM per process >       5.13 MB

     Estimated total dynamical RAM >      41.01 MB
     Generating pointlists ...

     Initial potential from superposition of free atoms

     starting charge      10.9999, renormalised to      11.0000
     Starting wfcs are    9 randomized atomic wfcs +    1 random wfcs

     total cpu time spent up to now is       10.6 secs

     Self-consistent Calculation

     iteration #  1     ecut=    40.00 Ry     beta= 0.50
     Davidson diagonalization with overlap
     ethr =  1.00E-06,  avg # of iterations = 11.8

     total cpu time spent up to now is       10.9 secs

     total energy              =     -66.85072664 Ry
     estimated scf accuracy    <       0.07574912 Ry

     total magnetization       =    -0.00 Bohr mag/cell
     absolute magnetization    =     0.00 Bohr mag/cell

     iteration #  2     ecut=    40.00 Ry     beta= 0.50
     Davidson diagonalization with overlap
     ethr =  6.89E-04,  avg # of iterations =  2.0

     total cpu time spent up to now is       11.1 secs

     total energy              =     -66.86842935 Ry
     estimated scf accuracy    <       0.00171867 Ry

     total magnetization       =    -0.00 Bohr mag/cell
     absolute magnetization    =     0.00 Bohr mag/cell

     iteration #  3     ecut=    40.00 Ry     beta= 0.50
     Davidson diagonalization with overlap
     ethr =  1.56E-05,  avg # of iterations =  1.6

     total cpu time spent up to now is       11.2 secs

     total energy              =     -66.86868804 Ry
     estimated scf accuracy    <       0.00012022 Ry

     total magnetization       =    -0.00 Bohr mag/cell
     absolute magnetization    =     0.00 Bohr mag/cell

     iteration #  4     ecut=    40.00 Ry     beta= 0.50
     Davidson diagonalization with overlap
     ethr =  1.09E-06,  avg # of iterations =  1.2

     total cpu time spent up to now is       11.4 secs

     total energy              =     -66.86868959 Ry
     estimated scf accuracy    <       0.00000227 Ry

     total magnetization       =    -0.00 Bohr mag/cell
     absolute magnetization    =     0.00 Bohr mag/cell

     iteration #  5     ecut=    40.00 Ry     beta= 0.50
     Davidson diagonalization with overlap
     ethr =  2.07E-08,  avg # of iterations =  1.2

     total cpu time spent up to now is       11.5 secs

     total energy              =     -66.86868995 Ry
     estimated scf accuracy    <       0.00000008 Ry

     total magnetization       =    -0.00 Bohr mag/cell
     absolute magnetization    =     0.00 Bohr mag/cell

     iteration #  6     ecut=    40.00 Ry     beta= 0.50
     Davidson diagonalization with overlap
     ethr =  6.90E-10,  avg # of iterations =  1.1

     Magnetic moment per site  (integrated on atomic sphere of radius R)
     atom   1 (R=0.413)  charge=  9.2436  magn= -0.0000

     total cpu time spent up to now is       11.6 secs

     End of self-consistent calculation

 ------ SPIN UP ------------


          k = 0.0000 0.0000 0.0000 (   531 PWs)   bands (ev):

     5.8456  11.2395  11.2395  11.2395  12.8157  12.8157  32.4288  36.0257
    36.0257  36.0257

          k = 0.1162 0.1162-0.1162 (   489 PWs)   bands (ev):

     6.7878  11.0144  11.4967  11.4967  12.7658  12.7658  30.7882  33.3631
    36.5133  36.5133

          k = 0.2324 0.2324-0.2324 (   492 PWs)   bands (ev):

     8.3320  11.3971  11.3971  11.9578  13.4622  13.4622  23.9919  32.4140
    35.4533  35.4533

          k =-0.3486-0.3486 0.3486 (   476 PWs)   bands (ev):

     8.5021  11.1982  11.1982  14.0719  14.0719  14.9793  19.1149  31.5165
    34.0763  34.0763

          k = 0.2324 0.0000 0.0000 (   488 PWs)   bands (ev):

     7.1140  10.6323  11.8369  11.8369  12.1998  13.1004  33.3893  33.5525
    33.6542  33.6542

          k = 0.3486 0.1162-0.1162 (   481 PWs)   bands (ev):

     8.6797  10.4188  11.3743  12.0821  13.4251  13.6641  26.6739  31.9006
    32.7638  33.9405

          k =-0.2324-0.4648 0.4648 (   478 PWs)   bands (ev):

     9.1344  10.8207  11.8009  11.9067  14.1169  16.6987  20.2019  30.1200
    31.8147  32.9096

          k =-0.1162-0.3486 0.3486 (   483 PWs)   bands (ev):

     9.2199  10.9558  11.6611  11.7780  13.2999  15.7214  22.3906  28.9681
    33.1597  34.5122

          k = 0.0000-0.2324 0.2324 (   487 PWs)   bands (ev):

     8.1525  10.6515  11.5179  12.0243  12.2347  13.7685  28.3882  30.3189
    35.4666  36.5119

          k = 0.4648 0.0000 0.0000 (   480 PWs)   bands (ev):

     8.9766   9.5746  12.9262  13.3567  13.3567  13.7028  28.1804  28.8552
    28.8552  32.8064

          k =-0.1162-0.5809 0.5809 (   480 PWs)   bands (ev):

     9.2058   9.6577  12.5291  13.2336  14.2265  17.1819  22.6634  25.9112
    28.2113  34.0410

          k =-0.0000-0.4648 0.4648 (   480 PWs)   bands (ev):

     9.7118  10.5430  11.4426  12.7037  13.6195  18.4989  22.5759  23.2576
    30.7038  33.7637

          k =-0.6971 0.0000 0.0000 (   468 PWs)   bands (ev):

     8.7700   9.1052  14.0228  14.4112  14.4112  17.0208  21.7518  26.4586
    26.4586  33.1804

          k =-0.2324-0.4648 0.6971 (   481 PWs)   bands (ev):

     9.8753  10.1472  10.9153  12.9765  13.3464  15.9465  24.6970  26.5018
    29.8504  37.0439

          k =-0.1162-0.3486 0.5809 (   478 PWs)   bands (ev):

    10.1201  10.2259  11.1625  12.5567  13.9833  19.3829  20.2318  25.9672
    28.0062  36.5478

          k =-0.6971 0.2324 0.0000 (   478 PWs)   bands (ev):

     9.5384   9.8449  11.9834  13.1043  14.4127  20.2890  20.9822  24.4272
    25.7592  37.7892

 ------ SPIN DOWN ----------


          k = 0.0000 0.0000 0.0000 (   531 PWs)   bands (ev):

     5.8456  11.2395  11.2395  11.2395  12.8157  12.8157  32.4288  36.0257
    36.0257  36.0257

          k = 0.1162 0.1162-0.1162 (   489 PWs)   bands (ev):

     6.7878  11.0144  11.4967  11.4967  12.7658  12.7658  30.7882  33.3631
    36.5133  36.5133

          k = 0.2324 0.2324-0.2324 (   492 PWs)   bands (ev):

     8.3320  11.3971  11.3971  11.9578  13.4622  13.4622  23.9919  32.4140
    35.4533  35.4533

          k =-0.3486-0.3486 0.3486 (   476 PWs)   bands (ev):

     8.5021  11.1982  11.1982  14.0719  14.0719  14.9793  19.1149  31.5165
    34.0763  34.0763

          k = 0.2324 0.0000 0.0000 (   488 PWs)   bands (ev):

     7.1140  10.6323  11.8369  11.8369  12.1998  13.1004  33.3893  33.5525
    33.6542  33.6542

          k = 0.3486 0.1162-0.1162 (   481 PWs)   bands (ev):

     8.6797  10.4188  11.3743  12.0821  13.4251  13.6641  26.6739  31.9006
    32.7638  33.9405

          k =-0.2324-0.4648 0.4648 (   478 PWs)   bands (ev):

     9.1344  10.8207  11.8009  11.9067  14.1169  16.6987  20.2019  30.1200
    31.8147  32.9096

          k =-0.1162-0.3486 0.3486 (   483 PWs)   bands (ev):

     9.2199  10.9558  11.6611  11.7780  13.2999  15.7214  22.3906  28.9681
    33.1597  34.5122

          k = 0.0000-0.2324 0.2324 (   487 PWs)   bands (ev):

     8.1525  10.6515  11.5179  12.0243  12.2347  13.7685  28.3882  30.3189
    35.4666  36.5119

          k = 0.4648 0.0000 0.0000 (   480 PWs)   bands (ev):

     8.9766   9.5746  12.9262  13.3567  13.3567  13.7028  28.1804  28.8552
    28.8552  32.8064

          k =-0.1162-0.5809 0.5809 (   480 PWs)   bands (ev):

     9.2058   9.6577  12.5291  13.2336  14.2265  17.1819  22.6634  25.9112
    28.2113  34.0410

          k =-0.0000-0.4648 0.4648 (   480 PWs)   bands (ev):

     9.7118  10.5430  11.4426  12.7037  13.6195  18.4989  22.5759  23.2576
    30.7038  33.7637

          k =-0.6971 0.0000 0.0000 (   468 PWs)   bands (ev):

     8.7700   9.1052  14.0228  14.4112  14.4112  17.0208  21.7518  26.4586
    26.4586  33.1804

          k =-0.2324-0.4648 0.6971 (   481 PWs)   bands (ev):

     9.8753  10.1471  10.9153  12.9765  13.3464  15.9465  24.6970  26.5018
    29.8504  37.0439

          k =-0.1162-0.3486 0.5809 (   478 PWs)   bands (ev):

    10.1201  10.2259  11.1625  12.5567  13.9833  19.3829  20.2318  25.9672
    28.0062  36.5478

          k =-0.6971 0.2324 0.0000 (   478 PWs)   bands (ev):

     9.5384   9.8449  11.9834  13.1043  14.4127  20.2890  20.9822  24.4272
    25.7592  37.7892

     the Fermi energy is    15.9809 ev

!    total energy              =     -66.86868996 Ry
     estimated scf accuracy    <          3.5E-10 Ry
     smearing contrib. (-TS)   =      -0.00038281 Ry
     internal energy E=F+TS    =     -66.86830715 Ry

     The total energy is F=E-TS. E is the sum of the following terms:
     one-electron contribution =       8.74026180 Ry
     hartree contribution      =       7.20568953 Ry
     xc contribution           =     -10.45719676 Ry
     ewald contribution        =     -72.35706172 Ry

     total magnetization       =    -0.00 Bohr mag/cell
     absolute magnetization    =     0.00 Bohr mag/cell

     convergence has been achieved in   6 iterations

     Forces acting on atoms (cartesian axes, Ry/au):

     atom    1 type  1   force =     0.00000000    0.00000000    0.00000000
     The non-local contrib.  to forces
     atom    1 type  1   force =    -0.00000000   -0.00000000    0.00000000
     The ionic contribution  to forces
     atom    1 type  1   force =    -0.00000000   -0.00000000   -0.00000000
     The local contribution  to forces
     atom    1 type  1   force =     0.00000000    0.00000000    0.00000000
     The core correction contribution to forces
     atom    1 type  1   force =     0.00000000    0.00000000    0.00000000
     The Hubbard contrib.    to forces
     atom    1 type  1   force =     0.00000000    0.00000000    0.00000000
     The SCF correction term to forces
     atom    1 type  1   force =     0.00000000    0.00000000    0.00000000

     Total force =     0.000000     Total SCF correction =     0.000000


     Computing stress (Cartesian axis) and pressure

          total   stress  (Ry/bohr**3)                   (kbar)     P=        0.09
   0.00000060   0.00000000   0.00000000            0.09        0.00        0.00
   0.00000000   0.00000060  -0.00000000            0.00        0.09       -0.00
   0.00000000   0.00000000   0.00000060            0.00        0.00        0.09


     init_run     :      0.54s CPU      0.54s WALL (       2 calls)
     electrons    :      9.88s CPU      9.51s WALL (       6 calls)
     update_pot   :      0.28s CPU      0.23s WALL (       3 calls)
     forces       :      0.30s CPU      0.29s WALL (       6 calls)
     stress       :      0.65s CPU      0.59s WALL (       6 calls)

     Called by init_run:
     wfcinit      :      0.05s CPU      0.06s WALL (       2 calls)
     potinit      :      0.38s CPU      0.38s WALL (       3 calls)
     hinit0       :      0.30s CPU      0.30s WALL (       2 calls)

     Called by electrons:
     c_bands      :      7.84s CPU      7.73s WALL (      61 calls)
     sum_band     :      1.48s CPU      1.29s WALL (      61 calls)
     v_of_rho     :      0.24s CPU      0.22s WALL (      66 calls)
     newd         :      0.20s CPU      0.17s WALL (      66 calls)
     mix_rho      :      0.06s CPU      0.05s WALL (      61 calls)

     Called by c_bands:
     init_us_2    :      0.15s CPU      0.13s WALL (    4352 calls)
     init_us_2:cp :      0.14s CPU      0.13s WALL (    4352 calls)
     cegterg      :      6.81s CPU      6.33s WALL (    1952 calls)

     Called by *egterg:
     cdiaghg      :      1.01s CPU      0.93s WALL (    5188 calls)
     h_psi        :      4.61s CPU      4.23s WALL (    5412 calls)
     s_psi        :      0.05s CPU      0.04s WALL (    5412 calls)
     g_psi        :      0.02s CPU      0.01s WALL (    3396 calls)

     Called by h_psi:
     h_psi:calbec :      0.42s CPU      0.37s WALL (    5412 calls)
     vloc_psi     :      4.11s CPU      3.78s WALL (    5412 calls)
     add_vuspsi   :      0.05s CPU      0.05s WALL (    5412 calls)

     General routines
     calbec       :      0.58s CPU      0.53s WALL (    8324 calls)
     fft          :      0.33s CPU      0.33s WALL (     736 calls)
     ffts         :      0.13s CPU      0.13s WALL (     254 calls)
     fftw         :      4.38s CPU      4.00s WALL (  111916 calls)
     interpolate  :      0.15s CPU      0.15s WALL (     132 calls)

     Parallel routines

     PWSCF        :     12.19s CPU     11.76s WALL


   This run was terminated on:  11: 6:33   3Nov2023            

=------------------------------------------------------------------------------=
   JOB DONE.
=------------------------------------------------------------------------------=
