
     Program PWSCF v.7.2 starts on  1Nov2023 at 16:58:58 

     This program is part of the open-source Quantum ESPRESSO suite
     for quantum simulation of materials; please cite
         "P. Giannozzi et al., J. Phys.:Condens. Matter 21 395502 (2009);
         "P. Giannozzi et al., J. Phys.:Condens. Matter 29 465901 (2017);
         "P. Giannozzi et al., J. Chem. Phys. 152 154105 (2020);
          URL http://www.quantum-espresso.org", 
     in publications or presentations arising from this work. More details at
     http://www.quantum-espresso.org/quote

     Parallel version (MPI), running on     4 processors

     MPI processes distributed on     4 nodes
     186840 MiB available memory on the printing compute node when the environment starts

     Waiting for input...
     Reading input from standard input
Warning: card &CELL ignored
Warning: card / ignored

     Current dimensions of program PWSCF are:
     Max number of different atomic species (ntypx) = 10
     Max number of k-points (npk) =  40000
     Max angular momentum in pseudopotentials (lmaxx) =  4
     file Fe.pbe-nd-rrkjus.UPF: wavefunction(s)  4S renormalized
     Message from routine setup:
     using ibrav=0 with symmetry is DISCOURAGED, use correct ibrav instead

     R & G space division:  proc/nbgrp/npool/nimage =       4
     Subspace diagonalization in iterative solution of the eigenvalue problem:
     a serial algorithm will be used


     Parallelization info
     --------------------
     sticks:   dense  smooth     PW     G-vecs:    dense   smooth      PW
     Min          75      37     19                  829      289     107
     Max          76      38     20                  830      290     108
     Sum         303     151     77                 3319     1157     429

     Using Slab Decomposition



     bravais-lattice index     =            0
     lattice parameter (alat)  =       4.0914  a.u.
     unit-cell volume          =      52.7214 (a.u.)^3
     number of atoms/cell      =            1
     number of atomic types    =            1
     number of electrons       =         8.00
     number of Kohn-Sham states=            8
     kinetic-energy cutoff     =      30.0000  Ry
     charge density cutoff     =     240.0000  Ry
     scf convergence threshold =      1.0E-07
     mixing beta               =       0.5000
     number of iterations used =            8  plain     mixing
     Exchange-correlation=  SLA  PW   PBE  PBE
                           (   1   4   3   4   0   0   0)

     celldm(1)=   4.091377  celldm(2)=   0.000000  celldm(3)=   0.000000
     celldm(4)=   0.000000  celldm(5)=   0.000000  celldm(6)=   0.000000

     crystal axes: (cart. coord. in units of alat)
               a(1) = (  -0.577350   0.577350   0.577350 )  
               a(2) = (   0.577350  -0.577350   0.577350 )  
               a(3) = (   0.577350   0.577350  -0.577350 )  

     reciprocal axes: (cart. coord. in units 2 pi/alat)
               b(1) = (  0.000000  0.866025  0.866025 )  
               b(2) = (  0.866025  0.000000  0.866025 )  
               b(3) = (  0.866025  0.866025  0.000000 )  


     PseudoPot. # 1 for Fe read from file:
     /home/gridsan/epan1/labutil/lab3_samples/pseudopotentials/Fe.pbe-nd-rrkjus.UPF
     MD5 check sum: 398036227a04b607635f6f5e8dfd8242
     Pseudo is Ultrasoft + core correction, Zval =  8.0
     Generated by new atomic code, or converted to UPF format
     Using radial grid of  957 points,  6 beta functions with: 
                l(1) =   0
                l(2) =   0
                l(3) =   1
                l(4) =   1
                l(5) =   2
                l(6) =   2
     Q(r) pseudized with 0 coefficients 


     atomic species   valence    mass     pseudopotential
        Fe             8.00    55.84500     Fe( 1.00)

     Starting magnetic structure 
     atomic species   magnetization
        Fe           0.700

     48 Sym. Ops., with inversion, found



   Cartesian axes

     site n.     atom                  positions (alat units)
         1           Fe  tau(   1) = (   0.0000000   0.0000000   0.0000000  )

     number of k points=    47  Methfessel-Paxton smearing, width (Ry)=  0.0200
                       cart. coord. in units 2pi/alat
        k(    1) = (   0.0000000   0.0000000   0.0000000), wk =   0.0010000
        k(    2) = (   0.0866025   0.0866025   0.0000000), wk =   0.0120000
        k(    3) = (   0.1732051   0.1732051   0.0000000), wk =   0.0120000
        k(    4) = (   0.2598076   0.2598076   0.0000000), wk =   0.0120000
        k(    5) = (   0.3464102   0.3464102   0.0000000), wk =   0.0120000
        k(    6) = (  -0.4330127  -0.4330127   0.0000000), wk =   0.0060000
        k(    7) = (   0.1732051   0.0866025   0.0866025), wk =   0.0240000
        k(    8) = (   0.2598076   0.1732051   0.0866025), wk =   0.0480000
        k(    9) = (   0.3464102   0.2598076   0.0866025), wk =   0.0480000
        k(   10) = (   0.4330127   0.3464102   0.0866025), wk =   0.0480000
        k(   11) = (   0.3464102   0.1732051   0.1732051), wk =   0.0240000
        k(   12) = (   0.4330127   0.2598076   0.1732051), wk =   0.0480000
        k(   13) = (   0.5196152   0.3464102   0.1732051), wk =   0.0240000
        k(   14) = (   0.5196152   0.2598076   0.2598076), wk =   0.0240000
        k(   15) = (   0.1732051   0.1732051   0.1732051), wk =   0.0080000
        k(   16) = (   0.2598076   0.2598076   0.1732051), wk =   0.0240000
        k(   17) = (   0.3464102   0.3464102   0.1732051), wk =   0.0240000
        k(   18) = (   0.4330127   0.4330127   0.1732051), wk =   0.0120000
        k(   19) = (   0.0000000   0.0000000   0.1732051), wk =   0.0060000
        k(   20) = (   0.3464102   0.2598076   0.2598076), wk =   0.0240000
        k(   21) = (   0.4330127   0.3464102   0.2598076), wk =   0.0480000
        k(   22) = (   0.0000000  -0.0866025   0.2598076), wk =   0.0240000
        k(   23) = (   0.5196152   0.3464102   0.3464102), wk =   0.0080000
        k(   24) = (   0.0000000  -0.1732051   0.3464102), wk =   0.0240000
        k(   25) = (   0.0866025  -0.0866025   0.3464102), wk =   0.0240000
        k(   26) = (   0.0000000  -0.2598076   0.4330127), wk =   0.0240000
        k(   27) = (   0.0866025  -0.1732051   0.4330127), wk =   0.0480000
        k(   28) = (  -0.8660254  -0.3464102  -0.3464102), wk =   0.0120000
        k(   29) = (  -0.7794229  -0.2598076  -0.3464102), wk =   0.0480000
        k(   30) = (  -0.6928203  -0.1732051  -0.3464102), wk =   0.0240000
        k(   31) = (  -0.6928203  -0.2598076  -0.2598076), wk =   0.0240000
        k(   32) = (   0.3464102   0.3464102   0.3464102), wk =   0.0080000
        k(   33) = (   0.4330127   0.4330127   0.3464102), wk =   0.0120000
        k(   34) = (   0.0000000   0.0000000   0.3464102), wk =   0.0060000
        k(   35) = (   0.0000000  -0.0866025   0.4330127), wk =   0.0240000
        k(   36) = (   0.0000000  -0.1732051   0.5196152), wk =   0.0240000
        k(   37) = (   0.0866025  -0.0866025   0.5196152), wk =   0.0240000
        k(   38) = (  -0.8660254  -0.2598076  -0.2598076), wk =   0.0120000
        k(   39) = (  -0.7794229  -0.1732051  -0.2598076), wk =   0.0480000
        k(   40) = (  -0.6928203  -0.1732051  -0.1732051), wk =   0.0080000
        k(   41) = (   0.0000000   0.0000000   0.5196152), wk =   0.0060000
        k(   42) = (   0.0000000  -0.0866025   0.6062178), wk =   0.0240000
        k(   43) = (  -0.8660254  -0.1732051  -0.1732051), wk =   0.0120000
        k(   44) = (  -0.7794229  -0.0866025  -0.1732051), wk =   0.0240000
        k(   45) = (   0.0000000   0.0000000   0.6928203), wk =   0.0060000
        k(   46) = (  -0.8660254  -0.0866025  -0.0866025), wk =   0.0120000
        k(   47) = (  -0.8660254  -0.8660254  -0.8660254), wk =   0.0010000

     Dense  grid:     3319 G-vectors     FFT dimensions: (  24,  24,  24)

     Smooth grid:     1157 G-vectors     FFT dimensions: (  15,  15,  15)

     Estimated max dynamical RAM per process >       5.20 MB

     Estimated total dynamical RAM >      20.80 MB
     Generating pointlists ...
     new r_m :   0.4125 (alat units)  1.6877 (a.u.) for type    1

     Initial potential from superposition of free atoms

     starting charge       7.9994, renormalised to       8.0000
     Starting wfcs are    6 randomized atomic wfcs +    2 random wfcs

     total cpu time spent up to now is        0.4 secs

     Self-consistent Calculation

     iteration #  1     ecut=    30.00 Ry     beta= 0.50
     Davidson diagonalization with overlap
     ethr =  1.00E-02,  avg # of iterations =  4.5

     total cpu time spent up to now is        0.6 secs

     total energy              =     -55.59208154 Ry
     estimated scf accuracy    <       0.25494287 Ry

     total magnetization       =     2.53 Bohr mag/cell
     absolute magnetization    =     2.53 Bohr mag/cell

     iteration #  2     ecut=    30.00 Ry     beta= 0.50
     Davidson diagonalization with overlap
     ethr =  3.19E-03,  avg # of iterations =  1.4

     total cpu time spent up to now is        0.8 secs

     total energy              =     -55.67400331 Ry
     estimated scf accuracy    <       0.03250598 Ry

     total magnetization       =     2.29 Bohr mag/cell
     absolute magnetization    =     2.29 Bohr mag/cell

     iteration #  3     ecut=    30.00 Ry     beta= 0.50
     Davidson diagonalization with overlap
     ethr =  4.06E-04,  avg # of iterations =  1.3

     total cpu time spent up to now is        0.9 secs

     total energy              =     -55.69161480 Ry
     estimated scf accuracy    <       0.01247097 Ry

     total magnetization       =     2.10 Bohr mag/cell
     absolute magnetization    =     2.12 Bohr mag/cell

     iteration #  4     ecut=    30.00 Ry     beta= 0.50
     Davidson diagonalization with overlap
     ethr =  1.56E-04,  avg # of iterations =  1.5

     total cpu time spent up to now is        1.1 secs

     total energy              =     -55.69929996 Ry
     estimated scf accuracy    <       0.00154323 Ry

     total magnetization       =     1.76 Bohr mag/cell
     absolute magnetization    =     1.82 Bohr mag/cell

     iteration #  5     ecut=    30.00 Ry     beta= 0.50
     Davidson diagonalization with overlap
     ethr =  1.93E-05,  avg # of iterations =  4.9

     total cpu time spent up to now is        1.3 secs

     total energy              =     -55.69993069 Ry
     estimated scf accuracy    <       0.00086610 Ry

     total magnetization       =     1.70 Bohr mag/cell
     absolute magnetization    =     1.77 Bohr mag/cell

     iteration #  6     ecut=    30.00 Ry     beta= 0.50
     Davidson diagonalization with overlap
     ethr =  1.08E-05,  avg # of iterations =  1.5

     total cpu time spent up to now is        1.5 secs

     total energy              =     -55.70043695 Ry
     estimated scf accuracy    <       0.00060811 Ry

     total magnetization       =     1.59 Bohr mag/cell
     absolute magnetization    =     1.65 Bohr mag/cell

     iteration #  7     ecut=    30.00 Ry     beta= 0.50
     Davidson diagonalization with overlap
     ethr =  7.60E-06,  avg # of iterations =  1.1

     total cpu time spent up to now is        1.6 secs

     total energy              =     -55.70052862 Ry
     estimated scf accuracy    <       0.00012679 Ry

     total magnetization       =     1.55 Bohr mag/cell
     absolute magnetization    =     1.60 Bohr mag/cell

     iteration #  8     ecut=    30.00 Ry     beta= 0.50
     Davidson diagonalization with overlap
     ethr =  1.58E-06,  avg # of iterations =  2.2

     total cpu time spent up to now is        1.8 secs

     total energy              =     -55.70055852 Ry
     estimated scf accuracy    <       0.00000980 Ry

     total magnetization       =     1.54 Bohr mag/cell
     absolute magnetization    =     1.59 Bohr mag/cell

     iteration #  9     ecut=    30.00 Ry     beta= 0.50
     Davidson diagonalization with overlap
     ethr =  1.22E-07,  avg # of iterations =  3.7

     total cpu time spent up to now is        2.1 secs

     total energy              =     -55.70057139 Ry
     estimated scf accuracy    <       0.00000035 Ry

     total magnetization       =     1.53 Bohr mag/cell
     absolute magnetization    =     1.58 Bohr mag/cell

     iteration # 10     ecut=    30.00 Ry     beta= 0.50
     Davidson diagonalization with overlap
     ethr =  4.34E-09,  avg # of iterations =  5.0

     Magnetic moment per site  (integrated on atomic sphere of radius R)
     atom   1 (R=0.413)  charge=  6.2149  magn=  1.5274

     total cpu time spent up to now is        2.3 secs

     End of self-consistent calculation

 ------ SPIN UP ------------


          k = 0.0000 0.0000 0.0000 (   141 PWs)   bands (ev):

    11.0643  18.3631  18.3631  18.3631  20.5406  20.5406  49.8371  49.8371

          k = 0.0866 0.0866 0.0000 (   142 PWs)   bands (ev):

    11.6243  18.1595  18.3296  18.7425  20.3450  20.5583  48.1706  49.4703

          k = 0.1732 0.1732 0.0000 (   152 PWs)   bands (ev):

    13.0679  17.6487  18.1601  19.7899  20.1746  20.6243  44.4389  47.7922

          k = 0.2598 0.2598 0.0000 (   150 PWs)   bands (ev):

    14.3124  17.0577  18.6839  20.3990  20.7485  21.2211  39.8309  45.4492

          k = 0.3464 0.3464 0.0000 (   148 PWs)   bands (ev):

    14.3485  16.6076  20.4352  20.8863  21.1701  22.5290  35.4469  43.6521

          k =-0.4330-0.4330 0.0000 (   150 PWs)   bands (ev):

    14.2025  16.4412  20.7071  20.9482  22.5599  23.0760  33.2915  42.9934

          k = 0.1732 0.0866 0.0866 (   149 PWs)   bands (ev):

    12.6488  17.9134  18.0144  19.5476  20.0864  20.6709  46.0183  47.6179

          k = 0.2598 0.1732 0.0866 (   152 PWs)   bands (ev):

    14.1800  17.3576  17.8050  20.0715  20.8148  21.0330  42.2522  45.1983

          k = 0.3464 0.2598 0.0866 (   147 PWs)   bands (ev):

    14.7717  16.8402  18.7425  20.4307  21.0911  22.8136  37.6538  43.2765

          k = 0.4330 0.3464 0.0866 (   147 PWs)   bands (ev):

    14.5591  16.5537  19.8498  20.6517  21.6993  24.6243  33.9227  42.1660

          k = 0.3464 0.1732 0.1732 (   143 PWs)   bands (ev):

    15.3382  16.9035  17.6460  20.1528  21.1100  23.0852  39.8335  41.3611

          k = 0.4330 0.2598 0.1732 (   145 PWs)   bands (ev):

    15.4634  16.6665  18.2042  20.4924  21.3537  25.7223  35.8214  39.3772

          k = 0.5196 0.3464 0.1732 (   148 PWs)   bands (ev):

    15.3046  16.6415  18.5106  20.6626  21.5426  27.6279  33.2100  38.7901

          k = 0.5196 0.2598 0.2598 (   151 PWs)   bands (ev):

    15.9670  16.7397  17.5833  20.8294  21.2848  29.2468  33.5304  36.2639

          k = 0.1732 0.1732 0.1732 (   150 PWs)   bands (ev):

    13.9830  17.3935  17.3935  20.4727  20.4727  21.0318  44.1879  44.1879

          k = 0.2598 0.2598 0.1732 (   148 PWs)   bands (ev):

    15.3191  16.8498  17.3566  20.5311  20.7525  22.9965  40.0525  42.3591

          k = 0.3464 0.3464 0.1732 (   149 PWs)   bands (ev):

    15.2363  16.4973  18.8228  20.7269  20.9172  25.2648  35.6719  41.0184

          k = 0.4330 0.4330 0.1732 (   150 PWs)   bands (ev):

    15.0488  16.3765  19.6586  20.8201  20.9733  26.7821  33.2598  40.5257

          k = 0.0000 0.0000 0.1732 (   148 PWs)   bands (ev):

    12.1590  18.3643  18.3643  18.7333  19.8301  20.8222  47.0069  49.9466

          k = 0.3464 0.2598 0.2598 (   149 PWs)   bands (ev):

    16.0561  16.6187  17.4127  20.6991  20.9472  25.5506  37.8013  39.1289

          k = 0.4330 0.3464 0.2598 (   148 PWs)   bands (ev):

    15.8794  16.5334  18.1773  20.8664  21.0443  28.3952  34.1502  37.7719

          k = 0.0000-0.0866 0.2598 (   150 PWs)   bands (ev):

    13.5270  18.0014  18.1918  19.4403  19.6851  21.1033  44.4508  47.7226

          k = 0.5196 0.3464 0.3464 (   146 PWs)   bands (ev):

    16.0438  17.2829  17.2829  21.0061  21.0061  31.8658  31.8658  35.7140

          k = 0.0000-0.1732 0.3464 (   143 PWs)   bands (ev):

    14.7118  17.4592  18.0073  19.9497  21.1317  21.6094  40.1410  45.2645

          k = 0.0866-0.0866 0.3464 (   150 PWs)   bands (ev):

    14.8062  17.4644  18.1166  19.3496  20.7207  21.7731  42.3036  44.1871

          k = 0.0000-0.2598 0.4330 (   150 PWs)   bands (ev):

    14.7012  17.0387  18.6527  20.3535  22.4665  23.2563  35.6455  43.7014

          k = 0.0866-0.1732 0.4330 (   147 PWs)   bands (ev):

    15.3834  16.9974  17.9886  19.9219  21.6070  23.7132  38.1960  41.7250

          k =-0.8660-0.3464-0.3464 (   146 PWs)   bands (ev):

    14.5294  16.8832  19.0411  20.3384  23.0282  24.7641  33.2986  43.1444

          k =-0.7794-0.2598-0.3464 (   143 PWs)   bands (ev):

    15.1115  17.1782  17.8800  20.2179  22.3645  26.3696  34.1162  40.6246

          k =-0.6928-0.1732-0.3464 (   147 PWs)   bands (ev):

    16.0660  16.2821  17.7339  20.4122  21.7734  26.9967  36.0023  37.6781

          k =-0.6928-0.2598-0.2598 (   144 PWs)   bands (ev):

    15.9086  16.9026  17.0314  20.8095  21.8040  29.7868  33.0945  36.6877

          k = 0.3464 0.3464 0.3464 (   149 PWs)   bands (ev):

    16.5461  16.5461  17.4182  20.9528  20.9528  28.5467  36.4856  36.4856

          k = 0.4330 0.4330 0.3464 (   146 PWs)   bands (ev):

    16.5470  16.6165  17.5508  20.9942  21.0138  31.2768  33.4985  36.0320

          k = 0.0000 0.0000 0.3464 (   152 PWs)   bands (ev):

    14.6182  18.0395  18.6753  18.6753  19.7330  21.7903  44.1208  47.1041

          k = 0.0000-0.0866 0.4330 (   147 PWs)   bands (ev):

    15.4838  16.9716  18.5485  19.3836  20.9351  23.0311  41.0769  44.6477

          k = 0.0000-0.1732 0.5196 (   144 PWs)   bands (ev):

    15.3192  16.7900  18.2498  19.8430  22.3070  25.5679  36.3059  42.9358

          k = 0.0866-0.0866 0.5196 (   142 PWs)   bands (ev):

    15.7940  16.0447  18.7190  19.9556  21.7124  25.4357  38.9779  39.9684

          k =-0.8660-0.2598-0.2598 (   144 PWs)   bands (ev):

    15.0626  16.9143  18.1296  19.9004  22.9035  27.7676  33.3970  42.1711

          k =-0.7794-0.1732-0.2598 (   144 PWs)   bands (ev):

    15.3683  16.0397  18.4328  20.5361  22.3807  28.8086  34.6959  38.3846

          k =-0.6928-0.1732-0.1732 (   143 PWs)   bands (ev):

    15.5814  15.5814  18.2571  21.7212  21.7212  32.5625  32.5625  35.6453

          k = 0.0000 0.0000 0.5196 (   144 PWs)   bands (ev):

    15.6174  15.9835  19.7543  19.7543  21.0344  24.9421  41.9087  41.9087

          k = 0.0000-0.0866 0.6062 (   142 PWs)   bands (ev):

    15.1448  15.3878  19.9648  20.4091  22.1262  27.8863  37.3354  39.6741

          k =-0.8660-0.1732-0.1732 (   140 PWs)   bands (ev):

    14.8325  15.2733  19.9256  20.6227  22.7515  30.8110  33.7566  38.7805

          k =-0.7794-0.0866-0.1732 (   140 PWs)   bands (ev):

    14.7362  14.8621  20.1428  21.5692  22.3931  31.2860  35.4200  36.3332

          k = 0.0000 0.0000 0.6928 (   136 PWs)   bands (ev):

    14.4471  14.5644  21.5016  21.5016  22.1449  30.6039  37.1400  37.1400

          k =-0.8660-0.0866-0.0866 (   138 PWs)   bands (ev):

    14.1797  14.2401  21.7373  21.9632  22.6298  33.5710  34.4727  36.1037

          k =-0.8660-0.8660-0.8660 (   116 PWs)   bands (ev):

    13.8888  13.8888  22.5840  22.5840  22.5840  34.9872  34.9872  34.9872

 ------ SPIN DOWN ----------


          k = 0.0000 0.0000 0.0000 (   141 PWs)   bands (ev):

    11.2151  19.7178  19.7178  19.7178  22.8675  22.8675  49.7595  49.7595

          k = 0.0866 0.0866 0.0000 (   142 PWs)   bands (ev):

    11.7800  19.4937  19.6720  20.1130  22.6256  22.8851  48.3244  49.4773

          k = 0.1732 0.1732 0.0000 (   152 PWs)   bands (ev):

    13.2730  18.9345  19.4604  21.2073  22.3251  22.9570  44.9114  47.9528

          k = 0.2598 0.2598 0.0000 (   150 PWs)   bands (ev):

    14.8315  18.2925  19.6518  22.4243  22.7130  23.1032  40.5300  45.6288

          k = 0.3464 0.3464 0.0000 (   148 PWs)   bands (ev):

    15.2474  17.8065  21.3485  22.6921  23.2726  24.1033  36.3567  43.7890

          k =-0.4330-0.4330 0.0000 (   150 PWs)   bands (ev):

    15.1894  17.6274  22.7075  22.7563  23.3504  24.6901  34.3623  43.1066

          k = 0.1732 0.0866 0.0866 (   149 PWs)   bands (ev):

    12.8246  19.2158  19.3440  20.9399  22.2826  22.9979  46.3722  47.8803

          k = 0.2598 0.1732 0.0866 (   152 PWs)   bands (ev):

    14.4909  18.6216  19.0401  22.1351  22.3897  23.2085  42.8403  45.5376

          k = 0.3464 0.2598 0.0866 (   147 PWs)   bands (ev):

    15.5367  18.0516  19.6777  22.4046  23.3302  24.2299  38.4336  43.5948

          k = 0.4330 0.3464 0.0866 (   147 PWs)   bands (ev):

    15.5442  17.7348  21.0012  22.6652  23.6215  25.7854  34.9132  42.4497

          k = 0.3464 0.1732 0.1732 (   143 PWs)   bands (ev):

    15.9284  18.2006  18.6887  22.1504  23.3204  24.5032  40.5314  41.8391

          k = 0.4330 0.2598 0.1732 (   145 PWs)   bands (ev):

    16.4221  17.8739  19.2289  22.4689  23.4603  26.9172  36.6461  39.9046

          k = 0.5196 0.3464 0.1732 (   148 PWs)   bands (ev):

    16.3468  17.8086  19.6692  22.6703  23.5254  28.6160  34.1902  39.3123

          k = 0.5196 0.2598 0.2598 (   151 PWs)   bands (ev):

    17.0101  17.9439  18.7188  22.8056  23.2968  30.2452  34.4067  36.8943

          k = 0.1732 0.1732 0.1732 (   150 PWs)   bands (ev):

    14.2031  18.6691  18.6691  22.4326  22.7202  22.7202  44.6321  44.6321

          k = 0.2598 0.2598 0.1732 (   148 PWs)   bands (ev):

    15.8084  18.0550  18.4411  22.7016  23.0733  24.3458  40.6861  42.8055

          k = 0.3464 0.3464 0.1732 (   149 PWs)   bands (ev):

    16.1607  17.6513  19.6072  22.8651  23.2995  26.4292  36.4935  41.4281

          k = 0.4330 0.4330 0.1732 (   150 PWs)   bands (ev):

    16.0458  17.5123  20.4645  22.9555  23.3804  27.7288  34.2511  40.9151

          k = 0.0000 0.0000 0.1732 (   148 PWs)   bands (ev):

    12.3231  19.6940  19.6940  20.1054  22.0280  23.1801  47.2512  50.0438

          k = 0.3464 0.2598 0.2598 (   149 PWs)   bands (ev):

    16.9297  17.7816  18.2452  22.9040  23.2820  26.7474  38.4858  39.6806

          k = 0.4330 0.3464 0.2598 (   148 PWs)   bands (ev):

    16.8866  17.6298  19.0778  23.0777  23.3834  29.3558  34.9790  38.3371

          k = 0.0000-0.0866 0.2598 (   150 PWs)   bands (ev):

    13.7525  19.2954  19.5538  21.0957  21.4339  23.4480  44.9544  47.9968

          k = 0.5196 0.3464 0.3464 (   146 PWs)   bands (ev):

    17.0764  18.3031  18.3031  23.2781  23.2781  32.6951  32.6951  36.3796

          k = 0.0000-0.1732 0.3464 (   143 PWs)   bands (ev):

    15.2588  18.7069  19.3115  21.7076  22.6167  23.7895  40.8455  45.5584

          k = 0.0866-0.0866 0.3464 (   150 PWs)   bands (ev):

    15.2125  18.9406  19.3392  21.1065  22.2120  23.9323  42.9755  44.6071

          k = 0.0000-0.2598 0.4330 (   150 PWs)   bands (ev):

    15.6550  18.2528  19.9644  22.2025  24.0361  24.7686  36.5357  43.9825

          k = 0.0866-0.1732 0.4330 (   147 PWs)   bands (ev):

    16.2264  18.3594  19.2098  21.6174  23.3547  25.2487  38.9701  42.2332

          k =-0.8660-0.3464-0.3464 (   146 PWs)   bands (ev):

    15.5762  18.0855  20.4727  22.2549  24.6394  25.8508  34.3450  43.4140

          k =-0.7794-0.2598-0.3464 (   143 PWs)   bands (ev):

    16.2193  18.4135  19.2270  21.9998  24.0311  27.5030  35.0595  41.1363

          k =-0.6928-0.1732-0.3464 (   147 PWs)   bands (ev):

    17.0966  17.6789  19.0014  22.0869  23.5189  28.1741  36.8776  38.2462

          k =-0.6928-0.2598-0.2598 (   144 PWs)   bands (ev):

    17.1442  18.2391  18.2543  22.5125  23.4957  30.7778  34.0423  37.3031

          k = 0.3464 0.3464 0.3464 (   149 PWs)   bands (ev):

    17.6143  17.6143  18.1927  23.3100  23.3100  29.5340  37.1424  37.1425

          k = 0.4330 0.4330 0.3464 (   146 PWs)   bands (ev):

    17.5789  17.6047  18.4793  23.3535  23.4290  32.0758  34.2846  36.6754

          k = 0.0000 0.0000 0.3464 (   152 PWs)   bands (ev):

    14.9613  19.9530  19.9707  19.9707  21.1547  24.0175  44.7528  47.5482

          k = 0.0000-0.0866 0.4330 (   147 PWs)   bands (ev):

    16.1771  18.6176  19.8312  20.8161  22.4087  24.8650  41.7886  45.1620

          k = 0.0000-0.1732 0.5196 (   144 PWs)   bands (ev):

    16.4753  18.2084  19.5114  21.4193  23.8651  26.8384  37.1235  43.3782

          k = 0.0866-0.0866 0.5196 (   142 PWs)   bands (ev):

    16.8329  17.6152  20.0299  21.3814  23.2748  26.7561  39.7705  40.4742

          k =-0.8660-0.2598-0.2598 (   144 PWs)   bands (ev):

    16.3160  18.3387  19.3823  21.4985  24.5073  28.7598  34.3477  42.5851

          k =-0.7794-0.1732-0.2598 (   144 PWs)   bands (ev):

    16.7429  17.4425  19.6943  22.0291  23.9659  29.8060  35.5202  38.9461

          k =-0.6928-0.1732-0.1732 (   143 PWs)   bands (ev):

    17.0184  17.0184  19.4506  23.2679  23.2679  33.4394  33.4395  36.2196

          k = 0.0000 0.0000 0.5196 (   144 PWs)   bands (ev):

    16.6571  17.6354  21.0718  21.0718  22.5264  26.3264  42.3697  42.3698

          k = 0.0000-0.0866 0.6062 (   142 PWs)   bands (ev):

    16.5505  16.8213  21.3086  21.7898  23.6735  28.8658  37.9652  40.0823

          k =-0.8660-0.1732-0.1732 (   140 PWs)   bands (ev):

    16.2782  16.7067  21.2715  22.0188  24.3463  31.5993  34.4947  39.1492

          k =-0.7794-0.0866-0.1732 (   140 PWs)   bands (ev):

    16.2158  16.2802  21.4769  23.0386  23.9552  32.0276  36.0453  36.7770

          k = 0.0000 0.0000 0.6928 (   136 PWs)   bands (ev):

    15.9404  15.9657  22.9455  22.9455  23.7027  31.2685  37.4684  37.4684

          k =-0.8660-0.0866-0.0866 (   138 PWs)   bands (ev):

    15.6350  15.6800  23.2245  23.4572  24.2176  34.0328  34.8770  36.3704

          k =-0.8660-0.8660-0.8660 (   116 PWs)   bands (ev):

    15.3311  15.3311  24.1693  24.1693  24.1693  35.1710  35.1710  35.1710

     the Fermi energy is    21.6495 ev

!    total energy              =     -55.70057255 Ry
     estimated scf accuracy    <       0.00000001 Ry
     smearing contrib. (-TS)   =      -0.00026145 Ry
     internal energy E=F+TS    =     -55.70031110 Ry

     The total energy is F=E-TS. E is the sum of the following terms:
     one-electron contribution =      15.68745587 Ry
     hartree contribution      =       4.66928064 Ry
     xc contribution           =     -26.75658279 Ry
     ewald contribution        =     -49.30046482 Ry

     total magnetization       =     1.52 Bohr mag/cell
     absolute magnetization    =     1.57 Bohr mag/cell

     convergence has been achieved in  10 iterations

     Forces acting on atoms (cartesian axes, Ry/au):

     atom    1 type  1   force =     0.00000000    0.00000000    0.00000000
     The non-local contrib.  to forces
     atom    1 type  1   force =     0.00000000    0.00000000    0.00000000
     The ionic contribution  to forces
     atom    1 type  1   force =    -0.00000000   -0.00000000   -0.00000000
     The local contribution  to forces
     atom    1 type  1   force =    -0.00000000   -0.00000000   -0.00000000
     The core correction contribution to forces
     atom    1 type  1   force =     0.00000000   -0.00000000    0.00000000
     The Hubbard contrib.    to forces
     atom    1 type  1   force =     0.00000000    0.00000000    0.00000000
     The SCF correction term to forces
     atom    1 type  1   force =     0.00000000    0.00000000    0.00000000

     Total force =     0.000000     Total SCF correction =     0.000000


     Computing stress (Cartesian axis) and pressure

          total   stress  (Ry/bohr**3)                   (kbar)     P=     1661.12
   0.01129207   0.00000000   0.00000000         1661.12        0.00        0.00
   0.00000000   0.01129207   0.00000000            0.00     1661.12        0.00
   0.00000000   0.00000000   0.01129207            0.00        0.00     1661.12


     init_run     :      0.22s CPU      0.24s WALL (       1 calls)
     electrons    :      1.61s CPU      1.95s WALL (       1 calls)
     forces       :      0.02s CPU      0.02s WALL (       1 calls)
     stress       :      0.09s CPU      0.08s WALL (       1 calls)

     Called by init_run:
     wfcinit      :      0.04s CPU      0.04s WALL (       1 calls)
     potinit      :      0.02s CPU      0.02s WALL (       1 calls)
     hinit0       :      0.17s CPU      0.18s WALL (       1 calls)

     Called by electrons:
     c_bands      :      1.33s CPU      1.67s WALL (      10 calls)
     sum_band     :      0.20s CPU      0.21s WALL (      10 calls)
     v_of_rho     :      0.06s CPU      0.04s WALL (      11 calls)
     newd         :      0.02s CPU      0.02s WALL (      11 calls)
     mix_rho      :      0.01s CPU      0.01s WALL (      10 calls)

     Called by c_bands:
     init_us_2    :      0.03s CPU      0.04s WALL (    2162 calls)
     init_us_2:cp :      0.03s CPU      0.03s WALL (    2162 calls)
     cegterg      :      1.19s CPU      1.35s WALL (     940 calls)

     Called by *egterg:
     cdiaghg      :      0.29s CPU      0.32s WALL (    3491 calls)
     h_psi        :      0.69s CPU      0.78s WALL (    3585 calls)
     s_psi        :      0.02s CPU      0.02s WALL (    3585 calls)
     g_psi        :      0.00s CPU      0.00s WALL (    2551 calls)

     Called by h_psi:
     h_psi:calbec :      0.08s CPU      0.08s WALL (    3585 calls)
     vloc_psi     :      0.59s CPU      0.66s WALL (    3585 calls)
     add_vuspsi   :      0.02s CPU      0.02s WALL (    3585 calls)

     General routines
     calbec       :      0.10s CPU      0.12s WALL (    4995 calls)
     fft          :      0.14s CPU      0.14s WALL (     313 calls)
     ffts         :      0.01s CPU      0.01s WALL (      42 calls)
     fftw         :      0.58s CPU      0.65s WALL (   46464 calls)
     interpolate  :      0.01s CPU      0.01s WALL (      22 calls)

     Parallel routines

     PWSCF        :      2.07s CPU      2.44s WALL


   This run was terminated on:  16:59: 1   1Nov2023            

=------------------------------------------------------------------------------=
   JOB DONE.
=------------------------------------------------------------------------------=
