Header of the LAMMPS data file 

4 atoms 
1 atom types

0.0 3.826315789473684  xlo xhi
0.0 3.826315789473684  ylo yhi
0.0 3.826315789473684  zlo zhi

Masses 

1  107.8682

Atoms # atomic 

1 1 0.00000 0.00000 0.00000 
2 1 0.00000 1.91316 1.91316 
3 1 1.91316 0.00000 1.91316 
4 1 1.91316 1.91316 0.00000 
