LAMMPS (29 Oct 2020)
Reading data file ...
  orthogonal box = (0.0000000 0.0000000 0.0000000) to (26.276800 26.276800 36.516000)
  1 by 1 by 1 MPI processor grid
  reading atoms ...
  728 atoms
  read_data CPU = 0.001 seconds
WARNING: No fixes defined, atoms won't move (../verlet.cpp:54)
Neighbor list info ...
  update every 1 steps, delay 10 steps, check yes
  max neighbors/atom: 2000, page size: 100000
  master list distance cutoff = 6.5
  ghost atom cutoff = 6.5
  binsize = 3.25, bins = 9 9 12
  1 neighbor lists, perpetual/occasional/extra = 1 0 0
  (1) pair lj/cut, perpetual
      attributes: half, newton on
      pair build: half/bin/atomonly/newton
      stencil: half/bin/3d/newton
      bin: standard
Setting up Verlet run ...
  Unit style    : metal
  Current step  : 0
  Time step     : 0.001
Per MPI rank memory allocation (min/avg/max) = 3.109 | 3.109 | 3.109 Mbytes
Step PotEng Lx Ly Lz Press Pxx Pyy Pzz 
       0   -1561.9613      26.2768      26.2768       36.516    259.10954    -948.6621    -948.6621    2674.6528 
Loop time of 0 on 1 procs for 0 steps with 728 atoms

0.0% CPU use with 1 MPI tasks x no OpenMP threads

MPI task timing breakdown:
Section |  min time  |  avg time  |  max time  |%varavg| %total
---------------------------------------------------------------
Pair    | 0          | 0          | 0          |   0.0 |  0.00
Neigh   | 0          | 0          | 0          |   0.0 |  0.00
Comm    | 0          | 0          | 0          |   0.0 |  0.00
Output  | 0          | 0          | 0          |   0.0 |  0.00
Modify  | 0          | 0          | 0          |   0.0 |  0.00
Other   |            | 0          |            |       |  0.00

Nlocal:        728.000 ave         728 max         728 min
Histogram: 1 0 0 0 0 0 0 0 0 0
Nghost:        924.000 ave         924 max         924 min
Histogram: 1 0 0 0 0 0 0 0 0 0
Neighs:        17220.0 ave       17220 max       17220 min
Histogram: 1 0 0 0 0 0 0 0 0 0

Total # of neighbors = 17220
Ave neighs/atom = 23.653846
Neighbor list builds = 0
Dangerous builds = 0
Total energy (eV) = -1561.96128329422
Number of atoms = 728
Lattice constant (Angstoms) = 26.2768
Total wall time: 0:00:00
