Header of the LAMMPS data file 

4 atoms 
1 atom types

0.0 4.183838383838384  xlo xhi
0.0 4.183838383838384  ylo yhi
0.0 4.183838383838384  zlo zhi

Masses 

1  107.8682

Atoms # atomic 

1 1 0.00000 0.00000 0.00000 
2 1 0.00000 2.09192 2.09192 
3 1 2.09192 0.00000 2.09192 
4 1 2.09192 2.09192 0.00000 
