
     Program PWSCF v.7.2 starts on  1Nov2023 at 16:41:59 

     This program is part of the open-source Quantum ESPRESSO suite
     for quantum simulation of materials; please cite
         "P. Giannozzi et al., J. Phys.:Condens. Matter 21 395502 (2009);
         "P. Giannozzi et al., J. Phys.:Condens. Matter 29 465901 (2017);
         "P. Giannozzi et al., J. Chem. Phys. 152 154105 (2020);
          URL http://www.quantum-espresso.org", 
     in publications or presentations arising from this work. More details at
     http://www.quantum-espresso.org/quote

     Parallel version (MPI), running on     4 processors

     MPI processes distributed on     4 nodes
     185279 MiB available memory on the printing compute node when the environment starts

     Waiting for input...
     Reading input from standard input
Warning: card &CELL ignored
Warning: card / ignored

     Current dimensions of program PWSCF are:
     Max number of different atomic species (ntypx) = 10
     Max number of k-points (npk) =  40000
     Max angular momentum in pseudopotentials (lmaxx) =  4
     file Fe.pbe-nd-rrkjus.UPF: wavefunction(s)  4S renormalized
     Message from routine setup:
     using ibrav=0 with symmetry is DISCOURAGED, use correct ibrav instead

     R & G space division:  proc/nbgrp/npool/nimage =       4
     Subspace diagonalization in iterative solution of the eigenvalue problem:
     a serial algorithm will be used


     Parallelization info
     --------------------
     sticks:   dense  smooth     PW     G-vecs:    dense   smooth      PW
     Min          95      45     16                 1181      400      91
     Max          96      46     17                 1183      401      93
     Sum         383     181     67                 4729     1601     369

     Using Slab Decomposition



     bravais-lattice index     =            0
     lattice parameter (alat)  =       4.5823  a.u.
     unit-cell volume          =      74.0697 (a.u.)^3
     number of atoms/cell      =            1
     number of atomic types    =            1
     number of electrons       =         8.00
     number of Kohn-Sham states=            8
     kinetic-energy cutoff     =      30.0000  Ry
     charge density cutoff     =     240.0000  Ry
     scf convergence threshold =      1.0E-07
     mixing beta               =       0.5000
     number of iterations used =            8  plain     mixing
     Exchange-correlation=  SLA  PW   PBE  PBE
                           (   1   4   3   4   0   0   0)

     celldm(1)=   4.582342  celldm(2)=   0.000000  celldm(3)=   0.000000
     celldm(4)=   0.000000  celldm(5)=   0.000000  celldm(6)=   0.000000

     crystal axes: (cart. coord. in units of alat)
               a(1) = (  -0.577350   0.577350   0.577350 )  
               a(2) = (   0.577350  -0.577350   0.577350 )  
               a(3) = (   0.577350   0.577350  -0.577350 )  

     reciprocal axes: (cart. coord. in units 2 pi/alat)
               b(1) = (  0.000000  0.866025  0.866025 )  
               b(2) = (  0.866025  0.000000  0.866025 )  
               b(3) = (  0.866025  0.866025  0.000000 )  


     PseudoPot. # 1 for Fe read from file:
     /home/gridsan/epan1/labutil/lab3_samples/pseudopotentials/Fe.pbe-nd-rrkjus.UPF
     MD5 check sum: 398036227a04b607635f6f5e8dfd8242
     Pseudo is Ultrasoft + core correction, Zval =  8.0
     Generated by new atomic code, or converted to UPF format
     Using radial grid of  957 points,  6 beta functions with: 
                l(1) =   0
                l(2) =   0
                l(3) =   1
                l(4) =   1
                l(5) =   2
                l(6) =   2
     Q(r) pseudized with 0 coefficients 


     atomic species   valence    mass     pseudopotential
        Fe             8.00    55.84500     Fe( 1.00)

     Starting magnetic structure 
     atomic species   magnetization
        Fe           0.700

     48 Sym. Ops., with inversion, found



   Cartesian axes

     site n.     atom                  positions (alat units)
         1           Fe  tau(   1) = (   0.0000000   0.0000000   0.0000000  )

     number of k points=    20  Methfessel-Paxton smearing, width (Ry)=  0.0200
                       cart. coord. in units 2pi/alat
        k(    1) = (   0.0000000   0.0000000   0.0000000), wk =   0.0029155
        k(    2) = (   0.1237179   0.1237179   0.0000000), wk =   0.0349854
        k(    3) = (   0.2474358   0.2474358   0.0000000), wk =   0.0349854
        k(    4) = (   0.3711537   0.3711537   0.0000000), wk =   0.0349854
        k(    5) = (   0.2474358   0.1237179   0.1237179), wk =   0.0699708
        k(    6) = (   0.3711537   0.2474358   0.1237179), wk =   0.1399417
        k(    7) = (   0.4948717   0.3711537   0.1237179), wk =   0.0699708
        k(    8) = (   0.4948717   0.2474358   0.2474358), wk =   0.0699708
        k(    9) = (   0.2474358   0.2474358   0.2474358), wk =   0.0233236
        k(   10) = (   0.3711537   0.3711537   0.2474358), wk =   0.0699708
        k(   11) = (  -0.0000000  -0.0000000   0.2474358), wk =   0.0174927
        k(   12) = (   0.4948717   0.3711537   0.3711537), wk =   0.0233236
        k(   13) = (   0.0000000  -0.1237179   0.3711537), wk =   0.0699708
        k(   14) = (  -0.0000000  -0.2474358   0.4948717), wk =   0.0699708
        k(   15) = (   0.1237179  -0.1237179   0.4948717), wk =   0.0699708
        k(   16) = (  -0.7423075  -0.2474358  -0.2474358), wk =   0.0699708
        k(   17) = (   0.0000000   0.0000000   0.4948717), wk =   0.0174927
        k(   18) = (  -0.0000000  -0.1237179   0.6185896), wk =   0.0699708
        k(   19) = (  -0.7423075  -0.1237179  -0.1237179), wk =   0.0233236
        k(   20) = (  -0.0000000  -0.0000000   0.7423075), wk =   0.0174927

     Dense  grid:     4729 G-vectors     FFT dimensions: (  24,  24,  24)

     Smooth grid:     1601 G-vectors     FFT dimensions: (  15,  15,  15)

     Estimated max dynamical RAM per process >       6.38 MB

     Estimated total dynamical RAM >      25.54 MB
     Generating pointlists ...
     new r_m :   0.4125 (alat units)  1.8902 (a.u.) for type    1

     Initial potential from superposition of free atoms

     starting charge       7.9994, renormalised to       8.0000
     Starting wfcs are    6 randomized atomic wfcs +    2 random wfcs

     total cpu time spent up to now is        0.4 secs

     Self-consistent Calculation

     iteration #  1     ecut=    30.00 Ry     beta= 0.50
     Davidson diagonalization with overlap
     ethr =  1.00E-02,  avg # of iterations =  4.2

     total cpu time spent up to now is        0.5 secs

     total energy              =     -55.66952293 Ry
     estimated scf accuracy    <       0.31433628 Ry

     total magnetization       =     3.06 Bohr mag/cell
     absolute magnetization    =     3.06 Bohr mag/cell

     iteration #  2     ecut=    30.00 Ry     beta= 0.50
     Davidson diagonalization with overlap
     ethr =  3.93E-03,  avg # of iterations =  1.7

     total cpu time spent up to now is        0.6 secs

     total energy              =     -55.76825575 Ry
     estimated scf accuracy    <       0.04187610 Ry

     total magnetization       =     2.85 Bohr mag/cell
     absolute magnetization    =     2.86 Bohr mag/cell

     iteration #  3     ecut=    30.00 Ry     beta= 0.50
     Davidson diagonalization with overlap
     ethr =  5.23E-04,  avg # of iterations =  1.5

     total cpu time spent up to now is        0.7 secs

     total energy              =     -55.79178333 Ry
     estimated scf accuracy    <       0.01101923 Ry

     total magnetization       =     2.61 Bohr mag/cell
     absolute magnetization    =     2.65 Bohr mag/cell

     iteration #  4     ecut=    30.00 Ry     beta= 0.50
     Davidson diagonalization with overlap
     ethr =  1.38E-04,  avg # of iterations =  1.6

     total cpu time spent up to now is        0.7 secs

     total energy              =     -55.80071497 Ry
     estimated scf accuracy    <       0.00047497 Ry

     total magnetization       =     2.29 Bohr mag/cell
     absolute magnetization    =     2.44 Bohr mag/cell

     iteration #  5     ecut=    30.00 Ry     beta= 0.50
     Davidson diagonalization with overlap
     ethr =  5.94E-06,  avg # of iterations =  5.8

     total cpu time spent up to now is        0.9 secs

     total energy              =     -55.80113235 Ry
     estimated scf accuracy    <       0.00028745 Ry

     total magnetization       =     2.33 Bohr mag/cell
     absolute magnetization    =     2.44 Bohr mag/cell

     iteration #  6     ecut=    30.00 Ry     beta= 0.50
     Davidson diagonalization with overlap
     ethr =  3.59E-06,  avg # of iterations =  1.7

     total cpu time spent up to now is        1.0 secs

     total energy              =     -55.80129852 Ry
     estimated scf accuracy    <       0.00009712 Ry

     total magnetization       =     2.31 Bohr mag/cell
     absolute magnetization    =     2.42 Bohr mag/cell

     iteration #  7     ecut=    30.00 Ry     beta= 0.50
     Davidson diagonalization with overlap
     ethr =  1.21E-06,  avg # of iterations =  1.9

     total cpu time spent up to now is        1.1 secs

     total energy              =     -55.80134921 Ry
     estimated scf accuracy    <       0.00002939 Ry

     total magnetization       =     2.31 Bohr mag/cell
     absolute magnetization    =     2.42 Bohr mag/cell

     iteration #  8     ecut=    30.00 Ry     beta= 0.50
     Davidson diagonalization with overlap
     ethr =  3.67E-07,  avg # of iterations =  1.6

     total cpu time spent up to now is        1.2 secs

     total energy              =     -55.80135546 Ry
     estimated scf accuracy    <       0.00000169 Ry

     total magnetization       =     2.31 Bohr mag/cell
     absolute magnetization    =     2.42 Bohr mag/cell

     iteration #  9     ecut=    30.00 Ry     beta= 0.50
     Davidson diagonalization with overlap
     ethr =  2.11E-08,  avg # of iterations =  4.6

     total cpu time spent up to now is        1.3 secs

     total energy              =     -55.80135747 Ry
     estimated scf accuracy    <       0.00000162 Ry

     total magnetization       =     2.31 Bohr mag/cell
     absolute magnetization    =     2.42 Bohr mag/cell

     iteration # 10     ecut=    30.00 Ry     beta= 0.50
     Davidson diagonalization with overlap
     ethr =  2.02E-08,  avg # of iterations =  1.2

     total cpu time spent up to now is        1.4 secs

     total energy              =     -55.80135772 Ry
     estimated scf accuracy    <       0.00000023 Ry

     total magnetization       =     2.31 Bohr mag/cell
     absolute magnetization    =     2.42 Bohr mag/cell

     iteration # 11     ecut=    30.00 Ry     beta= 0.50
     Davidson diagonalization with overlap
     ethr =  2.84E-09,  avg # of iterations =  2.4

     Magnetic moment per site  (integrated on atomic sphere of radius R)
     atom   1 (R=0.413)  charge=  6.4322  magn=  2.3518

     total cpu time spent up to now is        1.5 secs

     End of self-consistent calculation

 ------ SPIN UP ------------


          k = 0.0000 0.0000 0.0000 (   201 PWs)   bands (ev):

     5.5748  11.6839  11.6839  11.6839  12.9722  12.9722  39.2176  39.2177

          k = 0.1237 0.1237 0.0000 (   205 PWs)   bands (ev):

     6.4242  11.4569  11.6386  12.1445  12.8008  12.9935  35.2958  37.9387

          k = 0.2474 0.2474 0.0000 (   198 PWs)   bands (ev):

     8.3516  10.9713  11.6967  12.8562  13.0686  13.2849  28.7365  34.9572

          k = 0.3712 0.3712 0.0000 (   202 PWs)   bands (ev):

     9.0001  10.6032  12.9834  13.1578  14.0334  14.3401  22.9991  33.0139

          k = 0.2474 0.1237 0.1237 (   205 PWs)   bands (ev):

     7.9052  11.2368  11.2462  12.6657  13.0784  13.1822  31.9321  33.1432

          k = 0.3712 0.2474 0.1237 (   201 PWs)   bands (ev):

     9.3658  10.7724  11.6037  12.8756  13.3240  14.9805  25.9414  30.3788

          k = 0.4949 0.3712 0.1237 (   205 PWs)   bands (ev):

     9.4001  10.6235  12.2715  13.0080  13.6862  17.0641  21.9231  29.4848

          k = 0.4949 0.2474 0.2474 (   204 PWs)   bands (ev):

    10.1324  10.6343  11.2625  13.0775  13.4214  18.5115  23.6363  25.0137

          k = 0.2474 0.2474 0.2474 (   198 PWs)   bands (ev):

     9.6220  10.7430  10.7430  13.0430  13.0430  15.0036  29.3100  29.3100

          k = 0.3712 0.3712 0.2474 (   202 PWs)   bands (ev):

    10.0584  10.5099  11.5433  13.1340  13.1829  17.8961  23.7480  27.8710

          k =-0.0000-0.0000 0.2474 (   209 PWs)   bands (ev):

     7.2145  11.7369  11.7369  12.1415  12.2163  13.2771  34.6332  36.6978

          k = 0.4949 0.3712 0.3712 (   207 PWs)   bands (ev):

    10.3516  10.9380  10.9380  13.2086  13.2086  21.9090  21.9090  24.1190

          k = 0.0000-0.1237 0.3712 (   199 PWs)   bands (ev):

     8.9416  11.2674  11.4465  12.4103  13.1870  13.7968  29.3280  33.8534

          k =-0.0000-0.2474 0.4949 (   209 PWs)   bands (ev):

     9.4542  11.1347  11.4079  12.7175  14.2776  16.1144  23.3512  31.8189

          k = 0.1237-0.1237 0.4949 (   210 PWs)   bands (ev):

     9.9549  10.4990  11.5968  12.6840  13.7054  16.1445  26.7148  27.4632

          k =-0.7423-0.2474-0.2474 (   210 PWs)   bands (ev):

     9.9617  10.6531  11.2248  13.0259  14.0063  19.5039  22.2662  26.2177

          k = 0.0000 0.0000 0.4949 (   205 PWs)   bands (ev):

     9.7379  10.5282  12.4259  12.4259  13.2050  15.3728  30.2113  30.2113

          k =-0.0000-0.1237 0.6186 (   214 PWs)   bands (ev):

     9.7192   9.9626  12.5139  12.9066  14.1401  18.7933  24.5736  27.8949

          k =-0.7423-0.1237-0.1237 (   212 PWs)   bands (ev):

     9.5844   9.5844  12.6177  13.9332  13.9332  22.8454  22.8454  24.2626

          k =-0.0000-0.0000 0.7423 (   212 PWs)   bands (ev):

     9.2215   9.2304  13.8763  13.8763  14.0911  22.0361  25.2714  25.2715

 ------ SPIN DOWN ----------


          k = 0.0000 0.0000 0.0000 (   201 PWs)   bands (ev):

     5.7245  13.9184  13.9184  13.9184  16.0687  16.0687  39.0077  39.0077

          k = 0.1237 0.1237 0.0000 (   205 PWs)   bands (ev):

     6.5841  13.6392  13.8299  14.4253  15.8155  16.0942  35.6268  37.9450

          k = 0.2474 0.2474 0.0000 (   198 PWs)   bands (ev):

     8.7548  13.0503  13.5141  15.6991  15.7318  16.1971  29.5671  35.0563

          k = 0.3712 0.3712 0.0000 (   202 PWs)   bands (ev):

    10.3294  12.6106  14.4088  15.9108  16.3293  16.9102  24.3439  33.0539

          k = 0.2474 0.1237 0.1237 (   205 PWs)   bands (ev):

     8.1408  13.3281  13.3617  15.4400  15.5657  16.2550  32.5262  33.6576

          k = 0.3712 0.2474 0.1237 (   201 PWs)   bands (ev):

    10.2981  12.7706  13.2054  15.6979  16.3470  17.1730  26.9314  30.9541

          k = 0.4949 0.3712 0.1237 (   205 PWs)   bands (ev):

    10.9204  12.5838  13.8174  15.8725  16.4830  18.5700  23.3864  30.0397

          k = 0.4949 0.2474 0.2474 (   204 PWs)   bands (ev):

    11.7210  12.4502  12.9263  15.9074  16.3132  20.0500  24.7383  25.8830

          k = 0.2474 0.2474 0.2474 (   198 PWs)   bands (ev):

    10.0806  12.7027  12.7027  16.1074  16.1074  17.1987  29.9919  29.9919

          k = 0.3712 0.3712 0.2474 (   202 PWs)   bands (ev):

    11.5113  12.3631  12.9058  16.1733  16.3558  19.5002  24.8283  28.5555

          k =-0.0000-0.0000 0.2474 (   209 PWs)   bands (ev):

     7.3985  13.9143  13.9143  14.4293  15.0635  16.4135  34.9588  37.1833

          k = 0.4949 0.3712 0.3712 (   207 PWs)   bands (ev):

    12.0597  12.5170  12.5170  16.3489  16.3489  23.0238  23.0238  25.0610

          k = 0.0000-0.1237 0.3712 (   199 PWs)   bands (ev):

     9.4251  13.4609  13.5591  14.8995  15.5859  16.7053  30.1433  34.2505

          k =-0.0000-0.2474 0.4949 (   209 PWs)   bands (ev):

    10.9163  13.1871  13.2343  15.3416  16.8378  17.8592  24.5955  32.4430

          k = 0.1237-0.1237 0.4949 (   210 PWs)   bands (ev):

    11.1342  12.6338  13.6572  15.1200  16.2943  18.0969  27.7045  28.2035

          k =-0.7423-0.2474-0.2474 (   210 PWs)   bands (ev):

    11.7834  12.5271  13.2353  15.5257  16.5670  20.7776  23.5320  27.0176

          k = 0.0000 0.0000 0.4949 (   205 PWs)   bands (ev):

    10.7860  12.8957  14.5983  14.5983  15.6259  17.5397  30.8845  30.8845

          k =-0.0000-0.1237 0.6186 (   214 PWs)   bands (ev):

    11.5532  12.0124  14.7166  15.1741  16.6798  20.0508  25.4894  28.4675

          k =-0.7423-0.1237-0.1237 (   212 PWs)   bands (ev):

    11.6029  11.6029  14.7738  16.4059  16.4059  23.7266  23.7266  24.9611

          k =-0.0000-0.0000 0.7423 (   212 PWs)   bands (ev):

    11.2152  11.2907  16.3180  16.3180  16.6328  22.6978  25.6549  25.6549

     the Fermi energy is    14.1958 ev

!    total energy              =     -55.80135782 Ry
     estimated scf accuracy    <          6.1E-09 Ry
     smearing contrib. (-TS)   =       0.00018252 Ry
     internal energy E=F+TS    =     -55.80154034 Ry

     The total energy is F=E-TS. E is the sum of the following terms:
     one-electron contribution =       8.38437620 Ry
     hartree contribution      =       6.30989126 Ry
     xc contribution           =     -26.47753564 Ry
     ewald contribution        =     -44.01827216 Ry

     total magnetization       =     2.31 Bohr mag/cell
     absolute magnetization    =     2.42 Bohr mag/cell

     convergence has been achieved in  11 iterations

     Forces acting on atoms (cartesian axes, Ry/au):

     atom    1 type  1   force =     0.00000000    0.00000000    0.00000000
     The non-local contrib.  to forces
     atom    1 type  1   force =     0.00000000    0.00000000    0.00000000
     The ionic contribution  to forces
     atom    1 type  1   force =    -0.00000000   -0.00000000   -0.00000000
     The local contribution  to forces
     atom    1 type  1   force =    -0.00000000   -0.00000000   -0.00000000
     The core correction contribution to forces
     atom    1 type  1   force =    -0.00000000   -0.00000000   -0.00000000
     The Hubbard contrib.    to forces
     atom    1 type  1   force =     0.00000000    0.00000000    0.00000000
     The SCF correction term to forces
     atom    1 type  1   force =     0.00000000    0.00000000   -0.00000000

     Total force =     0.000000     Total SCF correction =     0.000000


     Computing stress (Cartesian axis) and pressure

          total   stress  (Ry/bohr**3)                   (kbar)     P=      103.06
   0.00070061   0.00000000   0.00000000          103.06        0.00        0.00
   0.00000000   0.00070061   0.00000000            0.00      103.06        0.00
   0.00000000   0.00000000   0.00070061            0.00        0.00      103.06


     init_run     :      0.22s CPU      0.22s WALL (       1 calls)
     electrons    :      1.09s CPU      1.17s WALL (       1 calls)
     forces       :      0.02s CPU      0.02s WALL (       1 calls)
     stress       :      0.08s CPU      0.07s WALL (       1 calls)

     Called by init_run:
     wfcinit      :      0.02s CPU      0.02s WALL (       1 calls)
     potinit      :      0.02s CPU      0.02s WALL (       1 calls)
     hinit0       :      0.18s CPU      0.18s WALL (       1 calls)

     Called by electrons:
     c_bands      :      0.81s CPU      0.93s WALL (      11 calls)
     sum_band     :      0.17s CPU      0.15s WALL (      11 calls)
     v_of_rho     :      0.06s CPU      0.05s WALL (      12 calls)
     newd         :      0.03s CPU      0.03s WALL (      12 calls)
     mix_rho      :      0.01s CPU      0.01s WALL (      11 calls)

     Called by c_bands:
     init_us_2    :      0.03s CPU      0.03s WALL (    1000 calls)
     init_us_2:cp :      0.03s CPU      0.02s WALL (    1000 calls)
     cegterg      :      0.70s CPU      0.70s WALL (     440 calls)

     Called by *egterg:
     cdiaghg      :      0.15s CPU      0.15s WALL (    1577 calls)
     h_psi        :      0.40s CPU      0.40s WALL (    1617 calls)
     s_psi        :      0.01s CPU      0.01s WALL (    1617 calls)
     g_psi        :      0.00s CPU      0.00s WALL (    1137 calls)

     Called by h_psi:
     h_psi:calbec :      0.05s CPU      0.05s WALL (    1617 calls)
     vloc_psi     :      0.33s CPU      0.34s WALL (    1617 calls)
     add_vuspsi   :      0.01s CPU      0.01s WALL (    1617 calls)

     General routines
     calbec       :      0.07s CPU      0.07s WALL (    2257 calls)
     fft          :      0.14s CPU      0.14s WALL (     338 calls)
     ffts         :      0.01s CPU      0.01s WALL (      46 calls)
     fftw         :      0.34s CPU      0.33s WALL (   21344 calls)
     interpolate  :      0.01s CPU      0.01s WALL (      24 calls)

     Parallel routines

     PWSCF        :      1.54s CPU      1.64s WALL


   This run was terminated on:  16:42: 1   1Nov2023            

=------------------------------------------------------------------------------=
   JOB DONE.
=------------------------------------------------------------------------------=
