
     Program PWSCF v.7.2 starts on  1Nov2023 at 17: 4:18 

     This program is part of the open-source Quantum ESPRESSO suite
     for quantum simulation of materials; please cite
         "P. Giannozzi et al., J. Phys.:Condens. Matter 21 395502 (2009);
         "P. Giannozzi et al., J. Phys.:Condens. Matter 29 465901 (2017);
         "P. Giannozzi et al., J. Chem. Phys. 152 154105 (2020);
          URL http://www.quantum-espresso.org", 
     in publications or presentations arising from this work. More details at
     http://www.quantum-espresso.org/quote

     Parallel version (MPI), running on     4 processors

     MPI processes distributed on     4 nodes
     186315 MiB available memory on the printing compute node when the environment starts

     Waiting for input...
     Reading input from standard input

     Current dimensions of program PWSCF are:
     Max number of different atomic species (ntypx) = 10
     Max number of k-points (npk) =  40000
     Max angular momentum in pseudopotentials (lmaxx) =  4
     file Fe.pbe-nd-rrkjus.UPF: wavefunction(s)  4S renormalized
     Message from routine setup:
     using ibrav=0 with symmetry is DISCOURAGED, use correct ibrav instead

     R & G space division:  proc/nbgrp/npool/nimage =       4
     Subspace diagonalization in iterative solution of the eigenvalue problem:
     a serial algorithm will be used


     Parallelization info
     --------------------
     sticks:   dense  smooth     PW     G-vecs:    dense   smooth      PW
     Min          95      45     15                 1181      400      79
     Max          96      46     16                 1183      401      81
     Sum         383     181     63                 4729     1601     321

     Using Slab Decomposition



     bravais-lattice index     =            0
     lattice parameter (alat)  =       4.5899  a.u.
     unit-cell volume          =      74.4385 (a.u.)^3
     number of atoms/cell      =            1
     number of atomic types    =            1
     number of electrons       =         8.00
     number of Kohn-Sham states=            8
     kinetic-energy cutoff     =      30.0000  Ry
     charge density cutoff     =     240.0000  Ry
     scf convergence threshold =      1.0E-07
     mixing beta               =       0.5000
     number of iterations used =            8  plain     mixing
     energy convergence thresh.=      1.0E-04
     force convergence thresh. =      1.0E-03
     press convergence thresh. =      5.0E-01
     Exchange-correlation=  SLA  PW   PBE  PBE
                           (   1   4   3   4   0   0   0)
     nstep                     =           50


     celldm(1)=   4.589935  celldm(2)=   0.000000  celldm(3)=   0.000000
     celldm(4)=   0.000000  celldm(5)=   0.000000  celldm(6)=   0.000000

     crystal axes: (cart. coord. in units of alat)
               a(1) = (  -0.577350   0.577350   0.577350 )  
               a(2) = (   0.577350  -0.577350   0.577350 )  
               a(3) = (   0.577350   0.577350  -0.577350 )  

     reciprocal axes: (cart. coord. in units 2 pi/alat)
               b(1) = (  0.000000  0.866025  0.866025 )  
               b(2) = (  0.866025  0.000000  0.866025 )  
               b(3) = (  0.866025  0.866025  0.000000 )  


     PseudoPot. # 1 for Fe read from file:
     /home/gridsan/epan1/labutil/lab3_samples/pseudopotentials/Fe.pbe-nd-rrkjus.UPF
     MD5 check sum: 398036227a04b607635f6f5e8dfd8242
     Pseudo is Ultrasoft + core correction, Zval =  8.0
     Generated by new atomic code, or converted to UPF format
     Using radial grid of  957 points,  6 beta functions with: 
                l(1) =   0
                l(2) =   0
                l(3) =   1
                l(4) =   1
                l(5) =   2
                l(6) =   2
     Q(r) pseudized with 0 coefficients 


     atomic species   valence    mass     pseudopotential
        Fe             8.00    55.84500     Fe( 1.00)

     Starting magnetic structure 
     atomic species   magnetization
        Fe           0.700

     48 Sym. Ops., with inversion, found



   Cartesian axes

     site n.     atom                  positions (alat units)
         1           Fe  tau(   1) = (   0.0000000   0.0000000   0.0000000  )

     number of k points=     4  Methfessel-Paxton smearing, width (Ry)=  0.0200
                       cart. coord. in units 2pi/alat
        k(    1) = (   0.0000000   0.0000000   0.0000000), wk =   0.0370370
        k(    2) = (   0.2886751   0.2886751   0.0000000), wk =   0.4444444
        k(    3) = (   0.5773503   0.2886751   0.2886751), wk =   0.2962963
        k(    4) = (  -0.0000000  -0.0000000   0.5773503), wk =   0.2222222

     Dense  grid:     4729 G-vectors     FFT dimensions: (  24,  24,  24)

     Smooth grid:     1601 G-vectors     FFT dimensions: (  15,  15,  15)

     Estimated max dynamical RAM per process >       7.43 MB

     Estimated total dynamical RAM >      29.72 MB
     Generating pointlists ...
     new r_m :   0.4125 (alat units)  1.8933 (a.u.) for type    1

     Initial potential from superposition of free atoms

     starting charge       7.9994, renormalised to       8.0000
     Starting wfcs are    6 randomized atomic wfcs +    2 random wfcs

     total cpu time spent up to now is        2.7 secs

     Self-consistent Calculation

     iteration #  1     ecut=    30.00 Ry     beta= 0.50
     Davidson diagonalization with overlap
     ethr =  1.00E-02,  avg # of iterations =  4.6

     total cpu time spent up to now is        3.5 secs

     total energy              =     -55.70961708 Ry
     estimated scf accuracy    <       0.28834158 Ry

     total magnetization       =     2.96 Bohr mag/cell
     absolute magnetization    =     2.96 Bohr mag/cell

     iteration #  2     ecut=    30.00 Ry     beta= 0.50
     Davidson diagonalization with overlap
     ethr =  3.60E-03,  avg # of iterations =  2.1

     total cpu time spent up to now is        3.9 secs

     total energy              =     -55.79026743 Ry
     estimated scf accuracy    <       0.02183678 Ry

     total magnetization       =     2.96 Bohr mag/cell
     absolute magnetization    =     2.97 Bohr mag/cell

     iteration #  3     ecut=    30.00 Ry     beta= 0.50
     Davidson diagonalization with overlap
     ethr =  2.73E-04,  avg # of iterations =  2.5

     total cpu time spent up to now is        4.2 secs

     total energy              =     -55.80323401 Ry
     estimated scf accuracy    <       0.00338988 Ry

     total magnetization       =     2.96 Bohr mag/cell
     absolute magnetization    =     2.98 Bohr mag/cell

     iteration #  4     ecut=    30.00 Ry     beta= 0.50
     Davidson diagonalization with overlap
     ethr =  4.24E-05,  avg # of iterations =  3.1

     total cpu time spent up to now is        4.4 secs

     total energy              =     -55.80404167 Ry
     estimated scf accuracy    <       0.00007860 Ry

     total magnetization       =     2.97 Bohr mag/cell
     absolute magnetization    =     3.01 Bohr mag/cell

     iteration #  5     ecut=    30.00 Ry     beta= 0.50
     Davidson diagonalization with overlap
     ethr =  9.82E-07,  avg # of iterations =  5.1

     total cpu time spent up to now is        4.4 secs

     total energy              =     -55.80417377 Ry
     estimated scf accuracy    <       0.00001428 Ry

     total magnetization       =     2.97 Bohr mag/cell
     absolute magnetization    =     3.02 Bohr mag/cell

     iteration #  6     ecut=    30.00 Ry     beta= 0.50
     Davidson diagonalization with overlap
     ethr =  1.79E-07,  avg # of iterations =  2.6

     total cpu time spent up to now is        4.7 secs

     total energy              =     -55.80418216 Ry
     estimated scf accuracy    <       0.00000049 Ry

     total magnetization       =     2.97 Bohr mag/cell
     absolute magnetization    =     3.03 Bohr mag/cell

     iteration #  7     ecut=    30.00 Ry     beta= 0.50
     Davidson diagonalization with overlap
     ethr =  6.12E-09,  avg # of iterations =  4.8

     Magnetic moment per site  (integrated on atomic sphere of radius R)
     atom   1 (R=0.413)  charge=  6.4290  magn=  2.9559

     total cpu time spent up to now is        6.3 secs

     End of self-consistent calculation

 ------ SPIN UP ------------


          k = 0.0000 0.0000 0.0000 (   201 PWs)   bands (ev):

     5.3978  11.3122  11.3122  11.3122  12.7813  12.7813  38.9698  38.9698

          k = 0.2887 0.2887 0.0000 (   194 PWs)   bands (ev):

     8.5581  10.4653  11.9155  12.6851  12.9074  13.2992  26.3101  33.9009

          k = 0.5774 0.2887 0.2887 (   210 PWs)   bands (ev):

     9.9278  10.6425  10.6425  13.0021  13.0021  20.9521  20.9521  23.6748

          k =-0.0000-0.0000 0.5774 (   212 PWs)   bands (ev):

     9.5817   9.8207  12.4999  12.4999  13.1664  17.0093  27.9295  27.9295

 ------ SPIN DOWN ----------


          k = 0.0000 0.0000 0.0000 (   201 PWs)   bands (ev):

     5.7764  14.3528  14.3528  14.3528  16.2578  16.2578  38.9483  38.9483

          k = 0.2887 0.2887 0.0000 (   194 PWs)   bands (ev):

     9.5866  13.2711  13.8048  16.0670  16.4426  16.6288  27.6850  34.1271

          k = 0.5774 0.2887 0.2887 (   210 PWs)   bands (ev):

    12.3736  12.8096  12.8096  16.4272  16.4272  22.6351  22.6352  25.0797

          k =-0.0000-0.0000 0.5774 (   212 PWs)   bands (ev):

    11.4067  12.3664  15.5191  15.5191  16.4928  18.8702  28.9480  28.9480

     the Fermi energy is    13.8268 ev

!    total energy              =     -55.80418278 Ry
     estimated scf accuracy    <       0.00000005 Ry
     smearing contrib. (-TS)   =      -0.00082634 Ry
     internal energy E=F+TS    =     -55.80335644 Ry

     The total energy is F=E-TS. E is the sum of the following terms:
     one-electron contribution =       8.33497071 Ry
     hartree contribution      =       6.36338793 Ry
     xc contribution           =     -26.55625772 Ry
     ewald contribution        =     -43.94545736 Ry

     total magnetization       =     2.97 Bohr mag/cell
     absolute magnetization    =     3.03 Bohr mag/cell

     convergence has been achieved in   7 iterations

     Forces acting on atoms (cartesian axes, Ry/au):

     atom    1 type  1   force =     0.00000000    0.00000000    0.00000000
     The non-local contrib.  to forces
     atom    1 type  1   force =    -0.00000000   -0.00000000   -0.00000000
     The ionic contribution  to forces
     atom    1 type  1   force =    -0.00000000   -0.00000000   -0.00000000
     The local contribution  to forces
     atom    1 type  1   force =     0.00000000   -0.00000000   -0.00000000
     The core correction contribution to forces
     atom    1 type  1   force =    -0.00000000   -0.00000000   -0.00000000
     The Hubbard contrib.    to forces
     atom    1 type  1   force =     0.00000000    0.00000000    0.00000000
     The SCF correction term to forces
     atom    1 type  1   force =     0.00000000    0.00000000    0.00000000

     Total force =     0.000000     Total SCF correction =     0.000000


     Computing stress (Cartesian axis) and pressure

          total   stress  (Ry/bohr**3)                   (kbar)     P=      269.06
   0.00182903   0.00000000   0.00000000          269.06        0.00        0.00
   0.00000000   0.00182903   0.00000000            0.00      269.06        0.00
   0.00000000   0.00000000   0.00182903            0.00        0.00      269.06


     BFGS Geometry Optimization
     Energy error            =      0.0E+00 Ry
     Gradient error          =      0.0E+00 Ry/Bohr
     Cell gradient error     =      2.7E+02 kbar

     number of scf cycles    =   1
     number of bfgs steps    =   0

     enthalpy           new  =     -55.8041827816 Ry

     new trust radius        =       0.0789022601 bohr
     new conv_thr            =       0.0000001000 Ry

     new unit-cell volume =     85.12382 a.u.^3 (    12.61405 Ang^3 )
     density =      7.35155 g/cm^3

CELL_PARAMETERS (angstrom)
  -1.466441794   1.466441794   1.466441794
   1.466441794  -1.466441794   1.466441794
   1.466441794   1.466441794  -1.466441794

ATOMIC_POSITIONS (angstrom)
Fe            0.0000000000        0.0000000000        0.0000000000



     Writing config-only to output data dir /home/gridsan/epan1/labutil/lab3_samples/problem1/Lab3/Fe_bcc_a_2.8046394196999995_ecut_30_nk_3/pwscf.save/
     NEW-OLD atomic charge density approx. for the potential

     Check: negative core charge=   -0.000005
     extrapolated charge    9.00413, renormalised to    8.00000
     Generating pointlists ...

     total cpu time spent up to now is        7.8 secs

     Self-consistent Calculation

     iteration #  1     ecut=    30.00 Ry     beta= 0.50
     Davidson diagonalization with overlap
     ethr =  1.00E-06,  avg # of iterations =  7.5

     total cpu time spent up to now is        8.8 secs

     total energy              =     -55.19417624 Ry
     estimated scf accuracy    <       0.59062767 Ry

     total magnetization       =     2.59 Bohr mag/cell
     absolute magnetization    =     2.69 Bohr mag/cell

     iteration #  2     ecut=    30.00 Ry     beta= 0.50
     Davidson diagonalization with overlap
     ethr =  7.38E-03,  avg # of iterations =  2.8

     total cpu time spent up to now is        9.4 secs

     total energy              =     -55.77175814 Ry
     estimated scf accuracy    <       1.27629303 Ry

     total magnetization       =     2.80 Bohr mag/cell
     absolute magnetization    =     2.80 Bohr mag/cell

     iteration #  3     ecut=    30.00 Ry     beta= 0.50
     Davidson diagonalization with overlap
     ethr =  7.38E-03,  avg # of iterations =  1.2

     total cpu time spent up to now is       10.4 secs

     total energy              =     -55.83709961 Ry
     estimated scf accuracy    <       0.21567157 Ry

     total magnetization       =     2.96 Bohr mag/cell
     absolute magnetization    =     2.98 Bohr mag/cell

     iteration #  4     ecut=    30.00 Ry     beta= 0.50
     Davidson diagonalization with overlap
     ethr =  2.70E-03,  avg # of iterations =  1.0

     total cpu time spent up to now is       10.6 secs

     total energy              =     -55.80672787 Ry
     estimated scf accuracy    <       0.11658608 Ry

     total magnetization       =     2.96 Bohr mag/cell
     absolute magnetization    =     3.00 Bohr mag/cell

     iteration #  5     ecut=    30.00 Ry     beta= 0.50
     Davidson diagonalization with overlap
     ethr =  1.46E-03,  avg # of iterations =  1.1

     total cpu time spent up to now is       10.8 secs

     total energy              =     -55.80910607 Ry
     estimated scf accuracy    <       0.01831475 Ry

     total magnetization       =     2.96 Bohr mag/cell
     absolute magnetization    =     3.04 Bohr mag/cell

     iteration #  6     ecut=    30.00 Ry     beta= 0.50
     Davidson diagonalization with overlap
     ethr =  2.29E-04,  avg # of iterations =  1.6

     total cpu time spent up to now is       11.4 secs

     total energy              =     -55.81150917 Ry
     estimated scf accuracy    <       0.00118046 Ry

     total magnetization       =     2.96 Bohr mag/cell
     absolute magnetization    =     3.06 Bohr mag/cell

     iteration #  7     ecut=    30.00 Ry     beta= 0.50
     Davidson diagonalization with overlap
     ethr =  1.48E-05,  avg # of iterations =  1.8

     total cpu time spent up to now is       11.7 secs

     total energy              =     -55.81130460 Ry
     estimated scf accuracy    <       0.00077618 Ry

     total magnetization       =     2.96 Bohr mag/cell
     absolute magnetization    =     3.06 Bohr mag/cell

     iteration #  8     ecut=    30.00 Ry     beta= 0.50
     Davidson diagonalization with overlap
     ethr =  9.70E-06,  avg # of iterations =  1.8

     total cpu time spent up to now is       12.4 secs

     total energy              =     -55.81144589 Ry
     estimated scf accuracy    <       0.00004574 Ry

     total magnetization       =     2.96 Bohr mag/cell
     absolute magnetization    =     3.06 Bohr mag/cell

     iteration #  9     ecut=    30.00 Ry     beta= 0.50
     Davidson diagonalization with overlap
     ethr =  5.72E-07,  avg # of iterations =  3.1

     total cpu time spent up to now is       13.0 secs

     total energy              =     -55.81145965 Ry
     estimated scf accuracy    <       0.00001711 Ry

     total magnetization       =     2.96 Bohr mag/cell
     absolute magnetization    =     3.06 Bohr mag/cell

     iteration # 10     ecut=    30.00 Ry     beta= 0.50
     Davidson diagonalization with overlap
     ethr =  2.14E-07,  avg # of iterations =  2.6

     total cpu time spent up to now is       14.1 secs

     total energy              =     -55.81147415 Ry
     estimated scf accuracy    <       0.00006081 Ry

     total magnetization       =     2.96 Bohr mag/cell
     absolute magnetization    =     3.06 Bohr mag/cell

     iteration # 11     ecut=    30.00 Ry     beta= 0.50
     Davidson diagonalization with overlap
     ethr =  2.14E-07,  avg # of iterations =  1.0

     total cpu time spent up to now is       14.8 secs

     total energy              =     -55.81147142 Ry
     estimated scf accuracy    <       0.00003922 Ry

     total magnetization       =     2.96 Bohr mag/cell
     absolute magnetization    =     3.06 Bohr mag/cell

     iteration # 12     ecut=    30.00 Ry     beta= 0.50
     Davidson diagonalization with overlap
     ethr =  2.14E-07,  avg # of iterations =  1.5

     total cpu time spent up to now is       15.3 secs

     total energy              =     -55.81147367 Ry
     estimated scf accuracy    <       0.00000834 Ry

     total magnetization       =     2.96 Bohr mag/cell
     absolute magnetization    =     3.06 Bohr mag/cell

     iteration # 13     ecut=    30.00 Ry     beta= 0.50
     Davidson diagonalization with overlap
     ethr =  1.04E-07,  avg # of iterations =  1.2

     total cpu time spent up to now is       16.1 secs

     total energy              =     -55.81147453 Ry
     estimated scf accuracy    <       0.00000254 Ry

     total magnetization       =     2.96 Bohr mag/cell
     absolute magnetization    =     3.06 Bohr mag/cell

     iteration # 14     ecut=    30.00 Ry     beta= 0.50
     Davidson diagonalization with overlap
     ethr =  3.18E-08,  avg # of iterations =  1.1

     total cpu time spent up to now is       17.3 secs

     total energy              =     -55.81147503 Ry
     estimated scf accuracy    <       0.00000196 Ry

     total magnetization       =     2.96 Bohr mag/cell
     absolute magnetization    =     3.06 Bohr mag/cell

     iteration # 15     ecut=    30.00 Ry     beta= 0.50
     Davidson diagonalization with overlap
     ethr =  2.45E-08,  avg # of iterations =  1.0

     total cpu time spent up to now is       18.1 secs

     total energy              =     -55.81147505 Ry
     estimated scf accuracy    <       0.00000073 Ry

     total magnetization       =     2.96 Bohr mag/cell
     absolute magnetization    =     3.06 Bohr mag/cell

     iteration # 16     ecut=    30.00 Ry     beta= 0.50
     Davidson diagonalization with overlap
     ethr =  9.17E-09,  avg # of iterations =  1.5

     Magnetic moment per site  (integrated on atomic sphere of radius R)
     atom   1 (R=0.413)  charge=  6.2872  magn=  2.9690

     total cpu time spent up to now is       18.9 secs

     End of self-consistent calculation

 ------ SPIN UP ------------


          k = 0.0000 0.0000 0.0000 (   201 PWs)   bands (ev):

     3.8918   9.2618   9.2618   9.2618  10.4315  10.4315  35.4639  35.4639

          k = 0.2761 0.2761-0.0000 (   194 PWs)   bands (ev):

     6.8761   8.5820   9.7959  10.3639  10.5259  10.8807  22.7138  30.3938

          k = 0.5521 0.2761 0.2761 (   210 PWs)   bands (ev):

     8.1359   8.7340   8.7340  10.6184  10.6184  17.8845  17.8845  20.0624

          k =-0.0000-0.0000 0.5521 (   212 PWs)   bands (ev):

     7.8430   8.0725  10.2438  10.2438  10.7757  14.2094  24.2808  24.2808

 ------ SPIN DOWN ----------


          k = 0.0000 0.0000 0.0000 (   201 PWs)   bands (ev):

     4.1663  12.2865  12.2865  12.2865  13.9343  13.9343  35.2984  35.2984

          k = 0.2761 0.2761-0.0000 (   194 PWs)   bands (ev):

     7.7478  11.3840  11.7559  13.7523  14.0814  14.1872  23.9519  30.5262

          k = 0.5521 0.2761 0.2761 (   210 PWs)   bands (ev):

    10.5718  10.9074  10.9074  14.0478  14.0478  19.4273  19.4273  21.3738

          k =-0.0000-0.0000 0.5521 (   212 PWs)   bands (ev):

     9.6413  10.6845  13.2560  13.2560  14.0806  16.0127  25.1562  25.1562

     the Fermi energy is    11.7739 ev

!    total energy              =     -55.81147516 Ry
     estimated scf accuracy    <          2.7E-10 Ry
     smearing contrib. (-TS)   =      -0.00068082 Ry
     internal energy E=F+TS    =     -55.81079433 Ry

     The total energy is F=E-TS. E is the sum of the following terms:
     one-electron contribution =       5.60185322 Ry
     hartree contribution      =       7.07289772 Ry
     xc contribution           =     -26.46166046 Ry
     ewald contribution        =     -42.02388483 Ry

     total magnetization       =     2.96 Bohr mag/cell
     absolute magnetization    =     3.06 Bohr mag/cell

     convergence has been achieved in  16 iterations

     Forces acting on atoms (cartesian axes, Ry/au):

     atom    1 type  1   force =     0.00000000    0.00000000    0.00000000
     The non-local contrib.  to forces
     atom    1 type  1   force =     0.00000000    0.00000000   -0.00000000
     The ionic contribution  to forces
     atom    1 type  1   force =    -0.00000000   -0.00000000   -0.00000000
     The local contribution  to forces
     atom    1 type  1   force =    -0.00000000   -0.00000000   -0.00000000
     The core correction contribution to forces
     atom    1 type  1   force =    -0.00000000   -0.00000000   -0.00000000
     The Hubbard contrib.    to forces
     atom    1 type  1   force =     0.00000000    0.00000000    0.00000000
     The SCF correction term to forces
     atom    1 type  1   force =    -0.00000000    0.00000000    0.00000000

     Total force =     0.000000     Total SCF correction =     0.000000


     Computing stress (Cartesian axis) and pressure

          total   stress  (Ry/bohr**3)                   (kbar)     P=      -29.20
  -0.00019848   0.00000000   0.00000000          -29.20        0.00        0.00
   0.00000000  -0.00019848  -0.00000000            0.00      -29.20       -0.00
   0.00000000   0.00000000  -0.00019848            0.00        0.00      -29.20

     Energy error            =      7.3E-03 Ry
     Gradient error          =      0.0E+00 Ry/Bohr
     Cell gradient error     =      2.9E+01 kbar

     number of scf cycles    =   2
     number of bfgs steps    =   1

     enthalpy           old  =     -55.8041827816 Ry
     enthalpy           new  =     -55.8114751568 Ry

     CASE: enthalpy          _new < enthalpy          _old

     new trust radius        =       0.0085589812 bohr
     new conv_thr            =       0.0000000010 Ry

     new unit-cell volume =     83.94479 a.u.^3 (    12.43933 Ang^3 )
     density =      7.45480 g/cm^3

CELL_PARAMETERS (angstrom)
  -1.459639877   1.459639877   1.459639877
   1.459639877  -1.459639877   1.459639877
   1.459639877   1.459639877  -1.459639877

ATOMIC_POSITIONS (angstrom)
Fe            0.0000000000        0.0000000000        0.0000000000



     Writing config-only to output data dir /home/gridsan/epan1/labutil/lab3_samples/problem1/Lab3/Fe_bcc_a_2.8046394196999995_ecut_30_nk_3/pwscf.save/
     NEW-OLD atomic charge density approx. for the potential

     Check: negative core charge=   -0.000004
     extrapolated charge    7.88765, renormalised to    8.00000
     Generating pointlists ...

     total cpu time spent up to now is       20.7 secs

     Self-consistent Calculation

     iteration #  1     ecut=    30.00 Ry     beta= 0.50
     Davidson diagonalization with overlap
     ethr =  1.00E-06,  avg # of iterations =  4.0

     total cpu time spent up to now is       21.2 secs

     total energy              =     -55.80449563 Ry
     estimated scf accuracy    <       0.00695338 Ry

     total magnetization       =     2.96 Bohr mag/cell
     absolute magnetization    =     3.05 Bohr mag/cell

     iteration #  2     ecut=    30.00 Ry     beta= 0.50
     Davidson diagonalization with overlap
     ethr =  8.69E-05,  avg # of iterations =  2.6

     total cpu time spent up to now is       22.9 secs

     total energy              =     -55.81146099 Ry
     estimated scf accuracy    <       0.01069697 Ry

     total magnetization       =     2.97 Bohr mag/cell
     absolute magnetization    =     3.06 Bohr mag/cell

     iteration #  3     ecut=    30.00 Ry     beta= 0.50
     Davidson diagonalization with overlap
     ethr =  8.69E-05,  avg # of iterations =  1.2

     total cpu time spent up to now is       24.4 secs

     total energy              =     -55.81068918 Ry
     estimated scf accuracy    <       0.00196382 Ry

     total magnetization       =     2.96 Bohr mag/cell
     absolute magnetization    =     3.06 Bohr mag/cell

     iteration #  4     ecut=    30.00 Ry     beta= 0.50
     Davidson diagonalization with overlap
     ethr =  2.45E-05,  avg # of iterations =  2.2

     total cpu time spent up to now is       24.4 secs

     total energy              =     -55.81164961 Ry
     estimated scf accuracy    <       0.00131329 Ry

     total magnetization       =     2.96 Bohr mag/cell
     absolute magnetization    =     3.05 Bohr mag/cell

     iteration #  5     ecut=    30.00 Ry     beta= 0.50
     Davidson diagonalization with overlap
     ethr =  1.64E-05,  avg # of iterations =  1.0

     total cpu time spent up to now is       24.5 secs

     total energy              =     -55.81151259 Ry
     estimated scf accuracy    <       0.00032632 Ry

     total magnetization       =     2.96 Bohr mag/cell
     absolute magnetization    =     3.05 Bohr mag/cell

     iteration #  6     ecut=    30.00 Ry     beta= 0.50
     Davidson diagonalization with overlap
     ethr =  4.08E-06,  avg # of iterations =  2.1

     total cpu time spent up to now is       24.8 secs

     total energy              =     -55.81162176 Ry
     estimated scf accuracy    <       0.00003027 Ry

     total magnetization       =     2.96 Bohr mag/cell
     absolute magnetization    =     3.05 Bohr mag/cell

     iteration #  7     ecut=    30.00 Ry     beta= 0.50
     Davidson diagonalization with overlap
     ethr =  3.78E-07,  avg # of iterations =  1.0

     total cpu time spent up to now is       24.9 secs

     total energy              =     -55.81161996 Ry
     estimated scf accuracy    <       0.00001193 Ry

     total magnetization       =     2.96 Bohr mag/cell
     absolute magnetization    =     3.05 Bohr mag/cell

     iteration #  8     ecut=    30.00 Ry     beta= 0.50
     Davidson diagonalization with overlap
     ethr =  1.49E-07,  avg # of iterations =  1.1

     total cpu time spent up to now is       25.8 secs

     total energy              =     -55.81161876 Ry
     estimated scf accuracy    <       0.00000332 Ry

     total magnetization       =     2.96 Bohr mag/cell
     absolute magnetization    =     3.05 Bohr mag/cell

     iteration #  9     ecut=    30.00 Ry     beta= 0.50
     Davidson diagonalization with overlap
     ethr =  4.15E-08,  avg # of iterations =  2.0

     total cpu time spent up to now is       27.0 secs

     total energy              =     -55.81161974 Ry
     estimated scf accuracy    <       0.00000005 Ry

     total magnetization       =     2.96 Bohr mag/cell
     absolute magnetization    =     3.05 Bohr mag/cell

     iteration # 10     ecut=    30.00 Ry     beta= 0.50
     Davidson diagonalization with overlap
     ethr =  6.17E-10,  avg # of iterations =  4.4

     total cpu time spent up to now is       27.9 secs

     total energy              =     -55.81161958 Ry
     estimated scf accuracy    <       0.00000052 Ry

     total magnetization       =     2.96 Bohr mag/cell
     absolute magnetization    =     3.05 Bohr mag/cell

     iteration # 11     ecut=    30.00 Ry     beta= 0.50
     Davidson diagonalization with overlap
     ethr =  6.17E-10,  avg # of iterations =  2.9

     Magnetic moment per site  (integrated on atomic sphere of radius R)
     atom   1 (R=0.413)  charge=  6.2996  magn=  2.9665

     total cpu time spent up to now is       28.4 secs

     End of self-consistent calculation

 ------ SPIN UP ------------


          k = 0.0000 0.0000 0.0000 (   201 PWs)   bands (ev):

     4.0362   9.4641   9.4641   9.4641  10.6624  10.6624  35.8139  35.8139

          k = 0.2773 0.2773 0.0000 (   194 PWs)   bands (ev):

     7.0405   8.7684  10.0033  10.5917  10.7597  11.1180  23.0665  30.7438

          k = 0.5547 0.2773 0.2773 (   210 PWs)   bands (ev):

     8.3132   8.9221   8.9221  10.8523  10.8523  18.1833  18.1833  20.4168

          k =-0.0000-0.0000 0.5547 (   212 PWs)   bands (ev):

     8.0145   8.2463  10.4656  10.4656  11.0104  14.4819  24.6384  24.6384

 ------ SPIN DOWN ----------


          k = 0.0000 0.0000 0.0000 (   201 PWs)   bands (ev):

     4.3206  12.4892  12.4892  12.4892  14.1619  14.1619  35.6627  35.6627

          k = 0.2773 0.2773 0.0000 (   194 PWs)   bands (ev):

     7.9267  11.5696  11.9554  13.9789  14.3125  14.4257  24.3182  30.8847

          k = 0.5547 0.2773 0.2773 (   210 PWs)   bands (ev):

    10.7489  11.0933  11.0933  14.2804  14.2804  19.7404  19.7404  21.7370

          k =-0.0000-0.0000 0.5547 (   212 PWs)   bands (ev):

     9.8142  10.8506  13.4773  13.4773  14.3164  16.2908  25.5278  25.5278

     the Fermi energy is    11.9740 ev

!    total energy              =     -55.81161968 Ry
     estimated scf accuracy    <          7.9E-10 Ry
     smearing contrib. (-TS)   =      -0.00070977 Ry
     internal energy E=F+TS    =     -55.81090990 Ry

     The total energy is F=E-TS. E is the sum of the following terms:
     one-electron contribution =       5.88197306 Ry
     hartree contribution      =       6.99701280 Ry
     xc contribution           =     -26.47017976 Ry
     ewald contribution        =     -42.21971600 Ry

     total magnetization       =     2.96 Bohr mag/cell
     absolute magnetization    =     3.05 Bohr mag/cell

     convergence has been achieved in  11 iterations

     Forces acting on atoms (cartesian axes, Ry/au):

     atom    1 type  1   force =     0.00000000    0.00000000    0.00000000
     The non-local contrib.  to forces
     atom    1 type  1   force =     0.00000000    0.00000000    0.00000000
     The ionic contribution  to forces
     atom    1 type  1   force =    -0.00000000   -0.00000000   -0.00000000
     The local contribution  to forces
     atom    1 type  1   force =     0.00000000   -0.00000000   -0.00000000
     The core correction contribution to forces
     atom    1 type  1   force =     0.00000000    0.00000000   -0.00000000
     The Hubbard contrib.    to forces
     atom    1 type  1   force =     0.00000000    0.00000000    0.00000000
     The SCF correction term to forces
     atom    1 type  1   force =     0.00000000    0.00000000   -0.00000000

     Total force =     0.000000     Total SCF correction =     0.000000


     Computing stress (Cartesian axis) and pressure

          total   stress  (Ry/bohr**3)                   (kbar)     P=       -5.80
  -0.00003941  -0.00000000  -0.00000000           -5.80       -0.00       -0.00
  -0.00000000  -0.00003941  -0.00000000           -0.00       -5.80       -0.00
  -0.00000000  -0.00000000  -0.00003941           -0.00       -0.00       -5.80

     Energy error            =      1.4E-04 Ry
     Gradient error          =      0.0E+00 Ry/Bohr
     Cell gradient error     =      5.8E+00 kbar

     number of scf cycles    =   3
     number of bfgs steps    =   2

     enthalpy           old  =     -55.8114751568 Ry
     enthalpy           new  =     -55.8116196756 Ry

     CASE: enthalpy          _new < enthalpy          _old

     new trust radius        =       0.0020911386 bohr
     new conv_thr            =       0.0000000010 Ry

     new unit-cell volume =     83.65773 a.u.^3 (    12.39680 Ang^3 )
     density =      7.48038 g/cm^3

CELL_PARAMETERS (angstrom)
  -1.457974158   1.457974158   1.457974158
   1.457974158  -1.457974158   1.457974158
   1.457974158   1.457974158  -1.457974158

ATOMIC_POSITIONS (angstrom)
Fe            0.0000000000        0.0000000000        0.0000000000



     Writing config-only to output data dir /home/gridsan/epan1/labutil/lab3_samples/problem1/Lab3/Fe_bcc_a_2.8046394196999995_ecut_30_nk_3/pwscf.save/
     NEW-OLD atomic charge density approx. for the potential

     Check: negative core charge=   -0.000003
     extrapolated charge    7.97255, renormalised to    8.00000
     Generating pointlists ...

     total cpu time spent up to now is       31.0 secs

     Self-consistent Calculation

     iteration #  1     ecut=    30.00 Ry     beta= 0.50
     Davidson diagonalization with overlap
     ethr =  1.00E-06,  avg # of iterations =  2.6

     total cpu time spent up to now is       31.3 secs

     total energy              =     -55.81121945 Ry
     estimated scf accuracy    <       0.00039427 Ry

     total magnetization       =     2.96 Bohr mag/cell
     absolute magnetization    =     3.05 Bohr mag/cell

     iteration #  2     ecut=    30.00 Ry     beta= 0.50
     Davidson diagonalization with overlap
     ethr =  4.93E-06,  avg # of iterations =  2.8

     total cpu time spent up to now is       31.4 secs

     total energy              =     -55.81161899 Ry
     estimated scf accuracy    <       0.00060470 Ry

     total magnetization       =     2.96 Bohr mag/cell
     absolute magnetization    =     3.05 Bohr mag/cell

     iteration #  3     ecut=    30.00 Ry     beta= 0.50
     Davidson diagonalization with overlap
     ethr =  4.93E-06,  avg # of iterations =  1.2

     total cpu time spent up to now is       33.0 secs

     total energy              =     -55.81157026 Ry
     estimated scf accuracy    <       0.00011410 Ry

     total magnetization       =     2.96 Bohr mag/cell
     absolute magnetization    =     3.05 Bohr mag/cell

     iteration #  4     ecut=    30.00 Ry     beta= 0.50
     Davidson diagonalization with overlap
     ethr =  1.43E-06,  avg # of iterations =  2.4

     total cpu time spent up to now is       33.6 secs

     total energy              =     -55.81162949 Ry
     estimated scf accuracy    <       0.00009750 Ry

     total magnetization       =     2.96 Bohr mag/cell
     absolute magnetization    =     3.05 Bohr mag/cell

     iteration #  5     ecut=    30.00 Ry     beta= 0.50
     Davidson diagonalization with overlap
     ethr =  1.22E-06,  avg # of iterations =  1.0

     total cpu time spent up to now is       34.2 secs

     total energy              =     -55.81162400 Ry
     estimated scf accuracy    <       0.00002601 Ry

     total magnetization       =     2.96 Bohr mag/cell
     absolute magnetization    =     3.05 Bohr mag/cell

     iteration #  6     ecut=    30.00 Ry     beta= 0.50
     Davidson diagonalization with overlap
     ethr =  3.25E-07,  avg # of iterations =  1.4

     total cpu time spent up to now is       34.5 secs

     total energy              =     -55.81162518 Ry
     estimated scf accuracy    <       0.00000219 Ry

     total magnetization       =     2.96 Bohr mag/cell
     absolute magnetization    =     3.05 Bohr mag/cell

     iteration #  7     ecut=    30.00 Ry     beta= 0.50
     Davidson diagonalization with overlap
     ethr =  2.74E-08,  avg # of iterations =  2.6

     total cpu time spent up to now is       35.4 secs

     total energy              =     -55.81162638 Ry
     estimated scf accuracy    <       0.00000226 Ry

     total magnetization       =     2.96 Bohr mag/cell
     absolute magnetization    =     3.05 Bohr mag/cell

     iteration #  8     ecut=    30.00 Ry     beta= 0.50
     Davidson diagonalization with overlap
     ethr =  2.74E-08,  avg # of iterations =  1.0

     total cpu time spent up to now is       36.6 secs

     total energy              =     -55.81162663 Ry
     estimated scf accuracy    <       0.00000032 Ry

     total magnetization       =     2.96 Bohr mag/cell
     absolute magnetization    =     3.05 Bohr mag/cell

     iteration #  9     ecut=    30.00 Ry     beta= 0.50
     Davidson diagonalization with overlap
     ethr =  4.05E-09,  avg # of iterations =  1.2

     total cpu time spent up to now is       37.3 secs

     total energy              =     -55.81162663 Ry
     estimated scf accuracy    <       0.00000060 Ry

     total magnetization       =     2.96 Bohr mag/cell
     absolute magnetization    =     3.05 Bohr mag/cell

     iteration # 10     ecut=    30.00 Ry     beta= 0.50
     Davidson diagonalization with overlap
     ethr =  4.05E-09,  avg # of iterations =  1.0

     total cpu time spent up to now is       37.6 secs

     total energy              =     -55.81162642 Ry
     estimated scf accuracy    <       0.00000053 Ry

     total magnetization       =     2.96 Bohr mag/cell
     absolute magnetization    =     3.05 Bohr mag/cell

     iteration # 11     ecut=    30.00 Ry     beta= 0.50
     Davidson diagonalization with overlap
     ethr =  4.05E-09,  avg # of iterations =  1.5

     total cpu time spent up to now is       38.7 secs

     total energy              =     -55.81162645 Ry
     estimated scf accuracy    <       0.00000004 Ry

     total magnetization       =     2.96 Bohr mag/cell
     absolute magnetization    =     3.05 Bohr mag/cell

     iteration # 12     ecut=    30.00 Ry     beta= 0.50
     Davidson diagonalization with overlap
     ethr =  4.44E-10,  avg # of iterations =  2.1

     total cpu time spent up to now is       39.5 secs

     total energy              =     -55.81162647 Ry
     estimated scf accuracy    <          4.3E-09 Ry

     total magnetization       =     2.96 Bohr mag/cell
     absolute magnetization    =     3.05 Bohr mag/cell

     iteration # 13     ecut=    30.00 Ry     beta= 0.50
     Davidson diagonalization with overlap
     ethr =  5.33E-11,  avg # of iterations =  3.1

     total cpu time spent up to now is       40.2 secs

     total energy              =     -55.81162648 Ry
     estimated scf accuracy    <       0.00000001 Ry

     total magnetization       =     2.96 Bohr mag/cell
     absolute magnetization    =     3.05 Bohr mag/cell

     iteration # 14     ecut=    30.00 Ry     beta= 0.50
     Davidson diagonalization with overlap
     ethr =  5.33E-11,  avg # of iterations =  1.0

     total cpu time spent up to now is       41.0 secs

     total energy              =     -55.81162646 Ry
     estimated scf accuracy    <       0.00000002 Ry

     total magnetization       =     2.96 Bohr mag/cell
     absolute magnetization    =     3.05 Bohr mag/cell

     iteration # 15     ecut=    30.00 Ry     beta= 0.50
     Davidson diagonalization with overlap
     ethr =  5.33E-11,  avg # of iterations =  3.1

     total cpu time spent up to now is       42.6 secs

     total energy              =     -55.81162647 Ry
     estimated scf accuracy    <       0.00000001 Ry

     total magnetization       =     2.96 Bohr mag/cell
     absolute magnetization    =     3.05 Bohr mag/cell

     iteration # 16     ecut=    30.00 Ry     beta= 0.50
     Davidson diagonalization with overlap
     ethr =  5.33E-11,  avg # of iterations =  2.0

     Magnetic moment per site  (integrated on atomic sphere of radius R)
     atom   1 (R=0.413)  charge=  6.3027  magn=  2.9660

     total cpu time spent up to now is       44.4 secs

     End of self-consistent calculation

 ------ SPIN UP ------------


          k = 0.0000 0.0000 0.0000 (   201 PWs)   bands (ev):

     4.0721   9.5143   9.5143   9.5143  10.7196  10.7196  35.9005  35.9005

          k = 0.2777 0.2777 0.0000 (   194 PWs)   bands (ev):

     7.0813   8.8146  10.0547  10.6483  10.8177  11.1769  23.1540  30.8303

          k = 0.5553 0.2777 0.2777 (   210 PWs)   bands (ev):

     8.3571   8.9687   8.9687  10.9103  10.9103  18.2574  18.2574  20.5047

          k =-0.0000-0.0000 0.5553 (   212 PWs)   bands (ev):

     8.0570   8.2894  10.5206  10.5206  11.0686  14.5495  24.7270  24.7270

 ------ SPIN DOWN ----------


          k = 0.0000 0.0000 0.0000 (   201 PWs)   bands (ev):

     4.3589  12.5395  12.5395  12.5395  14.2183  14.2183  35.7526  35.7526

          k = 0.2777 0.2777 0.0000 (   194 PWs)   bands (ev):

     7.9711  11.6156  12.0049  14.0351  14.3699  14.4849  24.4089  30.9733

          k = 0.5553 0.2777 0.2777 (   210 PWs)   bands (ev):

    10.7927  11.1394  11.1394  14.3382  14.3382  19.8180  19.8180  21.8270

          k =-0.0000-0.0000 0.5553 (   212 PWs)   bands (ev):

     9.8571  10.8918  13.5322  13.5322  14.3749  16.3598  25.6198  25.6198

     the Fermi energy is    12.0237 ev

!    total energy              =     -55.81162647 Ry
     estimated scf accuracy    <          7.0E-11 Ry
     smearing contrib. (-TS)   =      -0.00071744 Ry
     internal energy E=F+TS    =     -55.81090903 Ry

     The total energy is F=E-TS. E is the sum of the following terms:
     one-electron contribution =       5.95100753 Ry
     hartree contribution      =       6.97827518 Ry
     xc contribution           =     -26.47224021 Ry
     ewald contribution        =     -42.26795154 Ry

     total magnetization       =     2.96 Bohr mag/cell
     absolute magnetization    =     3.05 Bohr mag/cell

     convergence has been achieved in  16 iterations

     Forces acting on atoms (cartesian axes, Ry/au):

     atom    1 type  1   force =     0.00000000    0.00000000    0.00000000
     The non-local contrib.  to forces
     atom    1 type  1   force =     0.00000000    0.00000000    0.00000000
     The ionic contribution  to forces
     atom    1 type  1   force =    -0.00000000   -0.00000000   -0.00000000
     The local contribution  to forces
     atom    1 type  1   force =    -0.00000000    0.00000000   -0.00000000
     The core correction contribution to forces
     atom    1 type  1   force =    -0.00000000    0.00000000   -0.00000000
     The Hubbard contrib.    to forces
     atom    1 type  1   force =     0.00000000    0.00000000    0.00000000
     The SCF correction term to forces
     atom    1 type  1   force =    -0.00000000    0.00000000   -0.00000000

     Total force =     0.000000     Total SCF correction =     0.000000


     Computing stress (Cartesian axis) and pressure

          total   stress  (Ry/bohr**3)                   (kbar)     P=       -0.69
  -0.00000470  -0.00000000  -0.00000000           -0.69       -0.00       -0.00
  -0.00000000  -0.00000470  -0.00000000           -0.00       -0.69       -0.00
  -0.00000000  -0.00000000  -0.00000470           -0.00       -0.00       -0.69

     Energy error            =      6.8E-06 Ry
     Gradient error          =      0.0E+00 Ry/Bohr
     Cell gradient error     =      6.9E-01 kbar

     number of scf cycles    =   4
     number of bfgs steps    =   3

     enthalpy           old  =     -55.8116196756 Ry
     enthalpy           new  =     -55.8116264709 Ry

     CASE: enthalpy          _new < enthalpy          _old

     new trust radius        =       0.0002820532 bohr
     new conv_thr            =       0.0000000010 Ry

     new unit-cell volume =     83.61904 a.u.^3 (    12.39106 Ang^3 )
     density =      7.48385 g/cm^3

CELL_PARAMETERS (angstrom)
  -1.457749357   1.457749357   1.457749357
   1.457749357  -1.457749357   1.457749357
   1.457749357   1.457749357  -1.457749357

ATOMIC_POSITIONS (angstrom)
Fe            0.0000000000        0.0000000000        0.0000000000



     Writing config-only to output data dir /home/gridsan/epan1/labutil/lab3_samples/problem1/Lab3/Fe_bcc_a_2.8046394196999995_ecut_30_nk_3/pwscf.save/
     NEW-OLD atomic charge density approx. for the potential

     Check: negative core charge=   -0.000003
     extrapolated charge    7.99630, renormalised to    8.00000
     Generating pointlists ...

     total cpu time spent up to now is       46.4 secs

     Self-consistent Calculation

     iteration #  1     ecut=    30.00 Ry     beta= 0.50
     Davidson diagonalization with overlap
     ethr =  1.00E-06,  avg # of iterations =  2.0

     Threshold (ethr) on eigenvalues was too large:
     Diagonalizing with lowered threshold

     Davidson diagonalization with overlap
     ethr =  8.68E-08,  avg # of iterations =  1.0

     total cpu time spent up to now is       47.8 secs

     total energy              =     -55.81161887 Ry
     estimated scf accuracy    <       0.00000743 Ry

     total magnetization       =     2.96 Bohr mag/cell
     absolute magnetization    =     3.05 Bohr mag/cell

     iteration #  2     ecut=    30.00 Ry     beta= 0.50
     Davidson diagonalization with overlap
     ethr =  9.29E-08,  avg # of iterations =  2.8

     total cpu time spent up to now is       48.9 secs

     total energy              =     -55.81162637 Ry
     estimated scf accuracy    <       0.00001129 Ry

     total magnetization       =     2.96 Bohr mag/cell
     absolute magnetization    =     3.05 Bohr mag/cell

     iteration #  3     ecut=    30.00 Ry     beta= 0.50
     Davidson diagonalization with overlap
     ethr =  9.29E-08,  avg # of iterations =  1.2

     total cpu time spent up to now is       49.3 secs

     total energy              =     -55.81162543 Ry
     estimated scf accuracy    <       0.00000213 Ry

     total magnetization       =     2.96 Bohr mag/cell
     absolute magnetization    =     3.05 Bohr mag/cell

     iteration #  4     ecut=    30.00 Ry     beta= 0.50
     Davidson diagonalization with overlap
     ethr =  2.66E-08,  avg # of iterations =  2.4

     total cpu time spent up to now is       49.4 secs

     total energy              =     -55.81162661 Ry
     estimated scf accuracy    <       0.00000213 Ry

     total magnetization       =     2.96 Bohr mag/cell
     absolute magnetization    =     3.05 Bohr mag/cell

     iteration #  5     ecut=    30.00 Ry     beta= 0.50
     Davidson diagonalization with overlap
     ethr =  2.66E-08,  avg # of iterations =  1.0

     total cpu time spent up to now is       49.5 secs

     total energy              =     -55.81162639 Ry
     estimated scf accuracy    <       0.00000064 Ry

     total magnetization       =     2.96 Bohr mag/cell
     absolute magnetization    =     3.05 Bohr mag/cell

     iteration #  6     ecut=    30.00 Ry     beta= 0.50
     Davidson diagonalization with overlap
     ethr =  7.96E-09,  avg # of iterations =  1.5

     total cpu time spent up to now is       49.5 secs

     total energy              =     -55.81162650 Ry
     estimated scf accuracy    <          5.7E-09 Ry

     total magnetization       =     2.96 Bohr mag/cell
     absolute magnetization    =     3.05 Bohr mag/cell

     iteration #  7     ecut=    30.00 Ry     beta= 0.50
     Davidson diagonalization with overlap
     ethr =  7.16E-11,  avg # of iterations =  3.2

     total cpu time spent up to now is       49.6 secs

     total energy              =     -55.81162651 Ry
     estimated scf accuracy    <       0.00000004 Ry

     total magnetization       =     2.96 Bohr mag/cell
     absolute magnetization    =     3.05 Bohr mag/cell

     iteration #  8     ecut=    30.00 Ry     beta= 0.50
     Davidson diagonalization with overlap
     ethr =  7.16E-11,  avg # of iterations =  1.9

     total cpu time spent up to now is       50.3 secs

     total energy              =     -55.81162650 Ry
     estimated scf accuracy    <          9.3E-09 Ry

     total magnetization       =     2.96 Bohr mag/cell
     absolute magnetization    =     3.05 Bohr mag/cell

     iteration #  9     ecut=    30.00 Ry     beta= 0.50
     Davidson diagonalization with overlap
     ethr =  7.16E-11,  avg # of iterations =  2.1

     total cpu time spent up to now is       51.6 secs

     total energy              =     -55.81162651 Ry
     estimated scf accuracy    <          1.5E-09 Ry

     total magnetization       =     2.96 Bohr mag/cell
     absolute magnetization    =     3.05 Bohr mag/cell

     iteration # 10     ecut=    30.00 Ry     beta= 0.50
     Davidson diagonalization with overlap
     ethr =  1.92E-11,  avg # of iterations =  1.0

     Magnetic moment per site  (integrated on atomic sphere of radius R)
     atom   1 (R=0.413)  charge=  6.3031  magn=  2.9659

     total cpu time spent up to now is       52.3 secs

     End of self-consistent calculation

 ------ SPIN UP ------------


          k = 0.0000 0.0000 0.0000 (   201 PWs)   bands (ev):

     4.0770   9.5209   9.5209   9.5209  10.7272  10.7272  35.9122  35.9122

          k = 0.2777 0.2777 0.0000 (   194 PWs)   bands (ev):

     7.0868   8.8207  10.0616  10.6558  10.8254  11.1847  23.1657  30.8420

          k = 0.5554 0.2777 0.2777 (   210 PWs)   bands (ev):

     8.3629   8.9749   8.9749  10.9180  10.9180  18.2674  18.2674  20.5165

          k =-0.0000-0.0000 0.5554 (   212 PWs)   bands (ev):

     8.0626   8.2951  10.5279  10.5279  11.0763  14.5586  24.7390  24.7390

 ------ SPIN DOWN ----------


          k = 0.0000 0.0000 0.0000 (   201 PWs)   bands (ev):

     4.3641  12.5462  12.5462  12.5462  14.2258  14.2258  35.7648  35.7648

          k = 0.2777 0.2777 0.0000 (   194 PWs)   bands (ev):

     7.9770  11.6217  12.0115  14.0425  14.3775  14.4928  24.4211  30.9853

          k = 0.5554 0.2777 0.2777 (   210 PWs)   bands (ev):

    10.7986  11.1455  11.1455  14.3458  14.3458  19.8284  19.8284  21.8391

          k =-0.0000-0.0000 0.5554 (   212 PWs)   bands (ev):

     9.8628  10.8972  13.5395  13.5395  14.3827  16.3691  25.6323  25.6323

     the Fermi energy is    12.0303 ev

!    total energy              =     -55.81162651 Ry
     estimated scf accuracy    <          8.3E-10 Ry
     smearing contrib. (-TS)   =      -0.00071855 Ry
     internal energy E=F+TS    =     -55.81090796 Ry

     The total energy is F=E-TS. E is the sum of the following terms:
     one-electron contribution =       5.96025343 Ry
     hartree contribution      =       6.97589155 Ry
     xc contribution           =     -26.47258322 Ry
     ewald contribution        =     -42.27446972 Ry

     total magnetization       =     2.96 Bohr mag/cell
     absolute magnetization    =     3.05 Bohr mag/cell

     convergence has been achieved in  10 iterations

     Forces acting on atoms (cartesian axes, Ry/au):

     atom    1 type  1   force =     0.00000000    0.00000000    0.00000000
     The non-local contrib.  to forces
     atom    1 type  1   force =     0.00000000    0.00000000    0.00000000
     The ionic contribution  to forces
     atom    1 type  1   force =    -0.00000000   -0.00000000   -0.00000000
     The local contribution  to forces
     atom    1 type  1   force =    -0.00000000    0.00000000   -0.00000000
     The core correction contribution to forces
     atom    1 type  1   force =    -0.00000000   -0.00000000    0.00000000
     The Hubbard contrib.    to forces
     atom    1 type  1   force =     0.00000000    0.00000000    0.00000000
     The SCF correction term to forces
     atom    1 type  1   force =    -0.00000000   -0.00000000   -0.00000000

     Total force =     0.000000     Total SCF correction =     0.000000


     Computing stress (Cartesian axis) and pressure

          total   stress  (Ry/bohr**3)                   (kbar)     P=        0.82
   0.00000559  -0.00000000  -0.00000000            0.82       -0.00       -0.00
  -0.00000000   0.00000559  -0.00000000           -0.00        0.82       -0.00
  -0.00000000  -0.00000000   0.00000559           -0.00       -0.00        0.82

     Energy error            =      3.6E-08 Ry
     Gradient error          =      0.0E+00 Ry/Bohr
     Cell gradient error     =      8.2E-01 kbar

     number of scf cycles    =   5
     number of bfgs steps    =   4

     enthalpy           old  =     -55.8116264709 Ry
     enthalpy           new  =     -55.8116265070 Ry

     CASE: enthalpy          _new < enthalpy          _old

     new trust radius        =       0.0001532855 bohr
     new conv_thr            =       0.0000000010 Ry

     new unit-cell volume =     83.64007 a.u.^3 (    12.39418 Ang^3 )
     density =      7.48196 g/cm^3

CELL_PARAMETERS (angstrom)
  -1.457871538   1.457871538   1.457871538
   1.457871538  -1.457871538   1.457871538
   1.457871538   1.457871538  -1.457871538

ATOMIC_POSITIONS (angstrom)
Fe            0.0000000000        0.0000000000        0.0000000000



     Writing config-only to output data dir /home/gridsan/epan1/labutil/lab3_samples/problem1/Lab3/Fe_bcc_a_2.8046394196999995_ecut_30_nk_3/pwscf.save/
     NEW-OLD atomic charge density approx. for the potential

     Check: negative core charge=   -0.000003
     extrapolated charge    8.00201, renormalised to    8.00000
     Generating pointlists ...

     total cpu time spent up to now is       54.3 secs

     Self-consistent Calculation

     iteration #  1     ecut=    30.00 Ry     beta= 0.50
     Davidson diagonalization with overlap
     ethr =  1.00E-06,  avg # of iterations =  2.0

     Threshold (ethr) on eigenvalues was too large:
     Diagonalizing with lowered threshold

     Davidson diagonalization with overlap
     ethr =  2.71E-08,  avg # of iterations =  1.0

     total cpu time spent up to now is       55.4 secs

     total energy              =     -55.81162418 Ry
     estimated scf accuracy    <       0.00000232 Ry

     total magnetization       =     2.96 Bohr mag/cell
     absolute magnetization    =     3.05 Bohr mag/cell

     iteration #  2     ecut=    30.00 Ry     beta= 0.50
     Davidson diagonalization with overlap
     ethr =  2.90E-08,  avg # of iterations =  2.6

     total cpu time spent up to now is       56.2 secs

     total energy              =     -55.81162646 Ry
     estimated scf accuracy    <       0.00000339 Ry

     total magnetization       =     2.96 Bohr mag/cell
     absolute magnetization    =     3.05 Bohr mag/cell

     iteration #  3     ecut=    30.00 Ry     beta= 0.50
     Davidson diagonalization with overlap
     ethr =  2.90E-08,  avg # of iterations =  1.2

     total cpu time spent up to now is       56.8 secs

     total energy              =     -55.81162620 Ry
     estimated scf accuracy    <       0.00000062 Ry

     total magnetization       =     2.96 Bohr mag/cell
     absolute magnetization    =     3.05 Bohr mag/cell

     iteration #  4     ecut=    30.00 Ry     beta= 0.50
     Davidson diagonalization with overlap
     ethr =  7.76E-09,  avg # of iterations =  2.4

     total cpu time spent up to now is       57.8 secs

     total energy              =     -55.81162654 Ry
     estimated scf accuracy    <       0.00000063 Ry

     total magnetization       =     2.96 Bohr mag/cell
     absolute magnetization    =     3.05 Bohr mag/cell

     iteration #  5     ecut=    30.00 Ry     beta= 0.50
     Davidson diagonalization with overlap
     ethr =  7.76E-09,  avg # of iterations =  1.0

     total cpu time spent up to now is       58.8 secs

     total energy              =     -55.81162648 Ry
     estimated scf accuracy    <       0.00000019 Ry

     total magnetization       =     2.96 Bohr mag/cell
     absolute magnetization    =     3.05 Bohr mag/cell

     iteration #  6     ecut=    30.00 Ry     beta= 0.50
     Davidson diagonalization with overlap
     ethr =  2.36E-09,  avg # of iterations =  1.5

     total cpu time spent up to now is       59.6 secs

     total energy              =     -55.81162651 Ry
     estimated scf accuracy    <          2.1E-09 Ry

     total magnetization       =     2.96 Bohr mag/cell
     absolute magnetization    =     3.05 Bohr mag/cell

     iteration #  7     ecut=    30.00 Ry     beta= 0.50
     Davidson diagonalization with overlap
     ethr =  2.67E-11,  avg # of iterations =  3.1

     total cpu time spent up to now is       60.8 secs

     total energy              =     -55.81162651 Ry
     estimated scf accuracy    <          5.7E-09 Ry

     total magnetization       =     2.96 Bohr mag/cell
     absolute magnetization    =     3.05 Bohr mag/cell

     iteration #  8     ecut=    30.00 Ry     beta= 0.50
     Davidson diagonalization with overlap
     ethr =  2.67E-11,  avg # of iterations =  1.2

     total cpu time spent up to now is       61.9 secs

     total energy              =     -55.81162651 Ry
     estimated scf accuracy    <          1.8E-09 Ry

     total magnetization       =     2.96 Bohr mag/cell
     absolute magnetization    =     3.05 Bohr mag/cell

     iteration #  9     ecut=    30.00 Ry     beta= 0.50
     Davidson diagonalization with overlap
     ethr =  2.29E-11,  avg # of iterations =  2.0

     Magnetic moment per site  (integrated on atomic sphere of radius R)
     atom   1 (R=0.413)  charge=  6.3028  magn=  2.9659

     total cpu time spent up to now is       62.7 secs

     End of self-consistent calculation

 ------ SPIN UP ------------


          k = 0.0000 0.0000 0.0000 (   201 PWs)   bands (ev):

     4.0743   9.5174   9.5174   9.5174  10.7232  10.7232  35.9058  35.9058

          k = 0.2777 0.2777 0.0000 (   194 PWs)   bands (ev):

     7.0838   8.8175  10.0580  10.6518  10.8214  11.1806  23.1594  30.8356

          k = 0.5554 0.2777 0.2777 (   210 PWs)   bands (ev):

     8.3599   8.9716   8.9716  10.9140  10.9140  18.2620  18.2620  20.5101

          k =-0.0000-0.0000 0.5554 (   212 PWs)   bands (ev):

     8.0596   8.2921  10.5241  10.5241  11.0723  14.5537  24.7325  24.7325

 ------ SPIN DOWN ----------


          k = 0.0000 0.0000 0.0000 (   201 PWs)   bands (ev):

     4.3613  12.5427  12.5427  12.5427  14.2219  14.2219  35.7581  35.7581

          k = 0.2777 0.2777 0.0000 (   194 PWs)   bands (ev):

     7.9738  11.6185  12.0080  14.0386  14.3735  14.4886  24.4145  30.9788

          k = 0.5554 0.2777 0.2777 (   210 PWs)   bands (ev):

    10.7955  11.1422  11.1422  14.3418  14.3418  19.8228  19.8228  21.8325

          k =-0.0000-0.0000 0.5554 (   212 PWs)   bands (ev):

     9.8597  10.8943  13.5357  13.5357  14.3786  16.3641  25.6255  25.6255

     the Fermi energy is    12.0268 ev

!    total energy              =     -55.81162651 Ry
     estimated scf accuracy    <          2.2E-10 Ry
     smearing contrib. (-TS)   =      -0.00071790 Ry
     internal energy E=F+TS    =     -55.81090861 Ry

     The total energy is F=E-TS. E is the sum of the following terms:
     one-electron contribution =       5.95526926 Ry
     hartree contribution      =       6.97711439 Ry
     xc contribution           =     -26.47236546 Ry
     ewald contribution        =     -42.27092681 Ry

     total magnetization       =     2.96 Bohr mag/cell
     absolute magnetization    =     3.05 Bohr mag/cell

     convergence has been achieved in   9 iterations

     Forces acting on atoms (cartesian axes, Ry/au):

     atom    1 type  1   force =     0.00000000    0.00000000    0.00000000
     The non-local contrib.  to forces
     atom    1 type  1   force =     0.00000000    0.00000000    0.00000000
     The ionic contribution  to forces
     atom    1 type  1   force =    -0.00000000   -0.00000000   -0.00000000
     The local contribution  to forces
     atom    1 type  1   force =    -0.00000000   -0.00000000    0.00000000
     The core correction contribution to forces
     atom    1 type  1   force =    -0.00000000   -0.00000000   -0.00000000
     The Hubbard contrib.    to forces
     atom    1 type  1   force =     0.00000000    0.00000000    0.00000000
     The SCF correction term to forces
     atom    1 type  1   force =     0.00000000   -0.00000000   -0.00000000

     Total force =     0.000000     Total SCF correction =     0.000000


     Computing stress (Cartesian axis) and pressure

          total   stress  (Ry/bohr**3)                   (kbar)     P=       -0.44
  -0.00000302   0.00000000   0.00000000           -0.44        0.00        0.00
   0.00000000  -0.00000302   0.00000000            0.00       -0.44        0.00
   0.00000000   0.00000000  -0.00000302            0.00        0.00       -0.44

     Energy error            =      6.7E-09 Ry
     Gradient error          =      0.0E+00 Ry/Bohr
     Cell gradient error     =      4.4E-01 kbar

     bfgs converged in   6 scf cycles and   5 bfgs steps
     (criteria: energy <  1.0E-04 Ry, force <  1.0E-03 Ry/Bohr, cell <  5.0E-01 kbar)

     End of BFGS Geometry Optimization

     Final enthalpy           =     -55.8116265137 Ry

     File /home/gridsan/epan1/labutil/lab3_samples/problem1/Lab3/Fe_bcc_a_2.8046394196999995_ecut_30_nk_3/pwscf.bfgs deleted, as requested
Begin final coordinates
     new unit-cell volume =     83.64007 a.u.^3 (    12.39418 Ang^3 )
     density =      7.48196 g/cm^3

CELL_PARAMETERS (angstrom)
  -1.457871538   1.457871538   1.457871538
   1.457871538  -1.457871538   1.457871538
   1.457871538   1.457871538  -1.457871538

ATOMIC_POSITIONS (angstrom)
Fe            0.0000000000        0.0000000000        0.0000000000
End final coordinates



     Writing config-only to output data dir /home/gridsan/epan1/labutil/lab3_samples/problem1/Lab3/Fe_bcc_a_2.8046394196999995_ecut_30_nk_3/pwscf.save/

     Final scf calculation at the relaxed structure.
     The G-vectors are recalculated for the final unit cell
     Results may differ from those at the preceding step.

     Parallelization info
     --------------------
     sticks:   dense  smooth     PW     G-vecs:    dense   smooth      PW
     Min         102      51     16                 1319      466      91
     Max         103      52     17                 1321      467      93
     Sum         411     205     67                 5281     1865     369

     Using Slab Decomposition



     bravais-lattice index     =            0
     lattice parameter (alat)  =       4.5899  a.u.
     unit-cell volume          =      83.6401 (a.u.)^3
     number of atoms/cell      =            1
     number of atomic types    =            1
     number of electrons       =         8.00
     number of Kohn-Sham states=            8
     kinetic-energy cutoff     =      30.0000  Ry
     charge density cutoff     =     240.0000  Ry
     scf convergence threshold =      1.0E-09
     mixing beta               =       0.5000
     number of iterations used =            8  plain     mixing
     press convergence thresh. =      5.0E-01
     Exchange-correlation=  SLA  PW   PBE  PBE
                           (   1   4   3   4   0   0   0)

     celldm(1)=   4.589935  celldm(2)=   0.000000  celldm(3)=   0.000000
     celldm(4)=   0.000000  celldm(5)=   0.000000  celldm(6)=   0.000000

     crystal axes: (cart. coord. in units of alat)
               a(1) = (  -0.600222   0.600222   0.600222 )  
               a(2) = (   0.600222  -0.600222   0.600222 )  
               a(3) = (   0.600222   0.600222  -0.600222 )  

     reciprocal axes: (cart. coord. in units 2 pi/alat)
               b(1) = (  0.000000  0.833026  0.833026 )  
               b(2) = (  0.833026  0.000000  0.833026 )  
               b(3) = (  0.833026  0.833026  0.000000 )  


     PseudoPot. # 1 for Fe read from file:
     /home/gridsan/epan1/labutil/lab3_samples/pseudopotentials/Fe.pbe-nd-rrkjus.UPF
     MD5 check sum: 398036227a04b607635f6f5e8dfd8242
     Pseudo is Ultrasoft + core correction, Zval =  8.0
     Generated by new atomic code, or converted to UPF format
     Using radial grid of  957 points,  6 beta functions with: 
                l(1) =   0
                l(2) =   0
                l(3) =   1
                l(4) =   1
                l(5) =   2
                l(6) =   2
     Q(r) pseudized with 0 coefficients 


     atomic species   valence    mass     pseudopotential
        Fe             8.00    55.84500     Fe( 1.00)

     Starting magnetic structure 
     atomic species   magnetization
        Fe           0.471

     48 Sym. Ops., with inversion, found



   Cartesian axes

     site n.     atom                  positions (alat units)
         1           Fe  tau(   1) = (   0.0000000   0.0000000   0.0000000  )

     number of k points=     4  Methfessel-Paxton smearing, width (Ry)=  0.0200
                       cart. coord. in units 2pi/alat
        k(    1) = (   0.0000000   0.0000000   0.0000000), wk =   0.0370370
        k(    2) = (   0.2776752   0.2776752   0.0000000), wk =   0.4444444
        k(    3) = (   0.5553505   0.2776752   0.2776752), wk =   0.2962963
        k(    4) = (  -0.0000000  -0.0000000   0.5553505), wk =   0.2222222

     Dense  grid:     5281 G-vectors     FFT dimensions: (  24,  24,  24)

     Smooth grid:     1865 G-vectors     FFT dimensions: (  18,  18,  18)

     Estimated max dynamical RAM per process >       7.97 MB

     Estimated total dynamical RAM >      31.89 MB
     Generating pointlists ...

     Initial potential from superposition of free atoms

     starting charge       7.9994, renormalised to       8.0000
     Starting wfcs are    6 randomized atomic wfcs +    2 random wfcs

     total cpu time spent up to now is       66.1 secs

     Self-consistent Calculation

     iteration #  1     ecut=    30.00 Ry     beta= 0.50
     Davidson diagonalization with overlap
     c_bands:  1 eigenvalues not converged
     ethr =  1.00E-06,  avg # of iterations = 16.9

     total cpu time spent up to now is       68.3 secs

     total energy              =     -55.70352454 Ry
     estimated scf accuracy    <       0.29561794 Ry

     total magnetization       =     2.99 Bohr mag/cell
     absolute magnetization    =     2.99 Bohr mag/cell

     iteration #  2     ecut=    30.00 Ry     beta= 0.50
     Davidson diagonalization with overlap
     ethr =  3.70E-03,  avg # of iterations =  2.0

     total cpu time spent up to now is       69.4 secs

     total energy              =     -55.79714788 Ry
     estimated scf accuracy    <       0.04423729 Ry

     total magnetization       =     2.96 Bohr mag/cell
     absolute magnetization    =     2.97 Bohr mag/cell

     iteration #  3     ecut=    30.00 Ry     beta= 0.50
     Davidson diagonalization with overlap
     ethr =  5.53E-04,  avg # of iterations =  1.2

     total cpu time spent up to now is       70.0 secs

     total energy              =     -55.81016133 Ry
     estimated scf accuracy    <       0.00177714 Ry

     total magnetization       =     2.96 Bohr mag/cell
     absolute magnetization    =     2.99 Bohr mag/cell

     iteration #  4     ecut=    30.00 Ry     beta= 0.50
     Davidson diagonalization with overlap
     ethr =  2.22E-05,  avg # of iterations =  2.4

     total cpu time spent up to now is       71.0 secs

     total energy              =     -55.81178147 Ry
     estimated scf accuracy    <       0.00023985 Ry

     total magnetization       =     2.96 Bohr mag/cell
     absolute magnetization    =     3.04 Bohr mag/cell

     iteration #  5     ecut=    30.00 Ry     beta= 0.50
     Davidson diagonalization with overlap
     ethr =  3.00E-06,  avg # of iterations =  1.8

     total cpu time spent up to now is       71.9 secs

     total energy              =     -55.81189225 Ry
     estimated scf accuracy    <       0.00004231 Ry

     total magnetization       =     2.96 Bohr mag/cell
     absolute magnetization    =     3.05 Bohr mag/cell

     iteration #  6     ecut=    30.00 Ry     beta= 0.50
     Davidson diagonalization with overlap
     ethr =  5.29E-07,  avg # of iterations =  1.9

     total cpu time spent up to now is       72.6 secs

     total energy              =     -55.81190406 Ry
     estimated scf accuracy    <       0.00000115 Ry

     total magnetization       =     2.96 Bohr mag/cell
     absolute magnetization    =     3.05 Bohr mag/cell

     iteration #  7     ecut=    30.00 Ry     beta= 0.50
     Davidson diagonalization with overlap
     ethr =  1.44E-08,  avg # of iterations =  4.4

     total cpu time spent up to now is       73.6 secs

     total energy              =     -55.81190703 Ry
     estimated scf accuracy    <          5.2E-09 Ry

     total magnetization       =     2.96 Bohr mag/cell
     absolute magnetization    =     3.05 Bohr mag/cell

     iteration #  8     ecut=    30.00 Ry     beta= 0.50
     Davidson diagonalization with overlap
     ethr =  6.44E-11,  avg # of iterations =  6.2

     Magnetic moment per site  (integrated on atomic sphere of radius R)
     atom   1 (R=0.413)  charge=  6.3029  magn=  2.9660

     total cpu time spent up to now is       74.5 secs

     End of self-consistent calculation

 ------ SPIN UP ------------


          k = 0.0000 0.0000 0.0000 (   225 PWs)   bands (ev):

     4.0745   9.5135   9.5135   9.5135  10.7200  10.7200  35.9050  35.9050

          k = 0.2777 0.2777 0.0000 (   241 PWs)   bands (ev):

     7.0824   8.8132  10.0559  10.6479  10.8169  11.1764  23.1577  30.8345

          k = 0.5554 0.2777 0.2777 (   228 PWs)   bands (ev):

     8.3571   8.9690   8.9690  10.9103  10.9103  18.2605  18.2605  20.5101

          k =-0.0000-0.0000 0.5554 (   233 PWs)   bands (ev):

     8.0575   8.2892  10.5204  10.5204  11.0684  14.5528  24.7325  24.7325

 ------ SPIN DOWN ----------


          k = 0.0000 0.0000 0.0000 (   225 PWs)   bands (ev):

     4.3613  12.5386  12.5386  12.5386  14.2182  14.2182  35.7571  35.7571

          k = 0.2777 0.2777 0.0000 (   241 PWs)   bands (ev):

     7.9730  11.6137  12.0047  14.0341  14.3679  14.4842  24.4125  30.9772

          k = 0.5554 0.2777 0.2777 (   228 PWs)   bands (ev):

    10.7930  11.1400  11.1400  14.3377  14.3377  19.8202  19.8202  21.8323

          k =-0.0000-0.0000 0.5554 (   233 PWs)   bands (ev):

     9.8578  10.8911  13.5321  13.5321  14.3746  16.3623  25.6253  25.6253

     the Fermi energy is    12.0236 ev

!    total energy              =     -55.81190723 Ry
     estimated scf accuracy    <          6.2E-10 Ry
     smearing contrib. (-TS)   =      -0.00072072 Ry
     internal energy E=F+TS    =     -55.81118651 Ry

     The total energy is F=E-TS. E is the sum of the following terms:
     one-electron contribution =       5.95485855 Ry
     hartree contribution      =       6.97600433 Ry
     xc contribution           =     -26.47112261 Ry
     ewald contribution        =     -42.27092678 Ry

     total magnetization       =     2.96 Bohr mag/cell
     absolute magnetization    =     3.05 Bohr mag/cell

     convergence has been achieved in   8 iterations

     Forces acting on atoms (cartesian axes, Ry/au):

     atom    1 type  1   force =     0.00000000    0.00000000    0.00000000
     The non-local contrib.  to forces
     atom    1 type  1   force =     0.00000000    0.00000000    0.00000000
     The ionic contribution  to forces
     atom    1 type  1   force =    -0.00000000   -0.00000000   -0.00000000
     The local contribution  to forces
     atom    1 type  1   force =    -0.00000000    0.00000000   -0.00000000
     The core correction contribution to forces
     atom    1 type  1   force =    -0.00000000    0.00000000   -0.00000000
     The Hubbard contrib.    to forces
     atom    1 type  1   force =     0.00000000    0.00000000    0.00000000
     The SCF correction term to forces
     atom    1 type  1   force =     0.00000000    0.00000000   -0.00000000

     Total force =     0.000000     Total SCF correction =     0.000000


     Computing stress (Cartesian axis) and pressure

          total   stress  (Ry/bohr**3)                   (kbar)     P=       -8.47
  -0.00005758  -0.00000000  -0.00000000           -8.47       -0.00       -0.00
  -0.00000000  -0.00005758  -0.00000000           -0.00       -8.47       -0.00
  -0.00000000  -0.00000000  -0.00005758           -0.00       -0.00       -8.47


     init_run     :      1.21s CPU      2.85s WALL (       2 calls)
     electrons    :     27.19s CPU     58.60s WALL (       7 calls)
     update_pot   :      0.78s CPU      1.63s WALL (       5 calls)
     forces       :      1.33s CPU      3.05s WALL (       7 calls)
     stress       :      3.01s CPU      6.42s WALL (       7 calls)

     Called by init_run:
     wfcinit      :      0.13s CPU      0.25s WALL (       2 calls)
     potinit      :      0.21s CPU      0.47s WALL (       2 calls)
     hinit0       :      0.70s CPU      1.69s WALL (       2 calls)

     Called by electrons:
     c_bands      :     15.22s CPU     34.17s WALL (      79 calls)
     sum_band     :      4.31s CPU      8.75s WALL (      79 calls)
     v_of_rho     :      3.29s CPU      6.75s WALL (      84 calls)
     newd         :      1.07s CPU      2.43s WALL (      84 calls)
     mix_rho      :      1.89s CPU      3.42s WALL (      79 calls)

     Called by c_bands:
     init_us_2    :      0.05s CPU      0.05s WALL (    1392 calls)
     init_us_2:cp :      0.04s CPU      0.04s WALL (    1392 calls)
     cegterg      :     10.98s CPU     22.49s WALL (     632 calls)

     Called by *egterg:
     cdiaghg      :      0.25s CPU      0.39s WALL (    2068 calls)
     h_psi        :      8.44s CPU     17.41s WALL (    2140 calls)
     s_psi        :      0.02s CPU      0.02s WALL (    2140 calls)
     g_psi        :      0.00s CPU      0.00s WALL (    1492 calls)

     Called by h_psi:
     h_psi:calbec :      0.87s CPU      1.71s WALL (    2140 calls)
     vloc_psi     :      7.53s CPU     15.62s WALL (    2140 calls)
     add_vuspsi   :      0.02s CPU      0.02s WALL (    2140 calls)

     General routines
     calbec       :      2.04s CPU      4.34s WALL (    3052 calls)
     fft          :      3.71s CPU      7.85s WALL (    2375 calls)
     ffts         :      0.24s CPU      0.48s WALL (     326 calls)
     fftw         :      9.39s CPU     19.27s WALL (   31018 calls)
     interpolate  :      0.28s CPU      0.56s WALL (     168 calls)

     Parallel routines

     PWSCF        :     34.53s CPU   1m15.59s WALL


   This run was terminated on:  17: 5:34   1Nov2023            

=------------------------------------------------------------------------------=
   JOB DONE.
=------------------------------------------------------------------------------=
