LAMMPS (29 Oct 2020)
Reading data file ...
  orthogonal box = (0.0000000 0.0000000 0.0000000) to (7.6000000 7.6000000 7.6000000)
  1 by 1 by 1 MPI processor grid
  reading atoms ...
  32 atoms
  read_data CPU = 0.001 seconds
Reading eam potential file /home/gridsan/epan1/3320_atomistic_shared/lammps/potentials/Ag_u3.eam with DATE: 2007-06-11
WARNING: No fixes defined, atoms won't move (../verlet.cpp:54)
Neighbor list info ...
  update every 1 steps, delay 10 steps, check yes
  max neighbors/atom: 2000, page size: 100000
  master list distance cutoff = 7.55
  ghost atom cutoff = 7.55
  binsize = 3.775, bins = 3 3 3
  1 neighbor lists, perpetual/occasional/extra = 1 0 0
  (1) pair eam, perpetual
      attributes: half, newton on
      pair build: half/bin/atomonly/newton
      stencil: half/bin/3d/newton
      bin: standard
Setting up Verlet run ...
  Unit style    : metal
  Current step  : 0
  Time step     : 0.001
Per MPI rank memory allocation (min/avg/max) = 3.331 | 3.331 | 3.331 Mbytes
Step Temp E_pair E_mol TotEng Press 
       0            0   -80.588537            0   -80.588537    386510.79 
Loop time of 9.53674e-07 on 1 procs for 0 steps with 32 atoms

0.0% CPU use with 1 MPI tasks x no OpenMP threads

MPI task timing breakdown:
Section |  min time  |  avg time  |  max time  |%varavg| %total
---------------------------------------------------------------
Pair    | 0          | 0          | 0          |   0.0 |  0.00
Neigh   | 0          | 0          | 0          |   0.0 |  0.00
Comm    | 0          | 0          | 0          |   0.0 |  0.00
Output  | 0          | 0          | 0          |   0.0 |  0.00
Modify  | 0          | 0          | 0          |   0.0 |  0.00
Other   |            | 9.537e-07  |            |       |100.00

Nlocal:        32.0000 ave          32 max          32 min
Histogram: 1 0 0 0 0 0 0 0 0 0
Nghost:        633.000 ave         633 max         633 min
Histogram: 1 0 0 0 0 0 0 0 0 0
Neighs:        2144.00 ave        2144 max        2144 min
Histogram: 1 0 0 0 0 0 0 0 0 0

Total # of neighbors = 2144
Ave neighs/atom = 67.000000
Neighbor list builds = 0
Dangerous builds = 0
WARNING: Using 'neigh_modify every 1 delay 0 check yes' setting during minimization (../min.cpp:187)
Setting up cg style minimization ...
  Unit style    : metal
  Current step  : 0
WARNING: Energy due to 1 extra global DOFs will be included in minimizer energies
Per MPI rank memory allocation (min/avg/max) = 4.456 | 4.456 | 4.456 Mbytes
Step Temp E_pair E_mol TotEng Press Volume 
       0            0   -80.588537            0   -80.588537    386510.79      438.976 
      78            0        -91.2            0        -91.2 -0.018467818    547.34341 
Loop time of 0.00523305 on 1 procs for 78 steps with 32 atoms

99.8% CPU use with 1 MPI tasks x no OpenMP threads

Minimization stats:
  Stopping criterion = energy tolerance
  Energy initial, next-to-last, final = 
     -80.5885371697284   -91.200000048208  -91.2000000501188
  Force two-norm initial, final = 317.69713 1.7585174e-05
  Force max component initial, final = 317.69713 1.7585174e-05
  Final line search alpha, max atom move = 0.30824515 5.4205446e-06
  Iterations, force evaluations = 78 80

MPI task timing breakdown:
Section |  min time  |  avg time  |  max time  |%varavg| %total
---------------------------------------------------------------
Pair    | 0.0042293  | 0.0042293  | 0.0042293  |   0.0 | 80.82
Neigh   | 5.1022e-05 | 5.1022e-05 | 5.1022e-05 |   0.0 |  0.97
Comm    | 0.00019956 | 0.00019956 | 0.00019956 |   0.0 |  3.81
Output  | 0          | 0          | 0          |   0.0 |  0.00
Modify  | 0          | 0          | 0          |   0.0 |  0.00
Other   |            | 0.0007532  |            |       | 14.39

Nlocal:        32.0000 ave          32 max          32 min
Histogram: 1 0 0 0 0 0 0 0 0 0
Nghost:        633.000 ave         633 max         633 min
Histogram: 1 0 0 0 0 0 0 0 0 0
Neighs:        1376.00 ave        1376 max        1376 min
Histogram: 1 0 0 0 0 0 0 0 0 0

Total # of neighbors = 1376
Ave neighs/atom = 43.000000
Neighbor list builds = 1
Dangerous builds = 0
Total energy (eV) = -91.2000000501188
Number of atoms = 32
Lattice constant (Angstoms) = 8.17999989571084
Total wall time: 0:00:00
