LAMMPS (29 Oct 2020)
Reading data file ...
  orthogonal box = (0.0000000 0.0000000 0.0000000) to (20.500000 20.500000 20.500000)
  1 by 1 by 1 MPI processor grid
  reading atoms ...
  500 atoms
  read_data CPU = 0.001 seconds
Reading eam potential file /home/gridsan/epan1/3320_atomistic_shared/lammps/potentials/Ag_u3.eam with DATE: 2007-06-11
Neighbor list info ...
  update every 1 steps, delay 10 steps, check yes
  max neighbors/atom: 2000, page size: 100000
  master list distance cutoff = 7.55
  ghost atom cutoff = 7.55
  binsize = 3.775, bins = 6 6 6
  2 neighbor lists, perpetual/occasional/extra = 1 1 0
  (1) pair eam, perpetual
      attributes: half, newton on
      pair build: half/bin/atomonly/newton
      stencil: half/bin/3d/newton
      bin: standard
  (2) compute rdf, occasional, copy from (1)
      attributes: half, newton on
      pair build: copy
      stencil: none
      bin: none
Setting up Verlet run ...
  Unit style    : metal
  Current step  : 0
  Time step     : 0.001
Per MPI rank memory allocation (min/avg/max) = 3.769 | 3.769 | 3.769 Mbytes
Step PotEng KinEng TotEng Temp Press Density c_msdall[4] 
       0   -1424.8524    19.350244   -1405.5022          300   -5066.0378    10.395806            0 
     100   -1414.2432    8.7418178   -1405.5014    135.53035    1459.4807    10.395806  0.014775302 
     200    -1416.931    11.429769   -1405.5013    177.20348    113.83764    10.395806  0.010243102 
     300   -1415.6257    10.124505   -1405.5012     156.9671    859.13289    10.395806  0.011157361 
     400   -1415.2961    9.7950164    -1405.501    151.85881     1195.652    10.395806  0.010684447 
     500   -1414.8808    9.3798396    -1405.501    145.42204    1473.8938    10.395806  0.010732811 
     600   -1415.5012    10.000154    -1405.501     155.0392    1168.8421    10.395806 0.0096329804 
     700   -1414.2208    8.7199003   -1405.5009    135.19055    1857.0594    10.395806  0.012252241 
     800   -1416.6615    11.160346   -1405.5012    173.02644    400.71028    10.395806   0.00947225 
     900   -1414.2712    8.7701947    -1405.501     135.9703    1757.3555    10.395806   0.01251484 
    1000   -1415.9321    10.431003    -1405.501    161.71894    808.11817    10.395806   0.00974544 
    1100   -1415.2461    9.7450603    -1405.501     151.0843    1277.2078    10.395806  0.010542754 
    1200   -1414.4881    8.9872078   -1405.5009     139.3348    1784.1135    10.395806  0.011222554 
    1300   -1414.4235    8.9226278   -1405.5009    138.33357    1792.1382    10.395806  0.012202294 
    1400   -1415.4021    9.9011181    -1405.501    153.50377    1171.1785    10.395806  0.010635605 
    1500    -1414.056    8.5551837   -1405.5008    132.63684    2033.3979    10.395806  0.011842902 
    1600   -1415.3839    9.8828485    -1405.501    153.22053     1167.342    10.395806  0.010832665 
    1700   -1415.6271    10.126031   -1405.5011    156.99076    931.80037    10.395806  0.010807429 
    1800   -1415.3054    9.8043901   -1405.5011    152.00413     1140.841    10.395806  0.010522866 
    1900   -1416.2291    10.727977   -1405.5012    166.32313    507.13032    10.395806  0.010303517 
    2000   -1415.1458    9.6447767   -1405.5011    149.52954    1234.1571    10.395806  0.012414825 
    2100   -1415.6499    10.148876   -1405.5011    157.34493    878.31934    10.395806  0.010891472 
    2200   -1415.7123    10.211266    -1405.501    158.31221      995.672    10.395806 0.0093224703 
    2300   -1414.1462    8.6453249   -1405.5009    134.03436    1944.1998    10.395806  0.011349394 
    2400   -1415.8042    10.303131    -1405.501    159.73646    932.76469    10.395806  0.010796806 
    2500   -1414.2343    8.7334176   -1405.5009    135.40012    1916.7936    10.395806  0.012289592 
    2600   -1415.0056    9.5047004   -1405.5009    147.35784    1447.2624    10.395806  0.010302845 
    2700   -1415.3976    9.8966175    -1405.501      153.434    1160.8262    10.395806  0.010145355 
    2800   -1415.2889    9.7879167    -1405.501    151.74874    1203.2479    10.395806    0.0103312 
    2900   -1415.3158    9.8147316   -1405.5011    152.16447    1120.4272    10.395806   0.01115603 
    3000   -1416.1262     10.62505   -1405.5011    164.72738    671.36085    10.395806  0.010950766 
    3100   -1414.7883    9.2873371    -1405.501    143.98791    1513.5951    10.395806  0.011506934 
    3200   -1415.0534    9.5523739    -1405.501    148.09695    1390.8169    10.395806  0.010701554 
    3300   -1415.6079     10.10688    -1405.501    156.69384    1033.3168    10.395806  0.010012677 
    3400   -1414.8878    9.3868711    -1405.501    145.53105    1484.6049    10.395806  0.011218987 
    3500   -1415.0036    9.5025665    -1405.501    147.32476    1377.2929    10.395806  0.012039405 
    3600   -1415.6129    10.111907    -1405.501    156.77178    1056.9822    10.395806  0.009805336 
    3700   -1414.3028    8.8018601   -1405.5009    136.46123    1820.3967    10.395806  0.011793258 
    3800   -1416.6422    11.141057   -1405.5012    172.72739    327.22839    10.395806 0.0098394049 
    3900   -1414.7163    9.2153236    -1405.501    142.87143    1514.1473    10.395806  0.011589975 
    4000   -1414.9262    9.4252727   -1405.5009    146.12642    1436.7759    10.395806  0.011153026 
    4100   -1415.3866    9.8856041    -1405.501    153.26325    1153.8403    10.395806  0.010569228 
    4200   -1415.0303    9.5293439    -1405.501    147.73991    1332.3772    10.395806  0.011643327 
    4300    -1414.972    9.4710634    -1405.501    146.83634    1402.2925    10.395806  0.011851581 
    4400   -1415.2325    9.7314981    -1405.501    150.87404    1276.6269    10.395806  0.010445677 
    4500   -1414.8399    9.3389886    -1405.501     144.7887    1469.9436    10.395806  0.010671979 
    4600   -1415.8596    10.358582   -1405.5011    160.59614     845.8859    10.395806  0.010574927 
    4700   -1414.7494    9.2484105    -1405.501     143.3844    1509.3169    10.395806  0.012812151 
    4800   -1415.6252    10.124212    -1405.501    156.96256    1014.2551    10.395806  0.010585859 
    4900    -1414.872    9.3709784    -1405.501    145.28466    1449.1075    10.395806  0.011365642 
    5000   -1415.4139    9.9129059    -1405.501    153.68653    1133.9799    10.395806  0.010485336 
    5100   -1415.2318    9.7308193    -1405.501    150.86351    1246.2737    10.395806  0.010952778 
    5200   -1415.3687    9.8676765    -1405.501    152.98531    1150.9467    10.395806   0.01167631 
    5300   -1414.7983    9.2973303    -1405.501    144.14284    1507.7383    10.395806  0.012296242 
    5400   -1415.2006    9.6996234    -1405.501    150.37986    1272.7298    10.395806  0.010506321 
    5500   -1415.4031    9.9021215    -1405.501    153.51933      1166.46    10.395806  0.010111463 
    5600   -1414.7224    9.2214455   -1405.5009    142.96635    1534.1467    10.395806  0.011568889 
    5700   -1415.5817    10.080715    -1405.501    156.28819    1016.6455    10.395806  0.011310484 
    5800   -1414.5819    9.0809143    -1405.501     140.7876    1603.1289    10.395806  0.012478406 
    5900   -1415.6643    10.163255    -1405.501    157.56786    962.47468    10.395806 0.0099432839 
    6000   -1415.3094    9.8083552    -1405.501    152.06561     1211.894    10.395806  0.010660103 
    6100    -1414.557    9.0560569   -1405.5009    140.40221    1641.6343    10.395806  0.012201292 
    6200   -1415.8876    10.386575   -1405.5011    161.03014    829.76998    10.395806  0.010394534 
    6300   -1415.0683    9.5672996    -1405.501    148.32836    1295.9629    10.395806   0.01170007 
    6400   -1415.1229    9.6218945    -1405.501    149.17478    1334.2512    10.395806  0.010762455 
    6500   -1415.1843    9.6833525    -1405.501    150.12761    1312.6489    10.395806  0.010487342 
    6600   -1414.8868    9.3858397    -1405.501    145.51506    1474.5827    10.395806  0.011148517 
    6700   -1415.1787    9.6776852    -1405.501    150.03974    1287.3149    10.395806  0.010775242 
    6800   -1415.4869    9.9858477    -1405.501    154.81739    1098.2653    10.395806   0.01099298 
    6900   -1414.7124    9.2114193    -1405.501     142.8109    1553.9748    10.395806  0.011704141 
    7000   -1415.1657    9.6646968    -1405.501    149.83837     1295.777    10.395806  0.010996793 
    7100   -1415.1602     9.659239    -1405.501    149.75376    1265.2559    10.395806  0.011437768 
    7200   -1415.3771    9.8760547    -1405.501     153.1152    1134.6561    10.395806  0.010836345 
    7300   -1415.3122    9.8111407    -1405.501    152.10879    1152.4528    10.395806  0.010813734 
    7400    -1415.554    10.052962   -1405.5011    155.85792    1008.9706    10.395806   0.01119319 
    7500   -1415.0324    9.5314247    -1405.501    147.77217     1306.816    10.395806  0.012084701 
    7600   -1415.7683    10.267237   -1405.5011    159.17996    852.42022    10.395806  0.010669056 
    7700   -1415.1347    9.6337426    -1405.501    149.35847    1251.4498    10.395806  0.010808571 
    7800   -1415.1655     9.664514    -1405.501    149.83554    1269.0906    10.395806   0.01118016 
    7900   -1415.0134    9.5124069    -1405.501    147.47732    1309.5292    10.395806  0.012370602 
    8000   -1415.4943    9.9932439    -1405.501    154.93206    1022.1668    10.395806  0.011348308 
    8100   -1415.3118    9.8108145    -1405.501    152.10374    1124.3428    10.395806  0.010858675 
    8200   -1415.5632    10.062175   -1405.5011    156.00074    994.65038    10.395806  0.010383435 
    8300   -1415.2383    9.7372677    -1405.501    150.96349    1162.2992    10.395806  0.011205412 
    8400   -1415.4246     9.923574    -1405.501    153.85192    1128.4338    10.395806  0.011302898 
    8500    -1415.009    9.5080466    -1405.501    147.40972    1343.2731    10.395806  0.012144272 
    8600   -1415.5038    10.002807    -1405.501    155.08032    1065.3748    10.395806  0.010652218 
    8700   -1415.0704    9.5693945    -1405.501    148.36084     1349.005    10.395806  0.010724672 
    8800    -1415.246    9.7449777    -1405.501    151.08302    1271.2681    10.395806   0.01103009 
    8900   -1415.0966     9.595639    -1405.501    148.76772     1280.615    10.395806  0.011803896 
    9000   -1415.2862    9.7851888    -1405.501    151.70644    1205.8952    10.395806   0.01136907 
    9100   -1414.9115    9.4105436    -1405.501    145.89806    1397.5963    10.395806  0.011662233 
    9200   -1415.3371     9.836135    -1405.501     152.4963    1189.0907    10.395806  0.011131042 
    9300   -1415.3271    9.8260558    -1405.501    152.34003    1147.8549    10.395806  0.011156656 
    9400   -1415.2565    9.7555124    -1405.501    151.24635    1228.1349    10.395806  0.011575298 
    9500   -1414.9525    9.4515215    -1405.501    146.53337    1367.7614    10.395806   0.01175423 
    9600   -1415.4873    9.9862676    -1405.501     154.8239    1085.3773    10.395806  0.010807417 
    9700   -1414.9857    9.4847132    -1405.501    147.04796    1335.3123    10.395806  0.012298007 
    9800    -1415.248     9.747019    -1405.501    151.11467    1238.9915    10.395806  0.011276912 
    9900   -1415.3143    9.8132444    -1405.501    152.14141    1159.5946    10.395806  0.010681344 
   10000   -1415.6068    10.105739    -1405.501    156.67615     988.9596    10.395806  0.010824368 
Loop time of 11.9679 on 1 procs for 10000 steps with 500 atoms

Performance: 72.193 ns/day, 0.332 hours/ns, 835.568 timesteps/s
98.7% CPU use with 1 MPI tasks x no OpenMP threads

MPI task timing breakdown:
Section |  min time  |  avg time  |  max time  |%varavg| %total
---------------------------------------------------------------
Pair    | 7.9523     | 7.9523     | 7.9523     |   0.0 | 66.45
Neigh   | 0          | 0          | 0          |   0.0 |  0.00
Comm    | 0.10788    | 0.10788    | 0.10788    |   0.0 |  0.90
Output  | 0.004843   | 0.004843   | 0.004843   |   0.0 |  0.04
Modify  | 3.8708     | 3.8708     | 3.8708     |   0.0 | 32.34
Other   |            | 0.03204    |            |       |  0.27

Nlocal:        500.000 ave         500 max         500 min
Histogram: 1 0 0 0 0 0 0 0 0 0
Nghost:        1956.00 ave        1956 max        1956 min
Histogram: 1 0 0 0 0 0 0 0 0 0
Neighs:        21500.0 ave       21500 max       21500 min
Histogram: 1 0 0 0 0 0 0 0 0 0

Total # of neighbors = 21500
Ave neighs/atom = 43.000000
Neighbor list builds = 0
Dangerous builds = 0
Total wall time: 0:00:12
