
     Program PWSCF v.7.2 starts on  3Nov2023 at 10:52:27 

     This program is part of the open-source Quantum ESPRESSO suite
     for quantum simulation of materials; please cite
         "P. Giannozzi et al., J. Phys.:Condens. Matter 21 395502 (2009);
         "P. Giannozzi et al., J. Phys.:Condens. Matter 29 465901 (2017);
         "P. Giannozzi et al., J. Chem. Phys. 152 154105 (2020);
          URL http://www.quantum-espresso.org", 
     in publications or presentations arising from this work. More details at
     http://www.quantum-espresso.org/quote

     Parallel version (MPI), running on     8 processors

     MPI processes distributed on     8 nodes
     185905 MiB available memory on the printing compute node when the environment starts

     Waiting for input...
     Reading input from standard input

     Current dimensions of program PWSCF are:
     Max number of different atomic species (ntypx) = 10
     Max number of k-points (npk) =  40000
     Max angular momentum in pseudopotentials (lmaxx) =  4
     file Cu.pz-d-rrkjus.UPF: wavefunction(s)  3D renormalized
     Message from routine setup:
     using ibrav=0 with symmetry is DISCOURAGED, use correct ibrav instead

     R & G space division:  proc/nbgrp/npool/nimage =       8
     Subspace diagonalization in iterative solution of the eigenvalue problem:
     a serial algorithm will be used


     Parallelization info
     --------------------
     sticks:   dense  smooth     PW     G-vecs:    dense   smooth      PW
     Min          59      30     10                  858      305      57
     Max          60      31     11                  861      308      58
     Sum         475     241     85                 6879     2445     459

     Using Slab Decomposition



     bravais-lattice index     =            0
     lattice parameter (alat)  =       4.6768  a.u.
     unit-cell volume          =      72.3337 (a.u.)^3
     number of atoms/cell      =            1
     number of atomic types    =            1
     number of electrons       =        11.00
     number of Kohn-Sham states=           10
     kinetic-energy cutoff     =      40.0000  Ry
     charge density cutoff     =     320.0000  Ry
     scf convergence threshold =      1.0E-07
     mixing beta               =       0.5000
     number of iterations used =            8  plain     mixing
     energy convergence thresh.=      1.0E-04
     force convergence thresh. =      1.0E-03
     press convergence thresh. =      5.0E-01
     Exchange-correlation=  SLA  PZ   NOGX NOGC
                           (   1   1   0   0   0   0   0)
     nstep                     =           50


     celldm(1)=   4.676834  celldm(2)=   0.000000  celldm(3)=   0.000000
     celldm(4)=   0.000000  celldm(5)=   0.000000  celldm(6)=   0.000000

     crystal axes: (cart. coord. in units of alat)
               a(1) = (   0.000000   0.707107   0.707107 )  
               a(2) = (   0.707107   0.000000   0.707107 )  
               a(3) = (   0.707107   0.707107   0.000000 )  

     reciprocal axes: (cart. coord. in units 2 pi/alat)
               b(1) = ( -0.707107  0.707107  0.707107 )  
               b(2) = (  0.707107 -0.707107  0.707107 )  
               b(3) = (  0.707107  0.707107 -0.707107 )  


     PseudoPot. # 1 for Cu read from file:
     /home/gridsan/epan1/labutil/lab3_samples/pseudopotentials/Cu.pz-d-rrkjus.UPF
     MD5 check sum: fd38ae683e239c95a66f426e1f8e5fc7
     Pseudo is Ultrasoft, Zval = 11.0
     Generated by new atomic code, or converted to UPF format
     Using radial grid of  899 points,  3 beta functions with: 
                l(1) =   2
                l(2) =   2
                l(3) =   1
     Q(r) pseudized with 0 coefficients 


     atomic species   valence    mass     pseudopotential
        Cu            11.00    63.54600     Cu( 1.00)

     Starting magnetic structure 
     atomic species   magnetization
        Cu           0.700

     48 Sym. Ops., with inversion, found



   Cartesian axes

     site n.     atom                  positions (alat units)
         1           Cu  tau(   1) = (   0.0000000   0.0000000   0.0000000  )

     number of k points=     3  Methfessel-Paxton smearing, width (Ry)=  0.0200
                       cart. coord. in units 2pi/alat
        k(    1) = (   0.0000000   0.0000000   0.0000000), wk =   0.1250000
        k(    2) = (  -0.3535534  -0.3535534   0.3535534), wk =   0.5000000
        k(    3) = (  -0.7071068   0.0000000   0.0000000), wk =   0.3750000

     Dense  grid:     6879 G-vectors     FFT dimensions: (  27,  27,  27)

     Smooth grid:     2445 G-vectors     FFT dimensions: (  20,  20,  20)

     Estimated max dynamical RAM per process >       3.40 MB

     Estimated total dynamical RAM >      27.21 MB
     Generating pointlists ...
     new r_m :   0.4125 (alat units)  1.9292 (a.u.) for type    1

     Initial potential from superposition of free atoms

     starting charge      10.9997, renormalised to      11.0000
     Starting wfcs are    6 randomized atomic wfcs +    4 random wfcs

     total cpu time spent up to now is        0.3 secs

     Self-consistent Calculation

     iteration #  1     ecut=    40.00 Ry     beta= 0.50
     Davidson diagonalization with overlap
     ethr =  1.00E-02,  avg # of iterations =  8.0

     total cpu time spent up to now is        0.4 secs

     total energy              =     -86.51630278 Ry
     estimated scf accuracy    <       1.77517607 Ry

     total magnetization       =     2.66 Bohr mag/cell
     absolute magnetization    =     2.68 Bohr mag/cell

     iteration #  2     ecut=    40.00 Ry     beta= 0.50
     Davidson diagonalization with overlap
     ethr =  1.00E-02,  avg # of iterations =  2.0

     total cpu time spent up to now is        0.4 secs

     total energy              =     -87.42065990 Ry
     estimated scf accuracy    <       1.24914990 Ry

     total magnetization       =     0.25 Bohr mag/cell
     absolute magnetization    =     0.33 Bohr mag/cell

     iteration #  3     ecut=    40.00 Ry     beta= 0.50
     Davidson diagonalization with overlap
     ethr =  1.00E-02,  avg # of iterations =  1.0

     negative rho (up, down):  6.191E-07 1.025E-06

     total cpu time spent up to now is        0.4 secs

     total energy              =     -87.56916516 Ry
     estimated scf accuracy    <       0.47827321 Ry

     total magnetization       =     0.25 Bohr mag/cell
     absolute magnetization    =     0.26 Bohr mag/cell

     iteration #  4     ecut=    40.00 Ry     beta= 0.50
     Davidson diagonalization with overlap
     ethr =  4.35E-03,  avg # of iterations =  2.3

     negative rho (up, down):  3.251E-06 1.861E-06

     total cpu time spent up to now is        0.4 secs

     total energy              =     -87.66028441 Ry
     estimated scf accuracy    <       1.22928212 Ry

     total magnetization       =    -1.00 Bohr mag/cell
     absolute magnetization    =     1.04 Bohr mag/cell

     iteration #  5     ecut=    40.00 Ry     beta= 0.50
     Davidson diagonalization with overlap
     ethr =  4.35E-03,  avg # of iterations =  1.8

     negative rho (up, down):  9.088E-07 1.394E-08

     total cpu time spent up to now is        0.5 secs

     total energy              =     -87.58758254 Ry
     estimated scf accuracy    <       0.38821762 Ry

     total magnetization       =    -1.02 Bohr mag/cell
     absolute magnetization    =     1.02 Bohr mag/cell

     iteration #  6     ecut=    40.00 Ry     beta= 0.50
     Davidson diagonalization with overlap
     ethr =  3.53E-03,  avg # of iterations =  1.2

     negative rho (up, down):  6.649E-08 0.000E+00

     total cpu time spent up to now is        0.5 secs

     total energy              =     -87.68315043 Ry
     estimated scf accuracy    <       0.00136417 Ry

     total magnetization       =    -0.27 Bohr mag/cell
     absolute magnetization    =     0.27 Bohr mag/cell

     iteration #  7     ecut=    40.00 Ry     beta= 0.50
     Davidson diagonalization with overlap
     ethr =  1.24E-05,  avg # of iterations =  3.2

     total cpu time spent up to now is        0.5 secs

     total energy              =     -87.68480134 Ry
     estimated scf accuracy    <       0.01758059 Ry

     total magnetization       =    -0.21 Bohr mag/cell
     absolute magnetization    =     0.23 Bohr mag/cell

     iteration #  8     ecut=    40.00 Ry     beta= 0.50
     Davidson diagonalization with overlap
     ethr =  1.24E-05,  avg # of iterations =  1.0

     total cpu time spent up to now is        0.6 secs

     total energy              =     -87.68618974 Ry
     estimated scf accuracy    <       0.01750057 Ry

     total magnetization       =    -0.23 Bohr mag/cell
     absolute magnetization    =     0.26 Bohr mag/cell

     iteration #  9     ecut=    40.00 Ry     beta= 0.50
     Davidson diagonalization with overlap
     ethr =  1.24E-05,  avg # of iterations =  2.3

     total cpu time spent up to now is        0.6 secs

     total energy              =     -87.68104286 Ry
     estimated scf accuracy    <       0.02497869 Ry

     total magnetization       =    -0.18 Bohr mag/cell
     absolute magnetization    =     0.18 Bohr mag/cell

     iteration # 10     ecut=    40.00 Ry     beta= 0.50
     Davidson diagonalization with overlap
     ethr =  1.24E-05,  avg # of iterations =  2.0

     total cpu time spent up to now is        0.6 secs

     total energy              =     -87.68279879 Ry
     estimated scf accuracy    <       0.00398319 Ry

     total magnetization       =    -0.41 Bohr mag/cell
     absolute magnetization    =     0.41 Bohr mag/cell

     iteration # 11     ecut=    40.00 Ry     beta= 0.50
     Davidson diagonalization with overlap
     ethr =  1.24E-05,  avg # of iterations =  1.0

     total cpu time spent up to now is        0.6 secs

     total energy              =     -87.68164542 Ry
     estimated scf accuracy    <       0.00548364 Ry

     total magnetization       =    -0.36 Bohr mag/cell
     absolute magnetization    =     0.36 Bohr mag/cell

     iteration # 12     ecut=    40.00 Ry     beta= 0.50
     Davidson diagonalization with overlap
     ethr =  1.24E-05,  avg # of iterations =  1.5

     total cpu time spent up to now is        0.7 secs

     total energy              =     -87.68360464 Ry
     estimated scf accuracy    <       0.00678940 Ry

     total magnetization       =    -0.37 Bohr mag/cell
     absolute magnetization    =     0.37 Bohr mag/cell

     iteration # 13     ecut=    40.00 Ry     beta= 0.50
     Davidson diagonalization with overlap
     ethr =  1.24E-05,  avg # of iterations =  1.5

     total cpu time spent up to now is        0.7 secs

     total energy              =     -87.68358130 Ry
     estimated scf accuracy    <       0.00736253 Ry

     total magnetization       =    -0.24 Bohr mag/cell
     absolute magnetization    =     0.24 Bohr mag/cell

     iteration # 14     ecut=    40.00 Ry     beta= 0.50
     Davidson diagonalization with overlap
     ethr =  1.24E-05,  avg # of iterations =  1.3

     total cpu time spent up to now is        0.7 secs

     total energy              =     -87.68354249 Ry
     estimated scf accuracy    <       0.00932922 Ry

     total magnetization       =    -0.28 Bohr mag/cell
     absolute magnetization    =     0.28 Bohr mag/cell

     iteration # 15     ecut=    40.00 Ry     beta= 0.50
     Davidson diagonalization with overlap
     ethr =  1.24E-05,  avg # of iterations =  1.5

     total cpu time spent up to now is        0.7 secs

     total energy              =     -87.68400782 Ry
     estimated scf accuracy    <       0.00235592 Ry

     total magnetization       =    -0.37 Bohr mag/cell
     absolute magnetization    =     0.37 Bohr mag/cell

     iteration # 16     ecut=    40.00 Ry     beta= 0.50
     Davidson diagonalization with overlap
     ethr =  1.24E-05,  avg # of iterations =  1.0

     total cpu time spent up to now is        0.8 secs

     total energy              =     -87.68404393 Ry
     estimated scf accuracy    <       0.00214663 Ry

     total magnetization       =    -0.37 Bohr mag/cell
     absolute magnetization    =     0.37 Bohr mag/cell

     iteration # 17     ecut=    40.00 Ry     beta= 0.50
     Davidson diagonalization with overlap
     ethr =  1.24E-05,  avg # of iterations =  1.0

     total cpu time spent up to now is        0.8 secs

     total energy              =     -87.68406576 Ry
     estimated scf accuracy    <       0.00047043 Ry

     total magnetization       =    -0.38 Bohr mag/cell
     absolute magnetization    =     0.38 Bohr mag/cell

     iteration # 18     ecut=    40.00 Ry     beta= 0.50
     Davidson diagonalization with overlap
     ethr =  4.28E-06,  avg # of iterations =  1.0

     total cpu time spent up to now is        0.8 secs

     total energy              =     -87.68408874 Ry
     estimated scf accuracy    <       0.00004037 Ry

     total magnetization       =    -0.38 Bohr mag/cell
     absolute magnetization    =     0.38 Bohr mag/cell

     iteration # 19     ecut=    40.00 Ry     beta= 0.50
     Davidson diagonalization with overlap
     ethr =  3.67E-07,  avg # of iterations =  1.0

     total cpu time spent up to now is        0.8 secs

     total energy              =     -87.68408460 Ry
     estimated scf accuracy    <       0.00003573 Ry

     total magnetization       =    -0.38 Bohr mag/cell
     absolute magnetization    =     0.38 Bohr mag/cell

     iteration # 20     ecut=    40.00 Ry     beta= 0.50
     Davidson diagonalization with overlap
     ethr =  3.25E-07,  avg # of iterations =  1.0

     total cpu time spent up to now is        0.9 secs

     total energy              =     -87.68408159 Ry
     estimated scf accuracy    <       0.00006164 Ry

     total magnetization       =    -0.38 Bohr mag/cell
     absolute magnetization    =     0.38 Bohr mag/cell

     iteration # 21     ecut=    40.00 Ry     beta= 0.50
     Davidson diagonalization with overlap
     ethr =  3.25E-07,  avg # of iterations =  1.0

     total cpu time spent up to now is        0.9 secs

     total energy              =     -87.68407876 Ry
     estimated scf accuracy    <       0.00007374 Ry

     total magnetization       =    -0.38 Bohr mag/cell
     absolute magnetization    =     0.38 Bohr mag/cell

     iteration # 22     ecut=    40.00 Ry     beta= 0.50
     Davidson diagonalization with overlap
     ethr =  3.25E-07,  avg # of iterations =  1.0

     total cpu time spent up to now is        0.9 secs

     total energy              =     -87.68409469 Ry
     estimated scf accuracy    <       0.00005645 Ry

     total magnetization       =    -0.38 Bohr mag/cell
     absolute magnetization    =     0.38 Bohr mag/cell

     iteration # 23     ecut=    40.00 Ry     beta= 0.50
     Davidson diagonalization with overlap
     ethr =  3.25E-07,  avg # of iterations =  1.0

     total cpu time spent up to now is        0.9 secs

     total energy              =     -87.68409899 Ry
     estimated scf accuracy    <       0.00002682 Ry

     total magnetization       =    -0.37 Bohr mag/cell
     absolute magnetization    =     0.38 Bohr mag/cell

     iteration # 24     ecut=    40.00 Ry     beta= 0.50
     Davidson diagonalization with overlap
     ethr =  2.44E-07,  avg # of iterations =  1.5

     total cpu time spent up to now is        1.0 secs

     total energy              =     -87.68410905 Ry
     estimated scf accuracy    <       0.00002375 Ry

     total magnetization       =    -0.35 Bohr mag/cell
     absolute magnetization    =     0.36 Bohr mag/cell

     iteration # 25     ecut=    40.00 Ry     beta= 0.50
     Davidson diagonalization with overlap
     ethr =  2.16E-07,  avg # of iterations =  1.5

     Magnetic moment per site  (integrated on atomic sphere of radius R)
     atom   1 (R=0.412)  charge=  9.7905  magn= -0.2281

     total cpu time spent up to now is        1.0 secs

     End of self-consistent calculation

 ------ SPIN UP ------------


          k = 0.0000 0.0000 0.0000 (   331 PWs)   bands (ev):

     5.8045  12.5950  12.5950  12.5950  13.5579  13.5579  40.5888  43.2281
    43.2281  43.2281

          k =-0.3536-0.3536 0.3536 (   302 PWs)   bands (ev):

    10.2196  12.5354  12.5354  14.2617  14.2617  14.5334  20.3476  38.7534
    39.7577  39.7577

          k =-0.7071 0.0000 0.0000 (   302 PWs)   bands (ev):

    10.3726  10.9098  14.2188  14.4485  14.4485  17.2359  23.8774  29.8691
    29.8691  34.8641

 ------ SPIN DOWN ----------


          k = 0.0000 0.0000 0.0000 (   331 PWs)   bands (ev):

     5.4560  12.3187  12.3187  12.3187  13.4017  13.4017  40.2363  42.8824
    42.8824  42.8824

          k =-0.3536-0.3536 0.3536 (   302 PWs)   bands (ev):

     9.9245  12.3206  12.3206  14.0380  14.0380  14.1648  20.0476  38.3340
    39.4600  39.4600

          k =-0.7071 0.0000 0.0000 (   302 PWs)   bands (ev):

    10.1413  10.6269  14.0680  14.1747  14.1747  16.9003  23.5886  29.5381
    29.5381  34.5223

     the Fermi energy is    14.5590 ev

!    total energy              =     -87.68411274 Ry
     estimated scf accuracy    <       0.00000004 Ry
     smearing contrib. (-TS)   =       0.00117691 Ry
     internal energy E=F+TS    =     -87.68528964 Ry

     The total energy is F=E-TS. E is the sum of the following terms:
     one-electron contribution =      -8.11700615 Ry
     hartree contribution      =      18.46627736 Ry
     xc contribution           =     -14.15720443 Ry
     ewald contribution        =     -83.87735643 Ry

     total magnetization       =    -0.36 Bohr mag/cell
     absolute magnetization    =     0.36 Bohr mag/cell

     convergence has been achieved in  25 iterations

     Forces acting on atoms (cartesian axes, Ry/au):

     atom    1 type  1   force =     0.00000000    0.00000000    0.00000000
     The non-local contrib.  to forces
     atom    1 type  1   force =     0.00000000    0.00000000    0.00000000
     The ionic contribution  to forces
     atom    1 type  1   force =    -0.00000000   -0.00000000   -0.00000000
     The local contribution  to forces
     atom    1 type  1   force =    -0.00000000   -0.00000000   -0.00000000
     The core correction contribution to forces
     atom    1 type  1   force =     0.00000000    0.00000000    0.00000000
     The Hubbard contrib.    to forces
     atom    1 type  1   force =     0.00000000    0.00000000    0.00000000
     The SCF correction term to forces
     atom    1 type  1   force =    -0.00000000    0.00000000   -0.00000000

     Total force =     0.000000     Total SCF correction =     0.000000


     Computing stress (Cartesian axis) and pressure

          total   stress  (Ry/bohr**3)                   (kbar)     P=      384.78
   0.00261566   0.00000000   0.00000000          384.78        0.00        0.00
   0.00000000   0.00261566   0.00000000            0.00      384.78        0.00
   0.00000000   0.00000000   0.00261566            0.00        0.00      384.78


     BFGS Geometry Optimization
     Energy error            =      0.0E+00 Ry
     Gradient error          =      0.0E+00 Ry/Bohr
     Cell gradient error     =      3.8E+02 kbar

     number of scf cycles    =   1
     number of bfgs steps    =   0

     enthalpy           new  =     -87.6841127359 Ry

     new trust radius        =       0.1112299275 bohr
     new conv_thr            =       0.0000001000 Ry

     new unit-cell volume =     87.47187 a.u.^3 (    12.96199 Ang^3 )
     density =      8.14077 g/cm^3

CELL_PARAMETERS (angstrom)
   0.000000000   1.864435122   1.864435122
   1.864435122   0.000000000   1.864435122
   1.864435122   1.864435122   0.000000000

ATOMIC_POSITIONS (angstrom)
Cu            0.0000000000        0.0000000000        0.0000000000



     Writing config-only to output data dir /home/gridsan/epan1/labutil/lab3_samples/problem3/Lab3/Cu_a_3.5_ecut_40_nk_2/pwscf.save/
     NEW-OLD atomic charge density approx. for the potential
     extrapolated charge   12.90364, renormalised to   11.00000
     Generating pointlists ...

     total cpu time spent up to now is        1.1 secs

     Self-consistent Calculation

     iteration #  1     ecut=    40.00 Ry     beta= 0.50
     Davidson diagonalization with overlap
     ethr =  1.00E-06,  avg # of iterations =  6.3

     total cpu time spent up to now is        1.2 secs

     total energy              =     -84.79743938 Ry
     estimated scf accuracy    <       2.91906542 Ry

     total magnetization       =    -0.78 Bohr mag/cell
     absolute magnetization    =     0.78 Bohr mag/cell

     iteration #  2     ecut=    40.00 Ry     beta= 0.50
     Davidson diagonalization with overlap
     ethr =  1.00E-02,  avg # of iterations =  2.0

     total cpu time spent up to now is        1.2 secs

     total energy              =     -88.03858037 Ry
     estimated scf accuracy    <       2.81587127 Ry

     total magnetization       =    -0.22 Bohr mag/cell
     absolute magnetization    =     0.22 Bohr mag/cell

     iteration #  3     ecut=    40.00 Ry     beta= 0.50
     Davidson diagonalization with overlap
     ethr =  1.00E-02,  avg # of iterations =  1.0

     total cpu time spent up to now is        1.2 secs

     total energy              =     -87.67888286 Ry
     estimated scf accuracy    <       1.00706908 Ry

     total magnetization       =    -0.25 Bohr mag/cell
     absolute magnetization    =     0.25 Bohr mag/cell

     iteration #  4     ecut=    40.00 Ry     beta= 0.50
     Davidson diagonalization with overlap
     ethr =  9.16E-03,  avg # of iterations =  1.0

     total cpu time spent up to now is        1.3 secs

     total energy              =     -87.76918924 Ry
     estimated scf accuracy    <       0.14633124 Ry

     total magnetization       =    -0.27 Bohr mag/cell
     absolute magnetization    =     0.27 Bohr mag/cell

     iteration #  5     ecut=    40.00 Ry     beta= 0.50
     Davidson diagonalization with overlap
     ethr =  1.33E-03,  avg # of iterations =  1.0

     total cpu time spent up to now is        1.3 secs

     total energy              =     -87.67969253 Ry
     estimated scf accuracy    <       0.18596802 Ry

     total magnetization       =    -0.27 Bohr mag/cell
     absolute magnetization    =     0.27 Bohr mag/cell

     iteration #  6     ecut=    40.00 Ry     beta= 0.50
     Davidson diagonalization with overlap
     ethr =  1.33E-03,  avg # of iterations =  1.8

     total cpu time spent up to now is        1.3 secs

     total energy              =     -87.70284498 Ry
     estimated scf accuracy    <       0.00538001 Ry

     total magnetization       =    -0.27 Bohr mag/cell
     absolute magnetization    =     0.31 Bohr mag/cell

     iteration #  7     ecut=    40.00 Ry     beta= 0.50
     Davidson diagonalization with overlap
     ethr =  4.89E-05,  avg # of iterations =  2.0

     total cpu time spent up to now is        1.3 secs

     total energy              =     -87.70444236 Ry
     estimated scf accuracy    <       0.00015137 Ry

     total magnetization       =    -0.28 Bohr mag/cell
     absolute magnetization    =     0.31 Bohr mag/cell

     iteration #  8     ecut=    40.00 Ry     beta= 0.50
     Davidson diagonalization with overlap
     ethr =  1.38E-06,  avg # of iterations =  2.0

     total cpu time spent up to now is        1.4 secs

     total energy              =     -87.70443684 Ry
     estimated scf accuracy    <       0.00011679 Ry

     total magnetization       =    -0.28 Bohr mag/cell
     absolute magnetization    =     0.31 Bohr mag/cell

     iteration #  9     ecut=    40.00 Ry     beta= 0.50
     Davidson diagonalization with overlap
     ethr =  1.06E-06,  avg # of iterations =  2.0

     total cpu time spent up to now is        1.4 secs

     total energy              =     -87.70448018 Ry
     estimated scf accuracy    <       0.00015338 Ry

     total magnetization       =    -0.27 Bohr mag/cell
     absolute magnetization    =     0.31 Bohr mag/cell

     iteration # 10     ecut=    40.00 Ry     beta= 0.50
     Davidson diagonalization with overlap
     ethr =  1.06E-06,  avg # of iterations =  1.0

     total cpu time spent up to now is        1.4 secs

     total energy              =     -87.70446484 Ry
     estimated scf accuracy    <       0.00008480 Ry

     total magnetization       =    -0.27 Bohr mag/cell
     absolute magnetization    =     0.31 Bohr mag/cell

     iteration # 11     ecut=    40.00 Ry     beta= 0.50
     Davidson diagonalization with overlap
     ethr =  7.71E-07,  avg # of iterations =  1.0

     total cpu time spent up to now is        1.5 secs

     total energy              =     -87.70444491 Ry
     estimated scf accuracy    <       0.00004339 Ry

     total magnetization       =    -0.27 Bohr mag/cell
     absolute magnetization    =     0.31 Bohr mag/cell

     iteration # 12     ecut=    40.00 Ry     beta= 0.50
     Davidson diagonalization with overlap
     ethr =  3.94E-07,  avg # of iterations =  1.8

     total cpu time spent up to now is        1.5 secs

     total energy              =     -87.70445090 Ry
     estimated scf accuracy    <       0.00000090 Ry

     total magnetization       =    -0.28 Bohr mag/cell
     absolute magnetization    =     0.31 Bohr mag/cell

     iteration # 13     ecut=    40.00 Ry     beta= 0.50
     Davidson diagonalization with overlap
     ethr =  8.22E-09,  avg # of iterations =  2.0

     total cpu time spent up to now is        1.5 secs

     total energy              =     -87.70445119 Ry
     estimated scf accuracy    <       0.00000023 Ry

     total magnetization       =    -0.28 Bohr mag/cell
     absolute magnetization    =     0.31 Bohr mag/cell

     iteration # 14     ecut=    40.00 Ry     beta= 0.50
     Davidson diagonalization with overlap
     ethr =  2.11E-09,  avg # of iterations =  1.5

     Magnetic moment per site  (integrated on atomic sphere of radius R)
     atom   1 (R=0.412)  charge=  9.6282  magn= -0.0798

     total cpu time spent up to now is        1.5 secs

     End of self-consistent calculation

 ------ SPIN UP ------------


          k = 0.0000 0.0000 0.0000 (   331 PWs)   bands (ev):

     3.6895   9.4784   9.4784   9.4784  10.2236  10.2236  35.0451  36.3127
    36.3127  36.3127

          k =-0.3319-0.3319 0.3319 (   302 PWs)   bands (ev):

     7.6571   9.4617   9.4617  10.7219  10.7219  11.5398  15.7228  33.0386
    33.0386  33.4060

          k =-0.6637 0.0000 0.0000 (   302 PWs)   bands (ev):

     7.8788   8.2467  10.7136  10.8430  10.8430  13.8214  18.9188  24.7325
    24.7325  29.1494

 ------ SPIN DOWN ----------


          k = 0.0000 0.0000 0.0000 (   331 PWs)   bands (ev):

     3.2887   9.4435   9.4435   9.4435  10.2059  10.2059  34.6136  35.9373
    35.9373  35.9373

          k =-0.3319-0.3319 0.3319 (   302 PWs)   bands (ev):

     7.4937   9.4194   9.4194  10.7181  10.7181  11.1053  15.5239  32.7201
    32.7201  32.8968

          k =-0.6637 0.0000 0.0000 (   302 PWs)   bands (ev):

     7.7280   8.1655  10.7075  10.8440  10.8440  13.4287  18.6515  24.3556
    24.3556  28.8307

     the Fermi energy is    11.5306 ev

!    total energy              =     -87.70445122 Ry
     estimated scf accuracy    <          2.1E-09 Ry
     smearing contrib. (-TS)   =      -0.00082734 Ry
     internal energy E=F+TS    =     -87.70362388 Ry

     The total energy is F=E-TS. E is the sum of the following terms:
     one-electron contribution =     -16.05879068 Ry
     hartree contribution      =      21.13461337 Ry
     xc contribution           =     -14.05030655 Ry
     ewald contribution        =     -78.72914002 Ry

     total magnetization       =    -0.28 Bohr mag/cell
     absolute magnetization    =     0.31 Bohr mag/cell

     convergence has been achieved in  14 iterations

     Forces acting on atoms (cartesian axes, Ry/au):

     atom    1 type  1   force =     0.00000000    0.00000000    0.00000000
     The non-local contrib.  to forces
     atom    1 type  1   force =    -0.00000000    0.00000000    0.00000000
     The ionic contribution  to forces
     atom    1 type  1   force =    -0.00000000   -0.00000000   -0.00000000
     The local contribution  to forces
     atom    1 type  1   force =     0.00000000   -0.00000000   -0.00000000
     The core correction contribution to forces
     atom    1 type  1   force =     0.00000000    0.00000000    0.00000000
     The Hubbard contrib.    to forces
     atom    1 type  1   force =     0.00000000    0.00000000    0.00000000
     The SCF correction term to forces
     atom    1 type  1   force =     0.00000000    0.00000000   -0.00000000

     Total force =     0.000000     Total SCF correction =     0.000000


     Computing stress (Cartesian axis) and pressure

          total   stress  (Ry/bohr**3)                   (kbar)     P=       20.36
   0.00013838   0.00000000   0.00000000           20.36        0.00        0.00
   0.00000000   0.00013838   0.00000000            0.00       20.36        0.00
   0.00000000   0.00000000   0.00013838            0.00        0.00       20.36

     Energy error            =      2.0E-02 Ry
     Gradient error          =      0.0E+00 Ry/Bohr
     Cell gradient error     =      2.0E+01 kbar

     number of scf cycles    =   2
     number of bfgs steps    =   1

     enthalpy           old  =     -87.6841127359 Ry
     enthalpy           new  =     -87.7044512186 Ry

     CASE: enthalpy          _new < enthalpy          _old

     new trust radius        =       0.0073348653 bohr
     new conv_thr            =       0.0000000010 Ry

     new unit-cell volume =     88.50492 a.u.^3 (    13.11508 Ang^3 )
     density =      8.04575 g/cm^3

CELL_PARAMETERS (angstrom)
   0.000000000   1.871746095   1.871746095
   1.871746095   0.000000000   1.871746095
   1.871746095   1.871746095   0.000000000

ATOMIC_POSITIONS (angstrom)
Cu            0.0000000000        0.0000000000        0.0000000000



     Writing config-only to output data dir /home/gridsan/epan1/labutil/lab3_samples/problem3/Lab3/Cu_a_3.5_ecut_40_nk_2/pwscf.save/
     NEW-OLD atomic charge density approx. for the potential
     extrapolated charge   11.12839, renormalised to   11.00000
     Generating pointlists ...

     total cpu time spent up to now is        1.7 secs

     Self-consistent Calculation

     iteration #  1     ecut=    40.00 Ry     beta= 0.50
     Davidson diagonalization with overlap
     ethr =  1.00E-06,  avg # of iterations =  3.3

     total cpu time spent up to now is        1.7 secs

     total energy              =     -87.65121613 Ry
     estimated scf accuracy    <       0.05991939 Ry

     total magnetization       =    -0.00 Bohr mag/cell
     absolute magnetization    =     0.05 Bohr mag/cell

     iteration #  2     ecut=    40.00 Ry     beta= 0.50
     Davidson diagonalization with overlap
     ethr =  5.45E-04,  avg # of iterations =  2.0

     total cpu time spent up to now is        1.7 secs

     total energy              =     -87.70579590 Ry
     estimated scf accuracy    <       0.07423336 Ry

     total magnetization       =    -0.25 Bohr mag/cell
     absolute magnetization    =     0.26 Bohr mag/cell

     iteration #  3     ecut=    40.00 Ry     beta= 0.50
     Davidson diagonalization with overlap
     ethr =  5.45E-04,  avg # of iterations =  1.0

     total cpu time spent up to now is        1.8 secs

     total energy              =     -87.70477772 Ry
     estimated scf accuracy    <       0.01668783 Ry

     total magnetization       =    -0.27 Bohr mag/cell
     absolute magnetization    =     0.29 Bohr mag/cell

     iteration #  4     ecut=    40.00 Ry     beta= 0.50
     Davidson diagonalization with overlap
     ethr =  1.52E-04,  avg # of iterations =  1.0

     total cpu time spent up to now is        1.8 secs

     total energy              =     -87.70532277 Ry
     estimated scf accuracy    <       0.00397179 Ry

     total magnetization       =    -0.28 Bohr mag/cell
     absolute magnetization    =     0.31 Bohr mag/cell

     iteration #  5     ecut=    40.00 Ry     beta= 0.50
     Davidson diagonalization with overlap
     ethr =  3.61E-05,  avg # of iterations =  1.0

     total cpu time spent up to now is        1.8 secs

     total energy              =     -87.70474795 Ry
     estimated scf accuracy    <       0.00274630 Ry

     total magnetization       =    -0.29 Bohr mag/cell
     absolute magnetization    =     0.31 Bohr mag/cell

     iteration #  6     ecut=    40.00 Ry     beta= 0.50
     Davidson diagonalization with overlap
     ethr =  2.50E-05,  avg # of iterations =  1.0

     total cpu time spent up to now is        1.8 secs

     total energy              =     -87.70482825 Ry
     estimated scf accuracy    <       0.00098961 Ry

     total magnetization       =    -0.28 Bohr mag/cell
     absolute magnetization    =     0.31 Bohr mag/cell

     iteration #  7     ecut=    40.00 Ry     beta= 0.50
     Davidson diagonalization with overlap
     ethr =  9.00E-06,  avg # of iterations =  1.0

     total cpu time spent up to now is        1.9 secs

     total energy              =     -87.70466367 Ry
     estimated scf accuracy    <       0.00094857 Ry

     total magnetization       =    -0.28 Bohr mag/cell
     absolute magnetization    =     0.31 Bohr mag/cell

     iteration #  8     ecut=    40.00 Ry     beta= 0.50
     Davidson diagonalization with overlap
     ethr =  8.62E-06,  avg # of iterations =  1.0

     total cpu time spent up to now is        1.9 secs

     total energy              =     -87.70464128 Ry
     estimated scf accuracy    <       0.00045935 Ry

     total magnetization       =    -0.28 Bohr mag/cell
     absolute magnetization    =     0.31 Bohr mag/cell

     iteration #  9     ecut=    40.00 Ry     beta= 0.50
     Davidson diagonalization with overlap
     ethr =  4.18E-06,  avg # of iterations =  1.0

     total cpu time spent up to now is        1.9 secs

     total energy              =     -87.70448256 Ry
     estimated scf accuracy    <       0.00033467 Ry

     total magnetization       =    -0.28 Bohr mag/cell
     absolute magnetization    =     0.31 Bohr mag/cell

     iteration # 10     ecut=    40.00 Ry     beta= 0.50
     Davidson diagonalization with overlap
     ethr =  3.04E-06,  avg # of iterations =  1.8

     total cpu time spent up to now is        1.9 secs

     total energy              =     -87.70453820 Ry
     estimated scf accuracy    <       0.00000206 Ry

     total magnetization       =    -0.28 Bohr mag/cell
     absolute magnetization    =     0.31 Bohr mag/cell

     iteration # 11     ecut=    40.00 Ry     beta= 0.50
     Davidson diagonalization with overlap
     ethr =  1.87E-08,  avg # of iterations =  2.7

     total cpu time spent up to now is        2.0 secs

     total energy              =     -87.70453883 Ry
     estimated scf accuracy    <       0.00000019 Ry

     total magnetization       =    -0.28 Bohr mag/cell
     absolute magnetization    =     0.31 Bohr mag/cell

     iteration # 12     ecut=    40.00 Ry     beta= 0.50
     Davidson diagonalization with overlap
     ethr =  1.74E-09,  avg # of iterations =  1.3

     total cpu time spent up to now is        2.0 secs

     total energy              =     -87.70453882 Ry
     estimated scf accuracy    <       0.00000006 Ry

     total magnetization       =    -0.28 Bohr mag/cell
     absolute magnetization    =     0.31 Bohr mag/cell

     iteration # 13     ecut=    40.00 Ry     beta= 0.50
     Davidson diagonalization with overlap
     ethr =  5.52E-10,  avg # of iterations =  1.2

     total cpu time spent up to now is        2.0 secs

     total energy              =     -87.70453882 Ry
     estimated scf accuracy    <       0.00000001 Ry

     total magnetization       =    -0.28 Bohr mag/cell
     absolute magnetization    =     0.31 Bohr mag/cell

     iteration # 14     ecut=    40.00 Ry     beta= 0.50
     Davidson diagonalization with overlap
     ethr =  1.08E-10,  avg # of iterations =  1.5

     total cpu time spent up to now is        2.0 secs

     total energy              =     -87.70453883 Ry
     estimated scf accuracy    <          2.2E-09 Ry

     total magnetization       =    -0.28 Bohr mag/cell
     absolute magnetization    =     0.31 Bohr mag/cell

     iteration # 15     ecut=    40.00 Ry     beta= 0.50
     Davidson diagonalization with overlap
     ethr =  1.99E-11,  avg # of iterations =  1.5

     total cpu time spent up to now is        2.1 secs

     total energy              =     -87.70453883 Ry
     estimated scf accuracy    <          4.4E-09 Ry

     total magnetization       =    -0.28 Bohr mag/cell
     absolute magnetization    =     0.31 Bohr mag/cell

     iteration # 16     ecut=    40.00 Ry     beta= 0.50
     Davidson diagonalization with overlap
     ethr =  1.99E-11,  avg # of iterations =  1.0

     total cpu time spent up to now is        2.1 secs

     total energy              =     -87.70453883 Ry
     estimated scf accuracy    <          3.6E-09 Ry

     total magnetization       =    -0.28 Bohr mag/cell
     absolute magnetization    =     0.31 Bohr mag/cell

     iteration # 17     ecut=    40.00 Ry     beta= 0.50
     Davidson diagonalization with overlap
     ethr =  1.99E-11,  avg # of iterations =  1.0

     total cpu time spent up to now is        2.1 secs

     total energy              =     -87.70453882 Ry
     estimated scf accuracy    <          3.5E-09 Ry

     total magnetization       =    -0.28 Bohr mag/cell
     absolute magnetization    =     0.31 Bohr mag/cell

     iteration # 18     ecut=    40.00 Ry     beta= 0.50
     Davidson diagonalization with overlap
     ethr =  1.99E-11,  avg # of iterations =  1.7

     Magnetic moment per site  (integrated on atomic sphere of radius R)
     atom   1 (R=0.412)  charge=  9.6190  magn= -0.0781

     total cpu time spent up to now is        2.2 secs

     End of self-consistent calculation

 ------ SPIN UP ------------


          k = 0.0000 0.0000 0.0000 (   331 PWs)   bands (ev):

     3.5711   9.2957   9.2957   9.2957  10.0264  10.0264  34.7265  35.9138
    35.9138  35.9138

          k =-0.3306-0.3306 0.3306 (   302 PWs)   bands (ev):

     7.5067   9.2797   9.2797  10.5153  10.5153  11.3713  15.4605  32.6562
    32.6562  33.0988

          k =-0.6611 0.0000 0.0000 (   302 PWs)   bands (ev):

     7.7289   8.0885  10.5072  10.6339  10.6339  13.6291  18.6352  24.4407
    24.4407  28.8256

 ------ SPIN DOWN ----------


          k = 0.0000 0.0000 0.0000 (   331 PWs)   bands (ev):

     3.1727   9.2614   9.2614   9.2614  10.0091  10.0091  34.2970  35.5418
    35.5418  35.5418

          k =-0.3306-0.3306 0.3306 (   302 PWs)   bands (ev):

     7.3451   9.2382   9.2382  10.5116  10.5116  10.9393  15.2620  32.3394
    32.3394  32.5924

          k =-0.6611 0.0000 0.0000 (   302 PWs)   bands (ev):

     7.5804   8.0086  10.5012  10.6350  10.6350  13.2382  18.3689  24.0659
    24.0659  28.5076

     the Fermi energy is    11.3627 ev

!    total energy              =     -87.70453882 Ry
     estimated scf accuracy    <          1.4E-10 Ry
     smearing contrib. (-TS)   =      -0.00087304 Ry
     internal energy E=F+TS    =     -87.70366578 Ry

     The total energy is F=E-TS. E is the sum of the following terms:
     one-electron contribution =     -16.53120403 Ry
     hartree contribution      =      21.29200336 Ry
     xc contribution           =     -14.04283831 Ry
     ewald contribution        =     -78.42162681 Ry

     total magnetization       =    -0.28 Bohr mag/cell
     absolute magnetization    =     0.31 Bohr mag/cell

     convergence has been achieved in  18 iterations

     Forces acting on atoms (cartesian axes, Ry/au):

     atom    1 type  1   force =     0.00000000    0.00000000    0.00000000
     The non-local contrib.  to forces
     atom    1 type  1   force =    -0.00000000    0.00000000    0.00000000
     The ionic contribution  to forces
     atom    1 type  1   force =    -0.00000000   -0.00000000   -0.00000000
     The local contribution  to forces
     atom    1 type  1   force =     0.00000000   -0.00000000   -0.00000000
     The core correction contribution to forces
     atom    1 type  1   force =     0.00000000    0.00000000    0.00000000
     The Hubbard contrib.    to forces
     atom    1 type  1   force =     0.00000000    0.00000000    0.00000000
     The SCF correction term to forces
     atom    1 type  1   force =     0.00000000   -0.00000000   -0.00000000

     Total force =     0.000000     Total SCF correction =     0.000000


     Computing stress (Cartesian axis) and pressure

          total   stress  (Ry/bohr**3)                   (kbar)     P=        4.88
   0.00003320  -0.00000000  -0.00000000            4.88       -0.00       -0.00
  -0.00000000   0.00003320  -0.00000000           -0.00        4.88       -0.00
  -0.00000000  -0.00000000   0.00003320           -0.00       -0.00        4.88

     Energy error            =      8.8E-05 Ry
     Gradient error          =      0.0E+00 Ry/Bohr
     Cell gradient error     =      4.9E+00 kbar

     number of scf cycles    =   3
     number of bfgs steps    =   2

     enthalpy           old  =     -87.7044512186 Ry
     enthalpy           new  =     -87.7045388242 Ry

     CASE: enthalpy          _new < enthalpy          _old

     new trust radius        =       0.0023438305 bohr
     new conv_thr            =       0.0000000010 Ry

     new unit-cell volume =     88.83608 a.u.^3 (    13.16415 Ang^3 )
     density =      8.01576 g/cm^3

CELL_PARAMETERS (angstrom)
   0.000000000   1.874077724   1.874077724
   1.874077724   0.000000000   1.874077724
   1.874077724   1.874077724   0.000000000

ATOMIC_POSITIONS (angstrom)
Cu            0.0000000000        0.0000000000        0.0000000000



     Writing config-only to output data dir /home/gridsan/epan1/labutil/lab3_samples/problem3/Lab3/Cu_a_3.5_ecut_40_nk_2/pwscf.save/
     NEW-OLD atomic charge density approx. for the potential
     extrapolated charge   11.04100, renormalised to   11.00000
     Generating pointlists ...

     total cpu time spent up to now is        2.3 secs

     Self-consistent Calculation

     iteration #  1     ecut=    40.00 Ry     beta= 0.50
     Davidson diagonalization with overlap
     ethr =  1.00E-06,  avg # of iterations =  2.5

     total cpu time spent up to now is        2.3 secs

     total energy              =     -87.70501617 Ry
     estimated scf accuracy    <       0.00007670 Ry

     total magnetization       =    -0.34 Bohr mag/cell
     absolute magnetization    =     0.38 Bohr mag/cell

     iteration #  2     ecut=    40.00 Ry     beta= 0.50
     Davidson diagonalization with overlap
     ethr =  6.97E-07,  avg # of iterations =  2.3

     total cpu time spent up to now is        2.3 secs

     total energy              =     -87.70452762 Ry
     estimated scf accuracy    <       0.00008405 Ry

     total magnetization       =    -0.27 Bohr mag/cell
     absolute magnetization    =     0.31 Bohr mag/cell

     iteration #  3     ecut=    40.00 Ry     beta= 0.50
     Davidson diagonalization with overlap
     ethr =  6.97E-07,  avg # of iterations =  1.0

     total cpu time spent up to now is        2.4 secs

     total energy              =     -87.70453836 Ry
     estimated scf accuracy    <       0.00002039 Ry

     total magnetization       =    -0.27 Bohr mag/cell
     absolute magnetization    =     0.31 Bohr mag/cell

     iteration #  4     ecut=    40.00 Ry     beta= 0.50
     Davidson diagonalization with overlap
     ethr =  1.85E-07,  avg # of iterations =  1.0

     total cpu time spent up to now is        2.4 secs

     total energy              =     -87.70454171 Ry
     estimated scf accuracy    <       0.00000719 Ry

     total magnetization       =    -0.27 Bohr mag/cell
     absolute magnetization    =     0.31 Bohr mag/cell

     iteration #  5     ecut=    40.00 Ry     beta= 0.50
     Davidson diagonalization with overlap
     ethr =  6.53E-08,  avg # of iterations =  1.0

     total cpu time spent up to now is        2.4 secs

     total energy              =     -87.70454186 Ry
     estimated scf accuracy    <       0.00000321 Ry

     total magnetization       =    -0.27 Bohr mag/cell
     absolute magnetization    =     0.31 Bohr mag/cell

     iteration #  6     ecut=    40.00 Ry     beta= 0.50
     Davidson diagonalization with overlap
     ethr =  2.92E-08,  avg # of iterations =  1.0

     total cpu time spent up to now is        2.4 secs

     total energy              =     -87.70454372 Ry
     estimated scf accuracy    <       0.00000296 Ry

     total magnetization       =    -0.27 Bohr mag/cell
     absolute magnetization    =     0.31 Bohr mag/cell

     iteration #  7     ecut=    40.00 Ry     beta= 0.50
     Davidson diagonalization with overlap
     ethr =  2.69E-08,  avg # of iterations =  1.5

     total cpu time spent up to now is        2.5 secs

     total energy              =     -87.70454386 Ry
     estimated scf accuracy    <       0.00000027 Ry

     total magnetization       =    -0.28 Bohr mag/cell
     absolute magnetization    =     0.31 Bohr mag/cell

     iteration #  8     ecut=    40.00 Ry     beta= 0.50
     Davidson diagonalization with overlap
     ethr =  2.46E-09,  avg # of iterations =  1.5

     total cpu time spent up to now is        2.5 secs

     total energy              =     -87.70454390 Ry
     estimated scf accuracy    <       0.00000006 Ry

     total magnetization       =    -0.28 Bohr mag/cell
     absolute magnetization    =     0.31 Bohr mag/cell

     iteration #  9     ecut=    40.00 Ry     beta= 0.50
     Davidson diagonalization with overlap
     ethr =  5.16E-10,  avg # of iterations =  1.5

     total cpu time spent up to now is        2.5 secs

     total energy              =     -87.70454390 Ry
     estimated scf accuracy    <       0.00000001 Ry

     total magnetization       =    -0.28 Bohr mag/cell
     absolute magnetization    =     0.31 Bohr mag/cell

     iteration # 10     ecut=    40.00 Ry     beta= 0.50
     Davidson diagonalization with overlap
     ethr =  9.93E-11,  avg # of iterations =  1.5

     Magnetic moment per site  (integrated on atomic sphere of radius R)
     atom   1 (R=0.412)  charge=  9.6162  magn= -0.0776

     total cpu time spent up to now is        2.5 secs

     End of self-consistent calculation

 ------ SPIN UP ------------


          k = 0.0000 0.0000 0.0000 (   331 PWs)   bands (ev):

     3.5340   9.2384   9.2384   9.2384   9.9647   9.9647  34.6260  35.7879
    35.7879  35.7879

          k =-0.3301-0.3301 0.3301 (   302 PWs)   bands (ev):

     7.4596   9.2227   9.2227  10.4505  10.4505  11.3183  15.3781  32.5357
    32.5357  33.0019

          k =-0.6603 0.0000 0.0000 (   302 PWs)   bands (ev):

     7.6820   8.0390  10.4425  10.5684  10.5684  13.5686  18.5460  24.3487
    24.3487  28.7237

 ------ SPIN DOWN ----------


          k = 0.0000 0.0000 0.0000 (   331 PWs)   bands (ev):

     3.1360   9.2044   9.2044   9.2044   9.9475   9.9475  34.1968  35.4166
    35.4166  35.4166

          k =-0.3301-0.3301 0.3301 (   302 PWs)   bands (ev):

     7.2985   9.1815   9.1815  10.4470  10.4470  10.8868  15.1797  32.2191
    32.2191  32.4960

          k =-0.6603 0.0000 0.0000 (   302 PWs)   bands (ev):

     7.5341   7.9595  10.4367  10.5697  10.5697  13.1781  18.2798  23.9743
    23.9743  28.4057

     the Fermi energy is    11.3098 ev

!    total energy              =     -87.70454391 Ry
     estimated scf accuracy    <          6.3E-10 Ry
     smearing contrib. (-TS)   =      -0.00088223 Ry
     internal energy E=F+TS    =     -87.70366168 Ry

     The total energy is F=E-TS. E is the sum of the following terms:
     one-electron contribution =     -16.68135423 Ry
     hartree contribution      =      21.34226866 Ry
     xc contribution           =     -14.04051736 Ry
     ewald contribution        =     -78.32405874 Ry

     total magnetization       =    -0.28 Bohr mag/cell
     absolute magnetization    =     0.31 Bohr mag/cell

     convergence has been achieved in  10 iterations

     Forces acting on atoms (cartesian axes, Ry/au):

     atom    1 type  1   force =     0.00000000    0.00000000    0.00000000
     The non-local contrib.  to forces
     atom    1 type  1   force =     0.00000000    0.00000000   -0.00000000
     The ionic contribution  to forces
     atom    1 type  1   force =    -0.00000000   -0.00000000   -0.00000000
     The local contribution  to forces
     atom    1 type  1   force =    -0.00000000   -0.00000000   -0.00000000
     The core correction contribution to forces
     atom    1 type  1   force =     0.00000000    0.00000000    0.00000000
     The Hubbard contrib.    to forces
     atom    1 type  1   force =     0.00000000    0.00000000    0.00000000
     The SCF correction term to forces
     atom    1 type  1   force =     0.00000000    0.00000000   -0.00000000

     Total force =     0.000000     Total SCF correction =     0.000000


     Computing stress (Cartesian axis) and pressure

          total   stress  (Ry/bohr**3)                   (kbar)     P=       -0.45
  -0.00000308  -0.00000000  -0.00000000           -0.45       -0.00       -0.00
  -0.00000000  -0.00000308  -0.00000000           -0.00       -0.45       -0.00
  -0.00000000  -0.00000000  -0.00000308           -0.00       -0.00       -0.45

     Energy error            =      5.1E-06 Ry
     Gradient error          =      0.0E+00 Ry/Bohr
     Cell gradient error     =      4.5E-01 kbar

     bfgs converged in   4 scf cycles and   3 bfgs steps
     (criteria: energy <  1.0E-04 Ry, force <  1.0E-03 Ry/Bohr, cell <  5.0E-01 kbar)

     End of BFGS Geometry Optimization

     Final enthalpy           =     -87.7045439052 Ry

     File /home/gridsan/epan1/labutil/lab3_samples/problem3/Lab3/Cu_a_3.5_ecut_40_nk_2/pwscf.bfgs deleted, as requested
Begin final coordinates
     new unit-cell volume =     88.83608 a.u.^3 (    13.16415 Ang^3 )
     density =      8.01576 g/cm^3

CELL_PARAMETERS (angstrom)
   0.000000000   1.874077724   1.874077724
   1.874077724   0.000000000   1.874077724
   1.874077724   1.874077724   0.000000000

ATOMIC_POSITIONS (angstrom)
Cu            0.0000000000        0.0000000000        0.0000000000
End final coordinates



     Writing config-only to output data dir /home/gridsan/epan1/labutil/lab3_samples/problem3/Lab3/Cu_a_3.5_ecut_40_nk_2/pwscf.save/

     Final scf calculation at the relaxed structure.
     The G-vectors are recalculated for the final unit cell
     Results may differ from those at the preceding step.

     Parallelization info
     --------------------
     sticks:   dense  smooth     PW     G-vecs:    dense   smooth      PW
     Min          69      35     10                 1076      383      66
     Max          70      36     11                 1077      384      69
     Sum         559     283     85                 8609     3071     537

     Using Slab Decomposition



     bravais-lattice index     =            0
     lattice parameter (alat)  =       4.6768  a.u.
     unit-cell volume          =      88.8361 (a.u.)^3
     number of atoms/cell      =            1
     number of atomic types    =            1
     number of electrons       =        11.00
     number of Kohn-Sham states=           10
     kinetic-energy cutoff     =      40.0000  Ry
     charge density cutoff     =     320.0000  Ry
     scf convergence threshold =      1.0E-09
     mixing beta               =       0.5000
     number of iterations used =            8  plain     mixing
     press convergence thresh. =      5.0E-01
     Exchange-correlation=  SLA  PZ   NOGX NOGC
                           (   1   1   0   0   0   0   0)

     celldm(1)=   4.676834  celldm(2)=   0.000000  celldm(3)=   0.000000
     celldm(4)=   0.000000  celldm(5)=   0.000000  celldm(6)=   0.000000

     crystal axes: (cart. coord. in units of alat)
               a(1) = (   0.000000   0.757242   0.757242 )  
               a(2) = (   0.757242   0.000000   0.757242 )  
               a(3) = (   0.757242   0.757242   0.000000 )  

     reciprocal axes: (cart. coord. in units 2 pi/alat)
               b(1) = ( -0.660291  0.660291  0.660291 )  
               b(2) = (  0.660291 -0.660291  0.660291 )  
               b(3) = (  0.660291  0.660291 -0.660291 )  


     PseudoPot. # 1 for Cu read from file:
     /home/gridsan/epan1/labutil/lab3_samples/pseudopotentials/Cu.pz-d-rrkjus.UPF
     MD5 check sum: fd38ae683e239c95a66f426e1f8e5fc7
     Pseudo is Ultrasoft, Zval = 11.0
     Generated by new atomic code, or converted to UPF format
     Using radial grid of  899 points,  3 beta functions with: 
                l(1) =   2
                l(2) =   2
                l(3) =   1
     Q(r) pseudized with 0 coefficients 


     atomic species   valence    mass     pseudopotential
        Cu            11.00    63.54600     Cu( 1.00)

     Starting magnetic structure 
     atomic species   magnetization
        Cu          -0.008

     48 Sym. Ops., with inversion, found



   Cartesian axes

     site n.     atom                  positions (alat units)
         1           Cu  tau(   1) = (   0.0000000   0.0000000   0.0000000  )

     number of k points=     3  Methfessel-Paxton smearing, width (Ry)=  0.0200
                       cart. coord. in units 2pi/alat
        k(    1) = (   0.0000000   0.0000000   0.0000000), wk =   0.1250000
        k(    2) = (  -0.3301456  -0.3301456   0.3301456), wk =   0.5000000
        k(    3) = (  -0.6602911   0.0000000   0.0000000), wk =   0.3750000

     Dense  grid:     8609 G-vectors     FFT dimensions: (  30,  30,  30)

     Smooth grid:     3071 G-vectors     FFT dimensions: (  24,  24,  24)

     Estimated max dynamical RAM per process >       4.05 MB

     Estimated total dynamical RAM >      32.42 MB
     Generating pointlists ...

     Initial potential from superposition of free atoms

     starting charge      10.9997, renormalised to      11.0000
     Starting wfcs are    6 randomized atomic wfcs +    4 random wfcs

     total cpu time spent up to now is        3.0 secs

     Self-consistent Calculation

     iteration #  1     ecut=    40.00 Ry     beta= 0.50
     Davidson diagonalization with overlap
     c_bands:  2 eigenvalues not converged
     c_bands:  3 eigenvalues not converged
     ethr =  1.00E-06,  avg # of iterations = 16.0
     Minimization algorithm failed to find Fermi energy: reverting to bisection
     Possible cause: smearing is larger than the electronic band-gap.

     total cpu time spent up to now is        3.1 secs

     total energy              =     -87.62733880 Ry
     estimated scf accuracy    <       0.21645241 Ry

     total magnetization       =    -0.24 Bohr mag/cell
     absolute magnetization    =     0.24 Bohr mag/cell

     iteration #  2     ecut=    40.00 Ry     beta= 0.50
     Davidson diagonalization with overlap
     ethr =  1.97E-03,  avg # of iterations =  2.0

     total cpu time spent up to now is        3.1 secs

     total energy              =     -87.69810492 Ry
     estimated scf accuracy    <       0.05536408 Ry

     total magnetization       =    -0.04 Bohr mag/cell
     absolute magnetization    =     0.04 Bohr mag/cell

     iteration #  3     ecut=    40.00 Ry     beta= 0.50
     Davidson diagonalization with overlap
     ethr =  5.03E-04,  avg # of iterations =  1.0

     total cpu time spent up to now is        3.1 secs

     total energy              =     -87.70279450 Ry
     estimated scf accuracy    <       0.00372830 Ry

     total magnetization       =    -0.04 Bohr mag/cell
     absolute magnetization    =     0.04 Bohr mag/cell

     iteration #  4     ecut=    40.00 Ry     beta= 0.50
     Davidson diagonalization with overlap
     ethr =  3.39E-05,  avg # of iterations =  2.0

     total cpu time spent up to now is        3.1 secs

     total energy              =     -87.70356480 Ry
     estimated scf accuracy    <       0.00013843 Ry

     total magnetization       =    -0.05 Bohr mag/cell
     absolute magnetization    =     0.05 Bohr mag/cell

     iteration #  5     ecut=    40.00 Ry     beta= 0.50
     Davidson diagonalization with overlap
     ethr =  1.26E-06,  avg # of iterations =  1.7

     total cpu time spent up to now is        3.2 secs

     total energy              =     -87.70366225 Ry
     estimated scf accuracy    <       0.00002327 Ry

     total magnetization       =    -0.12 Bohr mag/cell
     absolute magnetization    =     0.13 Bohr mag/cell

     iteration #  6     ecut=    40.00 Ry     beta= 0.50
     Davidson diagonalization with overlap
     ethr =  2.12E-07,  avg # of iterations =  1.0

     total cpu time spent up to now is        3.2 secs

     total energy              =     -87.70328648 Ry
     estimated scf accuracy    <       0.00002139 Ry

     total magnetization       =    -0.12 Bohr mag/cell
     absolute magnetization    =     0.13 Bohr mag/cell

     iteration #  7     ecut=    40.00 Ry     beta= 0.50
     Davidson diagonalization with overlap
     ethr =  1.94E-07,  avg # of iterations =  2.0

     total cpu time spent up to now is        3.2 secs

     total energy              =     -87.70354889 Ry
     estimated scf accuracy    <       0.00000244 Ry

     total magnetization       =     0.01 Bohr mag/cell
     absolute magnetization    =     0.01 Bohr mag/cell

     iteration #  8     ecut=    40.00 Ry     beta= 0.50
     Davidson diagonalization with overlap
     ethr =  2.21E-08,  avg # of iterations =  1.8

     total cpu time spent up to now is        3.3 secs

     total energy              =     -87.70355177 Ry
     estimated scf accuracy    <       0.00000055 Ry

     total magnetization       =    -0.00 Bohr mag/cell
     absolute magnetization    =     0.00 Bohr mag/cell

     iteration #  9     ecut=    40.00 Ry     beta= 0.50
     Davidson diagonalization with overlap
     ethr =  4.97E-09,  avg # of iterations =  1.5

     total cpu time spent up to now is        3.3 secs

     total energy              =     -87.70355214 Ry
     estimated scf accuracy    <       0.00000001 Ry

     total magnetization       =     0.00 Bohr mag/cell
     absolute magnetization    =     0.00 Bohr mag/cell

     iteration # 10     ecut=    40.00 Ry     beta= 0.50
     Davidson diagonalization with overlap
     ethr =  9.73E-11,  avg # of iterations =  1.8

     Magnetic moment per site  (integrated on atomic sphere of radius R)
     atom   1 (R=0.412)  charge=  9.6211  magn= -0.0001

     total cpu time spent up to now is        3.4 secs

     End of self-consistent calculation

 ------ SPIN UP ------------


          k = 0.0000 0.0000 0.0000 (   339 PWs)   bands (ev):

     3.3291   9.2493   9.2493   9.2493   9.9853   9.9853  34.4035  35.5983
    35.5983  35.5983

          k =-0.3301-0.3301 0.3301 (   392 PWs)   bands (ev):

     7.3955   9.2291   9.2291  10.4795  10.4795  11.0941  15.2902  32.3772
    32.3772  32.7349

          k =-0.6603 0.0000 0.0000 (   388 PWs)   bands (ev):

     7.6259   8.0229  10.4699  10.6004  10.6004  13.3680  18.4183  24.1572
    24.1572  28.5663

 ------ SPIN DOWN ----------


          k = 0.0000 0.0000 0.0000 (   339 PWs)   bands (ev):

     3.3290   9.2493   9.2493   9.2493   9.9853   9.9853  34.4034  35.5981
    35.5981  35.5981

          k =-0.3301-0.3301 0.3301 (   392 PWs)   bands (ev):

     7.3954   9.2291   9.2291  10.4794  10.4794  11.0940  15.2901  32.3771
    32.3771  32.7346

          k =-0.6603 0.0000 0.0000 (   388 PWs)   bands (ev):

     7.6258   8.0228  10.4699  10.6003  10.6003  13.3678  18.4182  24.1571
    24.1571  28.5661

     the Fermi energy is    11.1748 ev

!    total energy              =     -87.70355215 Ry
     estimated scf accuracy    <          1.1E-10 Ry
     smearing contrib. (-TS)   =      -0.00160808 Ry
     internal energy E=F+TS    =     -87.70194408 Ry

     The total energy is F=E-TS. E is the sum of the following terms:
     one-electron contribution =     -16.69982295 Ry
     hartree contribution      =      21.36404861 Ry
     xc contribution           =     -14.04211099 Ry
     ewald contribution        =     -78.32405874 Ry

     total magnetization       =    -0.00 Bohr mag/cell
     absolute magnetization    =     0.00 Bohr mag/cell

     convergence has been achieved in  10 iterations

     Forces acting on atoms (cartesian axes, Ry/au):

     atom    1 type  1   force =     0.00000000    0.00000000    0.00000000
     The non-local contrib.  to forces
     atom    1 type  1   force =     0.00000000   -0.00000000    0.00000000
     The ionic contribution  to forces
     atom    1 type  1   force =    -0.00000000   -0.00000000   -0.00000000
     The local contribution  to forces
     atom    1 type  1   force =     0.00000000    0.00000000    0.00000000
     The core correction contribution to forces
     atom    1 type  1   force =     0.00000000    0.00000000    0.00000000
     The Hubbard contrib.    to forces
     atom    1 type  1   force =     0.00000000    0.00000000    0.00000000
     The SCF correction term to forces
     atom    1 type  1   force =     0.00000000    0.00000000   -0.00000000

     Total force =     0.000000     Total SCF correction =     0.000000


     Computing stress (Cartesian axis) and pressure

          total   stress  (Ry/bohr**3)                   (kbar)     P=        4.53
   0.00003077   0.00000000   0.00000000            4.53        0.00        0.00
   0.00000000   0.00003077   0.00000000            0.00        4.53        0.00
   0.00000000   0.00000000   0.00003077            0.00        0.00        4.53


     init_run     :      0.55s CPU      0.56s WALL (       2 calls)
     electrons    :      2.20s CPU      2.20s WALL (       5 calls)
     update_pot   :      0.15s CPU      0.12s WALL (       3 calls)
     forces       :      0.12s CPU      0.09s WALL (       5 calls)
     stress       :      0.29s CPU      0.24s WALL (       5 calls)

     Called by init_run:
     wfcinit      :      0.02s CPU      0.03s WALL (       2 calls)
     potinit      :      0.23s CPU      0.24s WALL (       2 calls)
     hinit0       :      0.30s CPU      0.28s WALL (       2 calls)

     Called by electrons:
     c_bands      :      1.27s CPU      1.34s WALL (      77 calls)
     sum_band     :      0.48s CPU      0.45s WALL (      77 calls)
     v_of_rho     :      0.10s CPU      0.09s WALL (      82 calls)
     newd         :      0.17s CPU      0.15s WALL (      82 calls)
     mix_rho      :      0.10s CPU      0.09s WALL (      77 calls)

     Called by c_bands:
     init_us_2    :      0.02s CPU      0.02s WALL (     996 calls)
     init_us_2:cp :      0.02s CPU      0.02s WALL (     996 calls)
     cegterg      :      1.05s CPU      1.01s WALL (     462 calls)

     Called by *egterg:
     cdiaghg      :      0.23s CPU      0.22s WALL (    1289 calls)
     h_psi        :      0.65s CPU      0.63s WALL (    1319 calls)
     s_psi        :      0.01s CPU      0.01s WALL (    1319 calls)
     g_psi        :      0.00s CPU      0.00s WALL (     845 calls)

     Called by h_psi:
     h_psi:calbec :      0.06s CPU      0.05s WALL (    1319 calls)
     vloc_psi     :      0.57s CPU      0.56s WALL (    1319 calls)
     add_vuspsi   :      0.01s CPU      0.01s WALL (    1319 calls)

     General routines
     calbec       :      0.08s CPU      0.08s WALL (    1931 calls)
     fft          :      0.24s CPU      0.23s WALL (     910 calls)
     ffts         :      0.23s CPU      0.22s WALL (     318 calls)
     fftw         :      0.59s CPU      0.57s WALL (   26372 calls)
     interpolate  :      0.24s CPU      0.24s WALL (     164 calls)

     Parallel routines

     PWSCF        :      3.44s CPU      3.47s WALL


   This run was terminated on:  10:52:30   3Nov2023            

=------------------------------------------------------------------------------=
   JOB DONE.
=------------------------------------------------------------------------------=
