LAMMPS (29 Oct 2020)
Reading data file ...
  orthogonal box = (0.0000000 0.0000000 0.0000000) to (17.517900 17.517900 30.322500)
  1 by 1 by 1 MPI processor grid
  reading atoms ...
  216 atoms
  read_data CPU = 0.001 seconds
WARNING: No fixes defined, atoms won't move (../verlet.cpp:54)
Neighbor list info ...
  update every 1 steps, delay 10 steps, check yes
  max neighbors/atom: 2000, page size: 100000
  master list distance cutoff = 6.5
  ghost atom cutoff = 6.5
  binsize = 3.25, bins = 6 6 10
  1 neighbor lists, perpetual/occasional/extra = 1 0 0
  (1) pair lj/cut, perpetual
      attributes: half, newton on
      pair build: half/bin/atomonly/newton
      stencil: half/bin/3d/newton
      bin: standard
Setting up Verlet run ...
  Unit style    : metal
  Current step  : 0
  Time step     : 0.001
Per MPI rank memory allocation (min/avg/max) = 3.068 | 3.068 | 3.068 Mbytes
Step PotEng Lx Ly Lz Press Pxx Pyy Pzz 
       0   -445.19293      17.5179      17.5179      30.3225    203.49142   -1261.2427   -1261.2427    3132.9597 
Loop time of 9.53674e-07 on 1 procs for 0 steps with 216 atoms

209.7% CPU use with 1 MPI tasks x no OpenMP threads

MPI task timing breakdown:
Section |  min time  |  avg time  |  max time  |%varavg| %total
---------------------------------------------------------------
Pair    | 0          | 0          | 0          |   0.0 |  0.00
Neigh   | 0          | 0          | 0          |   0.0 |  0.00
Comm    | 0          | 0          | 0          |   0.0 |  0.00
Output  | 0          | 0          | 0          |   0.0 |  0.00
Modify  | 0          | 0          | 0          |   0.0 |  0.00
Other   |            | 9.537e-07  |            |       |100.00

Nlocal:        216.000 ave         216 max         216 min
Histogram: 1 0 0 0 0 0 0 0 0 0
Nghost:        447.000 ave         447 max         447 min
Histogram: 1 0 0 0 0 0 0 0 0 0
Neighs:        4752.00 ave        4752 max        4752 min
Histogram: 1 0 0 0 0 0 0 0 0 0

Total # of neighbors = 4752
Ave neighs/atom = 22.000000
Neighbor list builds = 0
Dangerous builds = 0
Total energy (eV) = -445.192925433947
Number of atoms = 216
Lattice constant (Angstoms) = 17.5179
Total wall time: 0:00:00
