
     Program PWSCF v.7.2 starts on  1Nov2023 at 17: 5:36 

     This program is part of the open-source Quantum ESPRESSO suite
     for quantum simulation of materials; please cite
         "P. Giannozzi et al., J. Phys.:Condens. Matter 21 395502 (2009);
         "P. Giannozzi et al., J. Phys.:Condens. Matter 29 465901 (2017);
         "P. Giannozzi et al., J. Chem. Phys. 152 154105 (2020);
          URL http://www.quantum-espresso.org", 
     in publications or presentations arising from this work. More details at
     http://www.quantum-espresso.org/quote

     Parallel version (MPI), running on     4 processors

     MPI processes distributed on     4 nodes
     186315 MiB available memory on the printing compute node when the environment starts

     Waiting for input...
     Reading input from standard input

     Current dimensions of program PWSCF are:
     Max number of different atomic species (ntypx) = 10
     Max number of k-points (npk) =  40000
     Max angular momentum in pseudopotentials (lmaxx) =  4
     file Fe.pbe-nd-rrkjus.UPF: wavefunction(s)  4S renormalized
     Message from routine setup:
     using ibrav=0 with symmetry is DISCOURAGED, use correct ibrav instead

     R & G space division:  proc/nbgrp/npool/nimage =       4
     Subspace diagonalization in iterative solution of the eigenvalue problem:
     a serial algorithm will be used


     Parallelization info
     --------------------
     sticks:   dense  smooth     PW     G-vecs:    dense   smooth      PW
     Min          95      45     22                 1181      400     138
     Max          96      46     23                 1183      401     139
     Sum         383     181     91                 4729     1601     555

     Using Slab Decomposition



     bravais-lattice index     =            0
     lattice parameter (alat)  =       4.5899  a.u.
     unit-cell volume          =      74.4385 (a.u.)^3
     number of atoms/cell      =            1
     number of atomic types    =            1
     number of electrons       =         8.00
     number of Kohn-Sham states=            8
     kinetic-energy cutoff     =      30.0000  Ry
     charge density cutoff     =     240.0000  Ry
     scf convergence threshold =      1.0E-07
     mixing beta               =       0.5000
     number of iterations used =            8  plain     mixing
     energy convergence thresh.=      1.0E-04
     force convergence thresh. =      1.0E-03
     press convergence thresh. =      5.0E-01
     Exchange-correlation=  SLA  PW   PBE  PBE
                           (   1   4   3   4   0   0   0)
     nstep                     =           50


     celldm(1)=   4.589935  celldm(2)=   0.000000  celldm(3)=   0.000000
     celldm(4)=   0.000000  celldm(5)=   0.000000  celldm(6)=   0.000000

     crystal axes: (cart. coord. in units of alat)
               a(1) = (  -0.577350   0.577350   0.577350 )  
               a(2) = (   0.577350  -0.577350   0.577350 )  
               a(3) = (   0.577350   0.577350  -0.577350 )  

     reciprocal axes: (cart. coord. in units 2 pi/alat)
               b(1) = (  0.000000  0.866025  0.866025 )  
               b(2) = (  0.866025  0.000000  0.866025 )  
               b(3) = (  0.866025  0.866025  0.000000 )  


     PseudoPot. # 1 for Fe read from file:
     /home/gridsan/epan1/labutil/lab3_samples/pseudopotentials/Fe.pbe-nd-rrkjus.UPF
     MD5 check sum: 398036227a04b607635f6f5e8dfd8242
     Pseudo is Ultrasoft + core correction, Zval =  8.0
     Generated by new atomic code, or converted to UPF format
     Using radial grid of  957 points,  6 beta functions with: 
                l(1) =   0
                l(2) =   0
                l(3) =   1
                l(4) =   1
                l(5) =   2
                l(6) =   2
     Q(r) pseudized with 0 coefficients 


     atomic species   valence    mass     pseudopotential
        Fe             8.00    55.84500     Fe( 1.00)

     Starting magnetic structure 
     atomic species   magnetization
        Fe           0.700

     48 Sym. Ops., with inversion, found



   Cartesian axes

     site n.     atom                  positions (alat units)
         1           Fe  tau(   1) = (   0.0000000   0.0000000   0.0000000  )

     number of k points=     8  Methfessel-Paxton smearing, width (Ry)=  0.0200
                       cart. coord. in units 2pi/alat
        k(    1) = (   0.0000000   0.0000000   0.0000000), wk =   0.0156250
        k(    2) = (   0.2165064   0.2165064   0.0000000), wk =   0.1875000
        k(    3) = (  -0.4330127  -0.4330127   0.0000000), wk =   0.0937500
        k(    4) = (   0.4330127   0.2165064   0.2165064), wk =   0.3750000
        k(    5) = (   0.4330127   0.4330127   0.4330127), wk =   0.0312500
        k(    6) = (   0.0000000   0.0000000   0.4330127), wk =   0.0937500
        k(    7) = (  -0.8660254  -0.2165064  -0.2165064), wk =   0.1875000
        k(    8) = (  -0.8660254  -0.8660254  -0.8660254), wk =   0.0156250

     Dense  grid:     4729 G-vectors     FFT dimensions: (  24,  24,  24)

     Smooth grid:     1601 G-vectors     FFT dimensions: (  15,  15,  15)

     Estimated max dynamical RAM per process >       7.48 MB

     Estimated total dynamical RAM >      29.92 MB
     Generating pointlists ...
     new r_m :   0.4125 (alat units)  1.8933 (a.u.) for type    1

     Initial potential from superposition of free atoms

     starting charge       7.9994, renormalised to       8.0000
     Starting wfcs are    6 randomized atomic wfcs +    2 random wfcs

     total cpu time spent up to now is        3.2 secs

     Self-consistent Calculation

     iteration #  1     ecut=    30.00 Ry     beta= 0.50
     Davidson diagonalization with overlap
     ethr =  1.00E-02,  avg # of iterations =  5.3

     total cpu time spent up to now is        5.9 secs

     total energy              =     -55.68485059 Ry
     estimated scf accuracy    <       0.33624255 Ry

     total magnetization       =     2.76 Bohr mag/cell
     absolute magnetization    =     2.76 Bohr mag/cell

     iteration #  2     ecut=    30.00 Ry     beta= 0.50
     Davidson diagonalization with overlap
     ethr =  4.20E-03,  avg # of iterations =  1.8

     total cpu time spent up to now is        7.8 secs

     total energy              =     -55.77703805 Ry
     estimated scf accuracy    <       0.03567158 Ry

     total magnetization       =     2.78 Bohr mag/cell
     absolute magnetization    =     2.78 Bohr mag/cell

     iteration #  3     ecut=    30.00 Ry     beta= 0.50
     Davidson diagonalization with overlap
     ethr =  4.46E-04,  avg # of iterations =  1.7

     total cpu time spent up to now is        9.7 secs

     total energy              =     -55.79300200 Ry
     estimated scf accuracy    <       0.00471216 Ry

     total magnetization       =     2.79 Bohr mag/cell
     absolute magnetization    =     2.80 Bohr mag/cell

     iteration #  4     ecut=    30.00 Ry     beta= 0.50
     Davidson diagonalization with overlap
     ethr =  5.89E-05,  avg # of iterations =  3.1

     total cpu time spent up to now is       11.3 secs

     total energy              =     -55.79491073 Ry
     estimated scf accuracy    <       0.00173395 Ry

     total magnetization       =     2.63 Bohr mag/cell
     absolute magnetization    =     2.69 Bohr mag/cell

     iteration #  5     ecut=    30.00 Ry     beta= 0.50
     Davidson diagonalization with overlap
     ethr =  2.17E-05,  avg # of iterations =  2.8

     total cpu time spent up to now is       14.1 secs

     total energy              =     -55.79582556 Ry
     estimated scf accuracy    <       0.00075190 Ry

     total magnetization       =     2.60 Bohr mag/cell
     absolute magnetization    =     2.67 Bohr mag/cell

     iteration #  6     ecut=    30.00 Ry     beta= 0.50
     Davidson diagonalization with overlap
     ethr =  9.40E-06,  avg # of iterations =  2.7

     total cpu time spent up to now is       15.2 secs

     total energy              =     -55.79501426 Ry
     estimated scf accuracy    <       0.00247896 Ry

     total magnetization       =     2.51 Bohr mag/cell
     absolute magnetization    =     2.61 Bohr mag/cell

     iteration #  7     ecut=    30.00 Ry     beta= 0.50
     Davidson diagonalization with overlap
     ethr =  9.40E-06,  avg # of iterations =  2.6

     total cpu time spent up to now is       17.2 secs

     total energy              =     -55.79684701 Ry
     estimated scf accuracy    <       0.00120062 Ry

     total magnetization       =     2.20 Bohr mag/cell
     absolute magnetization    =     2.32 Bohr mag/cell

     iteration #  8     ecut=    30.00 Ry     beta= 0.50
     Davidson diagonalization with overlap
     ethr =  9.40E-06,  avg # of iterations =  1.0

     total cpu time spent up to now is       18.1 secs

     total energy              =     -55.79416258 Ry
     estimated scf accuracy    <       0.00074288 Ry

     total magnetization       =     2.26 Bohr mag/cell
     absolute magnetization    =     2.38 Bohr mag/cell

     iteration #  9     ecut=    30.00 Ry     beta= 0.50
     Davidson diagonalization with overlap
     ethr =  9.29E-06,  avg # of iterations =  1.1

     total cpu time spent up to now is       18.5 secs

     total energy              =     -55.78989819 Ry
     estimated scf accuracy    <       0.00030091 Ry

     total magnetization       =     2.53 Bohr mag/cell
     absolute magnetization    =     2.63 Bohr mag/cell

     iteration # 10     ecut=    30.00 Ry     beta= 0.50
     Davidson diagonalization with overlap
     ethr =  3.76E-06,  avg # of iterations =  2.9

     total cpu time spent up to now is       19.1 secs

     total energy              =     -55.79339079 Ry
     estimated scf accuracy    <       0.00427784 Ry

     total magnetization       =     2.75 Bohr mag/cell
     absolute magnetization    =     2.82 Bohr mag/cell

     iteration # 11     ecut=    30.00 Ry     beta= 0.50
     Davidson diagonalization with overlap
     ethr =  3.76E-06,  avg # of iterations =  2.3

     total cpu time spent up to now is       20.3 secs

     total energy              =     -55.79548739 Ry
     estimated scf accuracy    <       0.00083352 Ry

     total magnetization       =     2.40 Bohr mag/cell
     absolute magnetization    =     2.50 Bohr mag/cell

     iteration # 12     ecut=    30.00 Ry     beta= 0.50
     Davidson diagonalization with overlap
     ethr =  3.76E-06,  avg # of iterations =  1.9

     total cpu time spent up to now is       21.1 secs

     total energy              =     -55.78703845 Ry
     estimated scf accuracy    <       0.00220629 Ry

     total magnetization       =     2.00 Bohr mag/cell
     absolute magnetization    =     2.13 Bohr mag/cell

     iteration # 13     ecut=    30.00 Ry     beta= 0.50
     Davidson diagonalization with overlap
     ethr =  3.76E-06,  avg # of iterations =  2.9

     total cpu time spent up to now is       22.4 secs

     total energy              =     -55.79739072 Ry
     estimated scf accuracy    <       0.00580913 Ry

     total magnetization       =     1.76 Bohr mag/cell
     absolute magnetization    =     1.87 Bohr mag/cell

     iteration # 14     ecut=    30.00 Ry     beta= 0.50
     Davidson diagonalization with overlap
     ethr =  3.76E-06,  avg # of iterations =  1.9

     total cpu time spent up to now is       23.2 secs

     total energy              =     -55.79686868 Ry
     estimated scf accuracy    <       0.00107710 Ry

     total magnetization       =     1.94 Bohr mag/cell
     absolute magnetization    =     2.03 Bohr mag/cell

     iteration # 15     ecut=    30.00 Ry     beta= 0.50
     Davidson diagonalization with overlap
     ethr =  3.76E-06,  avg # of iterations =  1.0

     total cpu time spent up to now is       24.3 secs

     total energy              =     -55.79802227 Ry
     estimated scf accuracy    <       0.00188329 Ry

     total magnetization       =     1.85 Bohr mag/cell
     absolute magnetization    =     1.95 Bohr mag/cell

     iteration # 16     ecut=    30.00 Ry     beta= 0.50
     Davidson diagonalization with overlap
     ethr =  3.76E-06,  avg # of iterations =  1.9

     total cpu time spent up to now is       26.0 secs

     total energy              =     -55.79827036 Ry
     estimated scf accuracy    <       0.00002351 Ry

     total magnetization       =     2.01 Bohr mag/cell
     absolute magnetization    =     2.11 Bohr mag/cell

     iteration # 17     ecut=    30.00 Ry     beta= 0.50
     Davidson diagonalization with overlap
     ethr =  2.94E-07,  avg # of iterations =  3.0
     Minimization algorithm failed to find Fermi energy: reverting to bisection
     Possible cause: smearing is larger than the electronic band-gap.

     total cpu time spent up to now is       28.2 secs

     total energy              =     -55.78726454 Ry
     estimated scf accuracy    <       0.00325422 Ry

     total magnetization       =     1.92 Bohr mag/cell
     absolute magnetization    =     2.02 Bohr mag/cell

     iteration # 18     ecut=    30.00 Ry     beta= 0.50
     Davidson diagonalization with overlap
     ethr =  2.94E-07,  avg # of iterations =  3.8

     total cpu time spent up to now is       32.0 secs

     total energy              =     -55.79251418 Ry
     estimated scf accuracy    <       0.00701073 Ry

     total magnetization       =     1.75 Bohr mag/cell
     absolute magnetization    =     1.82 Bohr mag/cell

     iteration # 19     ecut=    30.00 Ry     beta= 0.50
     Davidson diagonalization with overlap
     ethr =  2.94E-07,  avg # of iterations =  4.4

     total cpu time spent up to now is       33.8 secs

     total energy              =     -55.78511385 Ry
     estimated scf accuracy    <       0.00181973 Ry

     total magnetization       =     1.96 Bohr mag/cell
     absolute magnetization    =     2.11 Bohr mag/cell

     iteration # 20     ecut=    30.00 Ry     beta= 0.50
     Davidson diagonalization with overlap
     ethr =  2.94E-07,  avg # of iterations =  4.3

     total cpu time spent up to now is       35.4 secs

     total energy              =     -55.79517649 Ry
     estimated scf accuracy    <       0.00683898 Ry

     total magnetization       =     1.75 Bohr mag/cell
     absolute magnetization    =     1.81 Bohr mag/cell

     iteration # 21     ecut=    30.00 Ry     beta= 0.50
     Davidson diagonalization with overlap
     ethr =  2.94E-07,  avg # of iterations =  4.2

     total cpu time spent up to now is       36.8 secs

     total energy              =     -55.79931041 Ry
     estimated scf accuracy    <       0.00020522 Ry

     total magnetization       =     2.00 Bohr mag/cell
     absolute magnetization    =     2.10 Bohr mag/cell

     iteration # 22     ecut=    30.00 Ry     beta= 0.50
     Davidson diagonalization with overlap
     ethr =  2.94E-07,  avg # of iterations =  2.6
     Minimization algorithm failed to find Fermi energy: reverting to bisection
     Possible cause: smearing is larger than the electronic band-gap.

     total cpu time spent up to now is       38.0 secs

     total energy              =     -55.79678704 Ry
     estimated scf accuracy    <       0.00233848 Ry

     total magnetization       =     1.95 Bohr mag/cell
     absolute magnetization    =     2.06 Bohr mag/cell

     iteration # 23     ecut=    30.00 Ry     beta= 0.50
     Davidson diagonalization with overlap
     ethr =  2.94E-07,  avg # of iterations =  3.4

     total cpu time spent up to now is       39.7 secs

     total energy              =     -55.79932763 Ry
     estimated scf accuracy    <       0.00209216 Ry

     total magnetization       =     2.05 Bohr mag/cell
     absolute magnetization    =     2.16 Bohr mag/cell

     iteration # 24     ecut=    30.00 Ry     beta= 0.50
     Davidson diagonalization with overlap
     ethr =  2.94E-07,  avg # of iterations =  2.8

     total cpu time spent up to now is       41.1 secs

     total energy              =     -55.79990782 Ry
     estimated scf accuracy    <       0.00025268 Ry

     total magnetization       =     1.99 Bohr mag/cell
     absolute magnetization    =     2.10 Bohr mag/cell

     iteration # 25     ecut=    30.00 Ry     beta= 0.50
     Davidson diagonalization with overlap
     ethr =  2.94E-07,  avg # of iterations =  1.4

     total cpu time spent up to now is       42.2 secs

     total energy              =     -55.79919104 Ry
     estimated scf accuracy    <       0.00008233 Ry

     total magnetization       =     2.00 Bohr mag/cell
     absolute magnetization    =     2.10 Bohr mag/cell

     iteration # 26     ecut=    30.00 Ry     beta= 0.50
     Davidson diagonalization with overlap
     ethr =  2.94E-07,  avg # of iterations =  2.6

     total cpu time spent up to now is       43.9 secs

     total energy              =     -55.79970887 Ry
     estimated scf accuracy    <       0.00078918 Ry

     total magnetization       =     2.00 Bohr mag/cell
     absolute magnetization    =     2.12 Bohr mag/cell

     iteration # 27     ecut=    30.00 Ry     beta= 0.50
     Davidson diagonalization with overlap
     ethr =  2.94E-07,  avg # of iterations =  2.2

     total cpu time spent up to now is       48.2 secs

     total energy              =     -55.79979197 Ry
     estimated scf accuracy    <       0.00024108 Ry

     total magnetization       =     1.99 Bohr mag/cell
     absolute magnetization    =     2.10 Bohr mag/cell

     iteration # 28     ecut=    30.00 Ry     beta= 0.50
     Davidson diagonalization with overlap
     ethr =  2.94E-07,  avg # of iterations =  2.8

     total cpu time spent up to now is       49.3 secs

     total energy              =     -55.79991581 Ry
     estimated scf accuracy    <       0.00013188 Ry

     total magnetization       =     2.01 Bohr mag/cell
     absolute magnetization    =     2.10 Bohr mag/cell

     iteration # 29     ecut=    30.00 Ry     beta= 0.50
     Davidson diagonalization with overlap
     ethr =  2.94E-07,  avg # of iterations =  1.8

     total cpu time spent up to now is       50.3 secs

     total energy              =     -55.79991280 Ry
     estimated scf accuracy    <       0.00002161 Ry

     total magnetization       =     2.00 Bohr mag/cell
     absolute magnetization    =     2.10 Bohr mag/cell

     iteration # 30     ecut=    30.00 Ry     beta= 0.50
     Davidson diagonalization with overlap
     ethr =  2.70E-07,  avg # of iterations =  1.1

     total cpu time spent up to now is       53.3 secs

     total energy              =     -55.79991601 Ry
     estimated scf accuracy    <       0.00004976 Ry

     total magnetization       =     2.00 Bohr mag/cell
     absolute magnetization    =     2.10 Bohr mag/cell

     iteration # 31     ecut=    30.00 Ry     beta= 0.50
     Davidson diagonalization with overlap
     ethr =  2.70E-07,  avg # of iterations =  1.4

     total cpu time spent up to now is       54.8 secs

     total energy              =     -55.79990119 Ry
     estimated scf accuracy    <       0.00005424 Ry

     total magnetization       =     2.01 Bohr mag/cell
     absolute magnetization    =     2.11 Bohr mag/cell

     iteration # 32     ecut=    30.00 Ry     beta= 0.50
     Davidson diagonalization with overlap
     ethr =  2.70E-07,  avg # of iterations =  1.2

     total cpu time spent up to now is       55.7 secs

     total energy              =     -55.79991108 Ry
     estimated scf accuracy    <       0.00002487 Ry

     total magnetization       =     2.01 Bohr mag/cell
     absolute magnetization    =     2.10 Bohr mag/cell

     iteration # 33     ecut=    30.00 Ry     beta= 0.50
     Davidson diagonalization with overlap
     ethr =  2.70E-07,  avg # of iterations =  1.0

     total cpu time spent up to now is       56.9 secs

     total energy              =     -55.79992648 Ry
     estimated scf accuracy    <       0.00002794 Ry

     total magnetization       =     2.01 Bohr mag/cell
     absolute magnetization    =     2.10 Bohr mag/cell

     iteration # 34     ecut=    30.00 Ry     beta= 0.50
     Davidson diagonalization with overlap
     ethr =  2.70E-07,  avg # of iterations =  1.2

     total cpu time spent up to now is       58.0 secs

     total energy              =     -55.79992630 Ry
     estimated scf accuracy    <       0.00000023 Ry

     total magnetization       =     2.01 Bohr mag/cell
     absolute magnetization    =     2.10 Bohr mag/cell

     iteration # 35     ecut=    30.00 Ry     beta= 0.50
     Davidson diagonalization with overlap
     ethr =  2.86E-09,  avg # of iterations =  2.2

     total cpu time spent up to now is       58.6 secs

     total energy              =     -55.79992646 Ry
     estimated scf accuracy    <       0.00000011 Ry

     total magnetization       =     2.01 Bohr mag/cell
     absolute magnetization    =     2.10 Bohr mag/cell

     iteration # 36     ecut=    30.00 Ry     beta= 0.50
     Davidson diagonalization with overlap
     ethr =  1.38E-09,  avg # of iterations =  1.2

     Magnetic moment per site  (integrated on atomic sphere of radius R)
     atom   1 (R=0.413)  charge=  6.4569  magn=  2.0403

     total cpu time spent up to now is       59.5 secs

     End of self-consistent calculation

 ------ SPIN UP ------------


          k = 0.0000 0.0000 0.0000 (   201 PWs)   bands (ev):

     5.5276  11.9204  11.9204  11.9204  13.0729  13.0729  39.0730  39.0730

          k = 0.2165 0.2165 0.0000 (   205 PWs)   bands (ev):

     7.8497  11.3207  11.7228  12.9442  13.1478  13.2150  30.3212  35.5241

          k =-0.4330-0.4330 0.0000 (   194 PWs)   bands (ev):

     9.0970  10.7664  13.1931  13.2799  14.7264  14.7731  21.8645  32.6042

          k = 0.4330 0.2165 0.2165 (   202 PWs)   bands (ev):

    10.0542  10.7615  11.4780  13.0895  13.5396  16.7080  25.5270  26.4866

          k = 0.4330 0.4330 0.4330 (   216 PWs)   bands (ev):

    10.9219  10.9219  10.9219  13.3174  13.3174  23.1022  23.1022  23.1022

          k = 0.0000 0.0000 0.4330 (   209 PWs)   bands (ev):

     9.3901  11.0488  12.3818  12.3818  13.1686  14.4548  31.7462  31.7462

          k =-0.8660-0.2165-0.2165 (   210 PWs)   bands (ev):

     9.7765  10.3274  12.3184  12.9437  14.6274  19.5158  22.3604  28.4014

          k =-0.8660-0.8660-0.8660 (   236 PWs)   bands (ev):

     9.1012   9.1012  14.4837  14.4837  14.4837  24.3795  24.3795  24.3795

 ------ SPIN DOWN ----------


          k = 0.0000 0.0000 0.0000 (   201 PWs)   bands (ev):

     5.6563  13.6979  13.6979  13.6979  16.0019  16.0019  38.8683  38.8683

          k = 0.2165 0.2165 0.0000 (   205 PWs)   bands (ev):

     8.0763  12.9925  13.3926  15.1070  15.6084  16.0944  30.9471  35.6519

          k =-0.4330-0.4330 0.0000 (   194 PWs)   bands (ev):

    10.3390  12.3515  14.8026  15.8077  16.2809  16.8493  23.1750  32.6694

          k = 0.4330 0.2165 0.2165 (   202 PWs)   bands (ev):

    11.0636  12.3897  12.8328  15.6261  16.2423  18.2937  26.3932  27.1370

          k = 0.4330 0.4330 0.4330 (   216 PWs)   bands (ev):

    12.2007  12.2007  12.2007  16.3311  16.3311  23.9384  23.9384  23.9384

          k = 0.0000 0.0000 0.4330 (   209 PWs)   bands (ev):

     9.9815  13.3973  14.0946  14.0946  15.0689  16.9517  32.2867  32.2867

          k =-0.8660-0.2165-0.2165 (   210 PWs)   bands (ev):

    11.5458  12.1377  14.0275  14.8747  16.6879  20.5724  23.3836  28.8485

          k =-0.8660-0.8660-0.8660 (   236 PWs)   bands (ev):

    11.0257  11.0257  16.5288  16.5288  16.5288  24.5696  24.5696  24.5696

     the Fermi energy is    14.5177 ev

!    total energy              =     -55.79992646 Ry
     estimated scf accuracy    <          1.1E-09 Ry
     smearing contrib. (-TS)   =       0.00015885 Ry
     internal energy E=F+TS    =     -55.80008531 Ry

     The total energy is F=E-TS. E is the sum of the following terms:
     one-electron contribution =       8.22222076 Ry
     hartree contribution      =       6.38678984 Ry
     xc contribution           =     -26.46363855 Ry
     ewald contribution        =     -43.94545736 Ry

     total magnetization       =     2.01 Bohr mag/cell
     absolute magnetization    =     2.10 Bohr mag/cell

     convergence has been achieved in  36 iterations

     Forces acting on atoms (cartesian axes, Ry/au):

     atom    1 type  1   force =     0.00000000    0.00000000    0.00000000
     The non-local contrib.  to forces
     atom    1 type  1   force =     0.00000000    0.00000000    0.00000000
     The ionic contribution  to forces
     atom    1 type  1   force =    -0.00000000   -0.00000000   -0.00000000
     The local contribution  to forces
     atom    1 type  1   force =    -0.00000000    0.00000000    0.00000000
     The core correction contribution to forces
     atom    1 type  1   force =     0.00000000    0.00000000   -0.00000000
     The Hubbard contrib.    to forces
     atom    1 type  1   force =     0.00000000    0.00000000    0.00000000
     The SCF correction term to forces
     atom    1 type  1   force =    -0.00000000   -0.00000000   -0.00000000

     Total force =     0.000000     Total SCF correction =     0.000000


     Computing stress (Cartesian axis) and pressure

          total   stress  (Ry/bohr**3)                   (kbar)     P=       28.00
   0.00019031  -0.00000000  -0.00000000           28.00       -0.00       -0.00
  -0.00000000   0.00019031  -0.00000000           -0.00       28.00       -0.00
  -0.00000000  -0.00000000   0.00019031           -0.00       -0.00       28.00


     BFGS Geometry Optimization
     Energy error            =      0.0E+00 Ry
     Gradient error          =      0.0E+00 Ry/Bohr
     Cell gradient error     =      2.8E+01 kbar

     number of scf cycles    =   1
     number of bfgs steps    =   0

     enthalpy           new  =     -55.7999264550 Ry

     new trust radius        =       0.0082097861 bohr
     new conv_thr            =       0.0000001000 Ry

     new unit-cell volume =     75.50606 a.u.^3 (    11.18884 Ang^3 )
     density =      8.28797 g/cm^3

CELL_PARAMETERS (angstrom)
  -1.408991618   1.408991618   1.408991618
   1.408991618  -1.408991618   1.408991618
   1.408991618   1.408991618  -1.408991618

ATOMIC_POSITIONS (angstrom)
Fe            0.0000000000        0.0000000000        0.0000000000



     Writing config-only to output data dir /home/gridsan/epan1/labutil/lab3_samples/problem1/Lab3/Fe_bcc_a_2.8046394196999995_ecut_30_nk_4/pwscf.save/
     NEW-OLD atomic charge density approx. for the potential
     extrapolated charge    8.11310, renormalised to    8.00000
     Generating pointlists ...

     total cpu time spent up to now is       61.9 secs

     Self-consistent Calculation

     iteration #  1     ecut=    30.00 Ry     beta= 0.50
     Davidson diagonalization with overlap
     ethr =  1.00E-06,  avg # of iterations =  3.9

     total cpu time spent up to now is       63.9 secs

     total energy              =     -55.78259394 Ry
     estimated scf accuracy    <       0.02076638 Ry

     total magnetization       =     1.91 Bohr mag/cell
     absolute magnetization    =     2.00 Bohr mag/cell

     iteration #  2     ecut=    30.00 Ry     beta= 0.50
     Davidson diagonalization with overlap
     ethr =  2.60E-04,  avg # of iterations =  2.2

     total cpu time spent up to now is       65.3 secs

     total energy              =     -55.79937618 Ry
     estimated scf accuracy    <       0.03871920 Ry

     total magnetization       =     1.99 Bohr mag/cell
     absolute magnetization    =     2.10 Bohr mag/cell

     iteration #  3     ecut=    30.00 Ry     beta= 0.50
     Davidson diagonalization with overlap
     ethr =  2.60E-04,  avg # of iterations =  1.2

     total cpu time spent up to now is       65.8 secs

     total energy              =     -55.80027148 Ry
     estimated scf accuracy    <       0.00676448 Ry

     total magnetization       =     1.99 Bohr mag/cell
     absolute magnetization    =     2.10 Bohr mag/cell

     iteration #  4     ecut=    30.00 Ry     beta= 0.50
     Davidson diagonalization with overlap
     ethr =  8.46E-05,  avg # of iterations =  1.1

     total cpu time spent up to now is       67.8 secs

     total energy              =     -55.80061052 Ry
     estimated scf accuracy    <       0.00210712 Ry

     total magnetization       =     2.00 Bohr mag/cell
     absolute magnetization    =     2.10 Bohr mag/cell

     iteration #  5     ecut=    30.00 Ry     beta= 0.50
     Davidson diagonalization with overlap
     ethr =  2.63E-05,  avg # of iterations =  1.0

     total cpu time spent up to now is       69.3 secs

     total energy              =     -55.80069131 Ry
     estimated scf accuracy    <       0.00239333 Ry

     total magnetization       =     2.00 Bohr mag/cell
     absolute magnetization    =     2.10 Bohr mag/cell

     iteration #  6     ecut=    30.00 Ry     beta= 0.50
     Davidson diagonalization with overlap
     ethr =  2.63E-05,  avg # of iterations =  1.0

     total cpu time spent up to now is       70.9 secs

     total energy              =     -55.79957972 Ry
     estimated scf accuracy    <       0.00247936 Ry

     total magnetization       =     2.00 Bohr mag/cell
     absolute magnetization    =     2.10 Bohr mag/cell

     iteration #  7     ecut=    30.00 Ry     beta= 0.50
     Davidson diagonalization with overlap
     ethr =  2.63E-05,  avg # of iterations =  1.6

     total cpu time spent up to now is       72.7 secs

     total energy              =     -55.80006856 Ry
     estimated scf accuracy    <       0.00001704 Ry

     total magnetization       =     2.00 Bohr mag/cell
     absolute magnetization    =     2.10 Bohr mag/cell

     iteration #  8     ecut=    30.00 Ry     beta= 0.50
     Davidson diagonalization with overlap
     ethr =  2.13E-07,  avg # of iterations =  4.1

     total cpu time spent up to now is       75.4 secs

     total energy              =     -55.80039302 Ry
     estimated scf accuracy    <       0.00177470 Ry

     total magnetization       =     1.98 Bohr mag/cell
     absolute magnetization    =     2.08 Bohr mag/cell

     iteration #  9     ecut=    30.00 Ry     beta= 0.50
     Davidson diagonalization with overlap
     ethr =  2.13E-07,  avg # of iterations =  1.0

     total cpu time spent up to now is       76.5 secs

     total energy              =     -55.79960879 Ry
     estimated scf accuracy    <       0.00191240 Ry

     total magnetization       =     1.98 Bohr mag/cell
     absolute magnetization    =     2.08 Bohr mag/cell

     iteration # 10     ecut=    30.00 Ry     beta= 0.50
     Davidson diagonalization with overlap
     ethr =  2.13E-07,  avg # of iterations =  3.6

     total cpu time spent up to now is       77.7 secs

     total energy              =     -55.79997287 Ry
     estimated scf accuracy    <       0.00008550 Ry

     total magnetization       =     2.00 Bohr mag/cell
     absolute magnetization    =     2.10 Bohr mag/cell

     iteration # 11     ecut=    30.00 Ry     beta= 0.50
     Davidson diagonalization with overlap
     ethr =  2.13E-07,  avg # of iterations =  2.9

     total cpu time spent up to now is       78.7 secs

     total energy              =     -55.79994158 Ry
     estimated scf accuracy    <       0.00023969 Ry

     total magnetization       =     2.00 Bohr mag/cell
     absolute magnetization    =     2.09 Bohr mag/cell

     iteration # 12     ecut=    30.00 Ry     beta= 0.50
     Davidson diagonalization with overlap
     ethr =  2.13E-07,  avg # of iterations =  3.1

     total cpu time spent up to now is       79.5 secs

     total energy              =     -55.80006479 Ry
     estimated scf accuracy    <       0.00015775 Ry

     total magnetization       =     2.00 Bohr mag/cell
     absolute magnetization    =     2.10 Bohr mag/cell

     iteration # 13     ecut=    30.00 Ry     beta= 0.50
     Davidson diagonalization with overlap
     ethr =  2.13E-07,  avg # of iterations =  1.3

     total cpu time spent up to now is       79.9 secs

     total energy              =     -55.79998279 Ry
     estimated scf accuracy    <       0.00022239 Ry

     total magnetization       =     2.00 Bohr mag/cell
     absolute magnetization    =     2.10 Bohr mag/cell

     iteration # 14     ecut=    30.00 Ry     beta= 0.50
     Davidson diagonalization with overlap
     ethr =  2.13E-07,  avg # of iterations =  2.5

     total cpu time spent up to now is       80.2 secs

     total energy              =     -55.80001480 Ry
     estimated scf accuracy    <       0.00000300 Ry

     total magnetization       =     2.00 Bohr mag/cell
     absolute magnetization    =     2.10 Bohr mag/cell

     iteration # 15     ecut=    30.00 Ry     beta= 0.50
     Davidson diagonalization with overlap
     ethr =  3.74E-08,  avg # of iterations =  1.1

     total cpu time spent up to now is       80.7 secs

     total energy              =     -55.80001164 Ry
     estimated scf accuracy    <       0.00000916 Ry

     total magnetization       =     2.00 Bohr mag/cell
     absolute magnetization    =     2.10 Bohr mag/cell

     iteration # 16     ecut=    30.00 Ry     beta= 0.50
     Davidson diagonalization with overlap
     ethr =  3.74E-08,  avg # of iterations =  2.1

     total cpu time spent up to now is       81.1 secs

     total energy              =     -55.80001358 Ry
     estimated scf accuracy    <       0.00000028 Ry

     total magnetization       =     2.00 Bohr mag/cell
     absolute magnetization    =     2.10 Bohr mag/cell

     iteration # 17     ecut=    30.00 Ry     beta= 0.50
     Davidson diagonalization with overlap
     ethr =  3.49E-09,  avg # of iterations =  1.2

     total cpu time spent up to now is       81.7 secs

     total energy              =     -55.80001349 Ry
     estimated scf accuracy    <       0.00000045 Ry

     total magnetization       =     2.00 Bohr mag/cell
     absolute magnetization    =     2.10 Bohr mag/cell

     iteration # 18     ecut=    30.00 Ry     beta= 0.50
     Davidson diagonalization with overlap
     ethr =  3.49E-09,  avg # of iterations =  1.1

     Magnetic moment per site  (integrated on atomic sphere of radius R)
     atom   1 (R=0.413)  charge=  6.4393  magn=  2.0364

     total cpu time spent up to now is       82.2 secs

     End of self-consistent calculation

 ------ SPIN UP ------------


          k = 0.0000 0.0000 0.0000 (   201 PWs)   bands (ev):

     5.3548  11.7000  11.7000  11.7000  12.8162  12.8162  38.6851  38.6851

          k = 0.2155 0.2155 0.0000 (   205 PWs)   bands (ev):

     7.6572  11.1134  11.5029  12.6940  12.8891  12.9681  29.9062  35.1244

          k =-0.4310-0.4310 0.0000 (   194 PWs)   bands (ev):

     8.9223  10.5705  12.9366  13.0172  14.4713  14.4932  21.4779  32.2306

          k = 0.4310 0.2155 0.2155 (   202 PWs)   bands (ev):

     9.8603  10.5609  11.2630  12.8377  13.2751  16.4016  25.1475  26.0753

          k = 0.4310 0.4310 0.4310 (   216 PWs)   bands (ev):

    10.7198  10.7198  10.7198  13.0538  13.0538  22.7447  22.7447  22.7447

          k = 0.0000 0.0000 0.4310 (   209 PWs)   bands (ev):

     9.1901  10.8399  12.1527  12.1527  12.9233  14.1692  31.3017  31.3017

          k =-0.8619-0.2155-0.2155 (   210 PWs)   bands (ev):

     9.5922  10.1307  12.0909  12.7003  14.3508  19.1900  21.9822  27.9903

          k =-0.8619-0.8619-0.8619 (   236 PWs)   bands (ev):

     8.9316   8.9316  14.2102  14.2102  14.2102  24.0195  24.0195  24.0195

 ------ SPIN DOWN ----------


          k = 0.0000 0.0000 0.0000 (   201 PWs)   bands (ev):

     5.4723  13.4684  13.4684  13.4684  15.7464  15.7464  38.4657  38.4657

          k = 0.2155 0.2155 0.0000 (   205 PWs)   bands (ev):

     7.8704  12.7770  13.1689  14.8506  15.3577  15.8368  30.5184  35.2413

          k =-0.4310-0.4310 0.0000 (   194 PWs)   bands (ev):

    10.1569  12.1478  14.5343  15.5494  16.0186  16.5588  22.7775  32.2858

          k = 0.4310 0.2155 0.2155 (   202 PWs)   bands (ev):

    10.8552  12.1847  12.6129  15.3723  15.9760  17.9791  25.9984  26.7141

          k = 0.4310 0.4310 0.4310 (   216 PWs)   bands (ev):

    11.9906  11.9906  11.9906  16.0677  16.0677  23.5664  23.5664  23.5664

          k = 0.0000 0.0000 0.4310 (   209 PWs)   bands (ev):

     9.7675  13.1929  13.8571  13.8571  14.8142  16.6686  31.8286  31.8286

          k =-0.8619-0.2155-0.2155 (   210 PWs)   bands (ev):

    11.3604  11.9410  13.7917  14.6262  16.4008  20.2350  22.9932  28.4240

          k =-0.8619-0.8619-0.8619 (   236 PWs)   bands (ev):

    10.8595  10.8595  16.2449  16.2449  16.2449  24.1972  24.1972  24.1972

     the Fermi energy is    14.2373 ev

!    total energy              =     -55.80001350 Ry
     estimated scf accuracy    <       0.00000005 Ry
     smearing contrib. (-TS)   =       0.00026255 Ry
     internal energy E=F+TS    =     -55.80027605 Ry

     The total energy is F=E-TS. E is the sum of the following terms:
     one-electron contribution =       7.92793523 Ry
     hartree contribution      =       6.46171513 Ry
     xc contribution           =     -26.45256115 Ry
     ewald contribution        =     -43.73736526 Ry

     total magnetization       =     2.00 Bohr mag/cell
     absolute magnetization    =     2.10 Bohr mag/cell

     convergence has been achieved in  18 iterations

     Forces acting on atoms (cartesian axes, Ry/au):

     atom    1 type  1   force =     0.00000000    0.00000000    0.00000000
     The non-local contrib.  to forces
     atom    1 type  1   force =     0.00000000    0.00000000    0.00000000
     The ionic contribution  to forces
     atom    1 type  1   force =    -0.00000000   -0.00000000   -0.00000000
     The local contribution  to forces
     atom    1 type  1   force =    -0.00000000   -0.00000000   -0.00000000
     The core correction contribution to forces
     atom    1 type  1   force =    -0.00000000   -0.00000000   -0.00000000
     The Hubbard contrib.    to forces
     atom    1 type  1   force =     0.00000000    0.00000000    0.00000000
     The SCF correction term to forces
     atom    1 type  1   force =     0.00000000   -0.00000000   -0.00000000

     Total force =     0.000000     Total SCF correction =     0.000000


     Computing stress (Cartesian axis) and pressure

          total   stress  (Ry/bohr**3)                   (kbar)     P=       -8.09
  -0.00005502  -0.00000000  -0.00000000           -8.09       -0.00       -0.00
  -0.00000000  -0.00005502  -0.00000000           -0.00       -8.09       -0.00
  -0.00000000  -0.00000000  -0.00005502           -0.00       -0.00       -8.09

     Energy error            =      8.7E-05 Ry
     Gradient error          =      0.0E+00 Ry/Bohr
     Cell gradient error     =      8.1E+00 kbar

     number of scf cycles    =   2
     number of bfgs steps    =   1

     enthalpy           old  =     -55.7999264550 Ry
     enthalpy           new  =     -55.8000134983 Ry

     CASE: enthalpy          _new < enthalpy          _old

     new trust radius        =       0.0018592078 bohr
     new conv_thr            =       0.0000000010 Ry

     new unit-cell volume =     75.26399 a.u.^3 (    11.15297 Ang^3 )
     density =      8.31463 g/cm^3

CELL_PARAMETERS (angstrom)
  -1.407484263   1.407484263   1.407484263
   1.407484263  -1.407484263   1.407484263
   1.407484263   1.407484263  -1.407484263

ATOMIC_POSITIONS (angstrom)
Fe            0.0000000000        0.0000000000        0.0000000000



     Writing config-only to output data dir /home/gridsan/epan1/labutil/lab3_samples/problem1/Lab3/Fe_bcc_a_2.8046394196999995_ecut_30_nk_4/pwscf.save/
     NEW-OLD atomic charge density approx. for the potential
     extrapolated charge    7.97427, renormalised to    8.00000
     Generating pointlists ...

     total cpu time spent up to now is       84.1 secs

     Self-consistent Calculation

     iteration #  1     ecut=    30.00 Ry     beta= 0.50
     Davidson diagonalization with overlap
     ethr =  1.00E-06,  avg # of iterations =  2.5

     total cpu time spent up to now is       85.8 secs

     total energy              =     -55.79957712 Ry
     estimated scf accuracy    <       0.00047840 Ry

     total magnetization       =     2.00 Bohr mag/cell
     absolute magnetization    =     2.10 Bohr mag/cell

     iteration #  2     ecut=    30.00 Ry     beta= 0.50
     Davidson diagonalization with overlap
     ethr =  5.98E-06,  avg # of iterations =  2.4

     total cpu time spent up to now is       87.2 secs

     total energy              =     -55.79993068 Ry
     estimated scf accuracy    <       0.00151071 Ry

     total magnetization       =     1.99 Bohr mag/cell
     absolute magnetization    =     2.08 Bohr mag/cell

     iteration #  3     ecut=    30.00 Ry     beta= 0.50
     Davidson diagonalization with overlap
     ethr =  5.98E-06,  avg # of iterations =  1.4

     total cpu time spent up to now is       87.8 secs

     total energy              =     -55.80000701 Ry
     estimated scf accuracy    <       0.00014343 Ry

     total magnetization       =     2.00 Bohr mag/cell
     absolute magnetization    =     2.09 Bohr mag/cell

     iteration #  4     ecut=    30.00 Ry     beta= 0.50
     Davidson diagonalization with overlap
     ethr =  1.79E-06,  avg # of iterations =  1.2

     total cpu time spent up to now is       89.8 secs

     total energy              =     -55.80001009 Ry
     estimated scf accuracy    <       0.00001787 Ry

     total magnetization       =     2.00 Bohr mag/cell
     absolute magnetization    =     2.10 Bohr mag/cell

     iteration #  5     ecut=    30.00 Ry     beta= 0.50
     Davidson diagonalization with overlap
     ethr =  2.23E-07,  avg # of iterations =  1.7

     total cpu time spent up to now is       90.9 secs

     total energy              =     -55.80001442 Ry
     estimated scf accuracy    <       0.00000023 Ry

     total magnetization       =     2.00 Bohr mag/cell
     absolute magnetization    =     2.10 Bohr mag/cell

     iteration #  6     ecut=    30.00 Ry     beta= 0.50
     Davidson diagonalization with overlap
     ethr =  2.84E-09,  avg # of iterations =  2.9

     total cpu time spent up to now is       92.3 secs

     total energy              =     -55.80001475 Ry
     estimated scf accuracy    <       0.00000085 Ry

     total magnetization       =     2.00 Bohr mag/cell
     absolute magnetization    =     2.10 Bohr mag/cell

     iteration #  7     ecut=    30.00 Ry     beta= 0.50
     Davidson diagonalization with overlap
     ethr =  2.84E-09,  avg # of iterations =  1.1

     total cpu time spent up to now is       93.9 secs

     total energy              =     -55.80001416 Ry
     estimated scf accuracy    <       0.00000178 Ry

     total magnetization       =     2.00 Bohr mag/cell
     absolute magnetization    =     2.10 Bohr mag/cell

     iteration #  8     ecut=    30.00 Ry     beta= 0.50
     Davidson diagonalization with overlap
     ethr =  2.84E-09,  avg # of iterations =  2.1

     total cpu time spent up to now is       96.6 secs

     total energy              =     -55.80001440 Ry
     estimated scf accuracy    <       0.00000002 Ry

     total magnetization       =     2.00 Bohr mag/cell
     absolute magnetization    =     2.10 Bohr mag/cell

     iteration #  9     ecut=    30.00 Ry     beta= 0.50
     Davidson diagonalization with overlap
     ethr =  2.14E-10,  avg # of iterations =  2.1

     Magnetic moment per site  (integrated on atomic sphere of radius R)
     atom   1 (R=0.413)  charge=  6.4433  magn=  2.0374

     total cpu time spent up to now is       98.5 secs

     End of self-consistent calculation

 ------ SPIN UP ------------


          k = 0.0000 0.0000 0.0000 (   201 PWs)   bands (ev):

     5.3933  11.7491  11.7491  11.7491  12.8734  12.8734  38.7721  38.7721

          k = 0.2157 0.2157 0.0000 (   205 PWs)   bands (ev):

     7.7001  11.1596  11.5519  12.7497  12.9468  13.0232  29.9991  35.2141

          k =-0.4314-0.4314 0.0000 (   194 PWs)   bands (ev):

     8.9613  10.6141  12.9938  13.0758  14.5283  14.5556  21.5643  32.3144

          k = 0.4314 0.2157 0.2157 (   202 PWs)   bands (ev):

     9.9035  10.6056  11.3109  12.8938  13.3341  16.4700  25.2324  26.1674

          k = 0.4314 0.4314 0.4314 (   216 PWs)   bands (ev):

    10.7649  10.7649  10.7649  13.1125  13.1125  22.8247  22.8247  22.8247

          k = 0.0000 0.0000 0.4314 (   209 PWs)   bands (ev):

     9.2347  10.8864  12.2038  12.2038  12.9780  14.2329  31.4012  31.4012

          k =-0.8628-0.2157-0.2157 (   210 PWs)   bands (ev):

     9.6333  10.1746  12.1416  12.7546  14.4125  19.2628  22.0668  28.0823

          k =-0.8628-0.8628-0.8628 (   236 PWs)   bands (ev):

     8.9694   8.9694  14.2712  14.2712  14.2712  24.1001  24.1001  24.1001

 ------ SPIN DOWN ----------


          k = 0.0000 0.0000 0.0000 (   201 PWs)   bands (ev):

     5.5135  13.5192  13.5192  13.5192  15.8031  15.8031  38.5563  38.5563

          k = 0.2157 0.2157 0.0000 (   205 PWs)   bands (ev):

     7.9166  12.8247  13.2185  14.9074  15.4133  15.8939  30.6144  35.3337

          k =-0.4314-0.4314 0.0000 (   194 PWs)   bands (ev):

    10.1975  12.1930  14.5945  15.6067  16.0767  16.6232  22.8662  32.3721

          k = 0.4314 0.2157 0.2157 (   202 PWs)   bands (ev):

    10.9017  12.2303  12.6618  15.4285  16.0350  18.0491  26.0868  26.8088

          k = 0.4314 0.4314 0.4314 (   216 PWs)   bands (ev):

    12.0373  12.0373  12.0373  16.1261  16.1261  23.6496  23.6496  23.6496

          k = 0.0000 0.0000 0.4314 (   209 PWs)   bands (ev):

     9.8154  13.2383  13.9098  13.9098  14.8707  16.7315  31.9312  31.9312

          k =-0.8628-0.2157-0.2157 (   210 PWs)   bands (ev):

    11.4016  11.9849  13.8440  14.6814  16.4644  20.3104  23.0805  28.5191

          k =-0.8628-0.8628-0.8628 (   236 PWs)   bands (ev):

    10.8965  10.8965  16.3078  16.3078  16.3078  24.2808  24.2808  24.2808

     the Fermi energy is    14.2999 ev

!    total energy              =     -55.80001440 Ry
     estimated scf accuracy    <          1.4E-10 Ry
     smearing contrib. (-TS)   =       0.00024116 Ry
     internal energy E=F+TS    =     -55.80025557 Ry

     The total energy is F=E-TS. E is the sum of the following terms:
     one-electron contribution =       7.99387153 Ry
     hartree contribution      =       6.44538963 Ry
     xc contribution           =     -26.45531065 Ry
     ewald contribution        =     -43.78420608 Ry

     total magnetization       =     2.00 Bohr mag/cell
     absolute magnetization    =     2.10 Bohr mag/cell

     convergence has been achieved in   9 iterations

     Forces acting on atoms (cartesian axes, Ry/au):

     atom    1 type  1   force =     0.00000000    0.00000000    0.00000000
     The non-local contrib.  to forces
     atom    1 type  1   force =     0.00000000    0.00000000   -0.00000000
     The ionic contribution  to forces
     atom    1 type  1   force =    -0.00000000   -0.00000000   -0.00000000
     The local contribution  to forces
     atom    1 type  1   force =    -0.00000000    0.00000000   -0.00000000
     The core correction contribution to forces
     atom    1 type  1   force =    -0.00000000   -0.00000000   -0.00000000
     The Hubbard contrib.    to forces
     atom    1 type  1   force =     0.00000000    0.00000000    0.00000000
     The SCF correction term to forces
     atom    1 type  1   force =    -0.00000000   -0.00000000   -0.00000000

     Total force =     0.000000     Total SCF correction =     0.000000


     Computing stress (Cartesian axis) and pressure

          total   stress  (Ry/bohr**3)                   (kbar)     P=        3.24
   0.00002203   0.00000000   0.00000000            3.24        0.00        0.00
   0.00000000   0.00002203   0.00000000            0.00        3.24        0.00
   0.00000000   0.00000000   0.00002203            0.00        0.00        3.24

     Energy error            =      9.1E-07 Ry
     Gradient error          =      0.0E+00 Ry/Bohr
     Cell gradient error     =      3.2E+00 kbar

     number of scf cycles    =   3
     number of bfgs steps    =   2

     enthalpy           old  =     -55.8000134983 Ry
     enthalpy           new  =     -55.8000144040 Ry

     CASE: enthalpy          _new < enthalpy          _old

     new trust radius        =       0.0005304791 bohr
     new conv_thr            =       0.0000000010 Ry

     new unit-cell volume =     75.33304 a.u.^3 (    11.16321 Ang^3 )
     density =      8.30701 g/cm^3

CELL_PARAMETERS (angstrom)
  -1.407914580   1.407914580   1.407914580
   1.407914580  -1.407914580   1.407914580
   1.407914580   1.407914580  -1.407914580

ATOMIC_POSITIONS (angstrom)
Fe            0.0000000000        0.0000000000        0.0000000000



     Writing config-only to output data dir /home/gridsan/epan1/labutil/lab3_samples/problem1/Lab3/Fe_bcc_a_2.8046394196999995_ecut_30_nk_4/pwscf.save/
     NEW-OLD atomic charge density approx. for the potential
     extrapolated charge    8.00733, renormalised to    8.00000
     Generating pointlists ...

     total cpu time spent up to now is      100.5 secs

     Self-consistent Calculation

     iteration #  1     ecut=    30.00 Ry     beta= 0.50
     Davidson diagonalization with overlap
     ethr =  1.00E-06,  avg # of iterations =  2.0

     total cpu time spent up to now is      102.2 secs

     total energy              =     -55.79996213 Ry
     estimated scf accuracy    <       0.00006084 Ry

     total magnetization       =     2.00 Bohr mag/cell
     absolute magnetization    =     2.09 Bohr mag/cell

     iteration #  2     ecut=    30.00 Ry     beta= 0.50
     Davidson diagonalization with overlap
     ethr =  7.61E-07,  avg # of iterations =  2.3

     total cpu time spent up to now is      103.4 secs

     total energy              =     -55.80001172 Ry
     estimated scf accuracy    <       0.00013816 Ry

     total magnetization       =     2.00 Bohr mag/cell
     absolute magnetization    =     2.10 Bohr mag/cell

     iteration #  3     ecut=    30.00 Ry     beta= 0.50
     Davidson diagonalization with overlap
     ethr =  7.61E-07,  avg # of iterations =  1.2

     total cpu time spent up to now is      104.4 secs

     total energy              =     -55.80001879 Ry
     estimated scf accuracy    <       0.00002220 Ry

     total magnetization       =     2.00 Bohr mag/cell
     absolute magnetization    =     2.10 Bohr mag/cell

     iteration #  4     ecut=    30.00 Ry     beta= 0.50
     Davidson diagonalization with overlap
     ethr =  2.77E-07,  avg # of iterations =  1.0

     total cpu time spent up to now is      105.5 secs

     total energy              =     -55.80001836 Ry
     estimated scf accuracy    <       0.00001560 Ry

     total magnetization       =     2.00 Bohr mag/cell
     absolute magnetization    =     2.10 Bohr mag/cell

     iteration #  5     ecut=    30.00 Ry     beta= 0.50
     Davidson diagonalization with overlap
     ethr =  1.95E-07,  avg # of iterations =  1.0

     total cpu time spent up to now is      106.2 secs

     total energy              =     -55.80001295 Ry
     estimated scf accuracy    <       0.00001294 Ry

     total magnetization       =     2.00 Bohr mag/cell
     absolute magnetization    =     2.10 Bohr mag/cell

     iteration #  6     ecut=    30.00 Ry     beta= 0.50
     Davidson diagonalization with overlap
     ethr =  1.62E-07,  avg # of iterations =  1.4

     total cpu time spent up to now is      106.6 secs

     total energy              =     -55.80001530 Ry
     estimated scf accuracy    <       0.00000003 Ry

     total magnetization       =     2.00 Bohr mag/cell
     absolute magnetization    =     2.10 Bohr mag/cell

     iteration #  7     ecut=    30.00 Ry     beta= 0.50
     Davidson diagonalization with overlap
     ethr =  3.41E-10,  avg # of iterations =  3.4

     total cpu time spent up to now is      108.1 secs

     total energy              =     -55.80001536 Ry
     estimated scf accuracy    <       0.00000002 Ry

     total magnetization       =     2.00 Bohr mag/cell
     absolute magnetization    =     2.10 Bohr mag/cell

     iteration #  8     ecut=    30.00 Ry     beta= 0.50
     Davidson diagonalization with overlap
     ethr =  2.37E-10,  avg # of iterations =  1.3

     Magnetic moment per site  (integrated on atomic sphere of radius R)
     atom   1 (R=0.413)  charge=  6.4422  magn=  2.0371

     total cpu time spent up to now is      109.7 secs

     End of self-consistent calculation

 ------ SPIN UP ------------


          k = 0.0000 0.0000 0.0000 (   201 PWs)   bands (ev):

     5.3821  11.7349  11.7349  11.7349  12.8568  12.8568  38.7471  38.7471

          k = 0.2156 0.2156 0.0000 (   205 PWs)   bands (ev):

     7.6877  11.1462  11.5377  12.7336  12.9301  13.0072  29.9724  35.1883

          k =-0.4313-0.4313 0.0000 (   194 PWs)   bands (ev):

     8.9500  10.6014  12.9772  13.0588  14.5119  14.5376  21.5394  32.2903

          k = 0.4313 0.2156 0.2156 (   202 PWs)   bands (ev):

     9.8910  10.5926  11.2970  12.8775  13.3170  16.4503  25.2080  26.1409

          k = 0.4313 0.4313 0.4313 (   216 PWs)   bands (ev):

    10.7518  10.7518  10.7518  13.0955  13.0955  22.8016  22.8016  22.8016

          k = 0.0000 0.0000 0.4313 (   209 PWs)   bands (ev):

     9.2218  10.8729  12.1889  12.1889  12.9621  14.2145  31.3726  31.3726

          k =-0.8626-0.2156-0.2156 (   210 PWs)   bands (ev):

     9.6214  10.1619  12.1269  12.7389  14.3946  19.2418  22.0425  28.0558

          k =-0.8626-0.8626-0.8626 (   236 PWs)   bands (ev):

     8.9584   8.9584  14.2535  14.2535  14.2535  24.0769  24.0769  24.0769

 ------ SPIN DOWN ----------


          k = 0.0000 0.0000 0.0000 (   201 PWs)   bands (ev):

     5.5018  13.5044  13.5044  13.5044  15.7865  15.7865  38.5305  38.5305

          k = 0.2156 0.2156 0.0000 (   205 PWs)   bands (ev):

     7.9034  12.8108  13.2041  14.8909  15.3971  15.8772  30.5869  35.3074

          k =-0.4313-0.4313 0.0000 (   194 PWs)   bands (ev):

    10.1858  12.1798  14.5774  15.5900  16.0597  16.6044  22.8406  32.3476

          k = 0.4313 0.2156 0.2156 (   202 PWs)   bands (ev):

    10.8884  12.2171  12.6476  15.4121  16.0178  18.0288  26.0614  26.7817

          k = 0.4313 0.4313 0.4313 (   216 PWs)   bands (ev):

    12.0238  12.0238  12.0238  16.1090  16.1090  23.6257  23.6257  23.6257

          k = 0.0000 0.0000 0.4313 (   209 PWs)   bands (ev):

     9.8017  13.2251  13.8944  13.8944  14.8542  16.7132  31.9019  31.9019

          k =-0.8626-0.2156-0.2156 (   210 PWs)   bands (ev):

    11.3897  11.9722  13.8288  14.6653  16.4459  20.2888  23.0554  28.4919

          k =-0.8626-0.8626-0.8626 (   236 PWs)   bands (ev):

    10.8858  10.8858  16.2895  16.2895  16.2895  24.2569  24.2569  24.2569

     the Fermi energy is    14.2818 ev

!    total energy              =     -55.80001536 Ry
     estimated scf accuracy    <          3.2E-10 Ry
     smearing contrib. (-TS)   =       0.00024749 Ry
     internal energy E=F+TS    =     -55.80026285 Ry

     The total energy is F=E-TS. E is the sum of the following terms:
     one-electron contribution =       7.97492977 Ry
     hartree contribution      =       6.45023672 Ry
     xc contribution           =     -26.45460552 Ry
     ewald contribution        =     -43.77082382 Ry

     total magnetization       =     2.00 Bohr mag/cell
     absolute magnetization    =     2.10 Bohr mag/cell

     convergence has been achieved in   8 iterations

     Forces acting on atoms (cartesian axes, Ry/au):

     atom    1 type  1   force =     0.00000000    0.00000000    0.00000000
     The non-local contrib.  to forces
     atom    1 type  1   force =     0.00000000    0.00000000    0.00000000
     The ionic contribution  to forces
     atom    1 type  1   force =    -0.00000000   -0.00000000   -0.00000000
     The local contribution  to forces
     atom    1 type  1   force =     0.00000000    0.00000000   -0.00000000
     The core correction contribution to forces
     atom    1 type  1   force =     0.00000000    0.00000000   -0.00000000
     The Hubbard contrib.    to forces
     atom    1 type  1   force =     0.00000000    0.00000000    0.00000000
     The SCF correction term to forces
     atom    1 type  1   force =     0.00000000   -0.00000000   -0.00000000

     Total force =     0.000000     Total SCF correction =     0.000000


     Computing stress (Cartesian axis) and pressure

          total   stress  (Ry/bohr**3)                   (kbar)     P=        1.15
   0.00000779  -0.00000000  -0.00000000            1.15       -0.00       -0.00
  -0.00000000   0.00000779  -0.00000000           -0.00        1.15       -0.00
  -0.00000000  -0.00000000   0.00000779           -0.00       -0.00        1.15

     Energy error            =      9.6E-07 Ry
     Gradient error          =      0.0E+00 Ry/Bohr
     Cell gradient error     =      1.1E+00 kbar

     number of scf cycles    =   4
     number of bfgs steps    =   3

     enthalpy           old  =     -55.8000144040 Ry
     enthalpy           new  =     -55.8000153596 Ry

     CASE: enthalpy          _new < enthalpy          _old

     new trust radius        =       0.0002904328 bohr
     new conv_thr            =       0.0000000010 Ry

     new unit-cell volume =     75.37086 a.u.^3 (    11.16881 Ang^3 )
     density =      8.30284 g/cm^3

CELL_PARAMETERS (angstrom)
  -1.408150138   1.408150138   1.408150138
   1.408150138  -1.408150138   1.408150138
   1.408150138   1.408150138  -1.408150138

ATOMIC_POSITIONS (angstrom)
Fe            0.0000000000        0.0000000000        0.0000000000



     Writing config-only to output data dir /home/gridsan/epan1/labutil/lab3_samples/problem1/Lab3/Fe_bcc_a_2.8046394196999995_ecut_30_nk_4/pwscf.save/
     NEW-OLD atomic charge density approx. for the potential
     extrapolated charge    8.00401, renormalised to    8.00000
     Generating pointlists ...

     total cpu time spent up to now is      112.1 secs

     Self-consistent Calculation

     iteration #  1     ecut=    30.00 Ry     beta= 0.50
     Davidson diagonalization with overlap
     ethr =  1.00E-06,  avg # of iterations =  2.0

     total cpu time spent up to now is      114.4 secs

     total energy              =     -55.80000028 Ry
     estimated scf accuracy    <       0.00001724 Ry

     total magnetization       =     2.00 Bohr mag/cell
     absolute magnetization    =     2.10 Bohr mag/cell

     iteration #  2     ecut=    30.00 Ry     beta= 0.50
     Davidson diagonalization with overlap
     ethr =  2.15E-07,  avg # of iterations =  2.3

     total cpu time spent up to now is      115.0 secs

     total energy              =     -55.80001423 Ry
     estimated scf accuracy    <       0.00004081 Ry

     total magnetization       =     2.00 Bohr mag/cell
     absolute magnetization    =     2.10 Bohr mag/cell

     iteration #  3     ecut=    30.00 Ry     beta= 0.50
     Davidson diagonalization with overlap
     ethr =  2.15E-07,  avg # of iterations =  1.2

     total cpu time spent up to now is      116.1 secs

     total energy              =     -55.80001558 Ry
     estimated scf accuracy    <       0.00000618 Ry

     total magnetization       =     2.00 Bohr mag/cell
     absolute magnetization    =     2.10 Bohr mag/cell

     iteration #  4     ecut=    30.00 Ry     beta= 0.50
     Davidson diagonalization with overlap
     ethr =  7.72E-08,  avg # of iterations =  1.1

     total cpu time spent up to now is      116.7 secs

     total energy              =     -55.80001515 Ry
     estimated scf accuracy    <       0.00000170 Ry

     total magnetization       =     2.00 Bohr mag/cell
     absolute magnetization    =     2.10 Bohr mag/cell

     iteration #  5     ecut=    30.00 Ry     beta= 0.50
     Davidson diagonalization with overlap
     ethr =  2.13E-08,  avg # of iterations =  1.4

     total cpu time spent up to now is      117.9 secs

     total energy              =     -55.80001546 Ry
     estimated scf accuracy    <          2.1E-09 Ry

     total magnetization       =     2.00 Bohr mag/cell
     absolute magnetization    =     2.10 Bohr mag/cell

     iteration #  6     ecut=    30.00 Ry     beta= 0.50
     Davidson diagonalization with overlap
     ethr =  2.67E-11,  avg # of iterations =  4.4

     total cpu time spent up to now is      119.3 secs

     total energy              =     -55.80001549 Ry
     estimated scf accuracy    <       0.00000006 Ry

     total magnetization       =     2.00 Bohr mag/cell
     absolute magnetization    =     2.10 Bohr mag/cell

     iteration #  7     ecut=    30.00 Ry     beta= 0.50
     Davidson diagonalization with overlap
     ethr =  2.67E-11,  avg # of iterations =  1.0

     total cpu time spent up to now is      120.6 secs

     total energy              =     -55.80001548 Ry
     estimated scf accuracy    <       0.00000006 Ry

     total magnetization       =     2.00 Bohr mag/cell
     absolute magnetization    =     2.10 Bohr mag/cell

     iteration #  8     ecut=    30.00 Ry     beta= 0.50
     Davidson diagonalization with overlap
     ethr =  2.67E-11,  avg # of iterations =  2.0

     total cpu time spent up to now is      121.6 secs

     total energy              =     -55.80001547 Ry
     estimated scf accuracy    <       0.00000002 Ry

     total magnetization       =     2.00 Bohr mag/cell
     absolute magnetization    =     2.10 Bohr mag/cell

     iteration #  9     ecut=    30.00 Ry     beta= 0.50
     Davidson diagonalization with overlap
     ethr =  2.67E-11,  avg # of iterations =  2.9

     total cpu time spent up to now is      123.6 secs

     total energy              =     -55.80001547 Ry
     estimated scf accuracy    <          1.4E-09 Ry

     total magnetization       =     2.00 Bohr mag/cell
     absolute magnetization    =     2.10 Bohr mag/cell

     iteration # 10     ecut=    30.00 Ry     beta= 0.50
     Davidson diagonalization with overlap
     ethr =  1.81E-11,  avg # of iterations =  1.0

     total cpu time spent up to now is      125.2 secs

     total energy              =     -55.80001547 Ry
     estimated scf accuracy    <          1.3E-09 Ry

     total magnetization       =     2.00 Bohr mag/cell
     absolute magnetization    =     2.10 Bohr mag/cell

     iteration # 11     ecut=    30.00 Ry     beta= 0.50
     Davidson diagonalization with overlap
     ethr =  1.59E-11,  avg # of iterations =  1.3

     Magnetic moment per site  (integrated on atomic sphere of radius R)
     atom   1 (R=0.413)  charge=  6.4416  magn=  2.0370

     total cpu time spent up to now is      126.7 secs

     End of self-consistent calculation

 ------ SPIN UP ------------


          k = 0.0000 0.0000 0.0000 (   201 PWs)   bands (ev):

     5.3762  11.7272  11.7272  11.7272  12.8478  12.8478  38.7335  38.7335

          k = 0.2156 0.2156 0.0000 (   205 PWs)   bands (ev):

     7.6810  11.1389  11.5300  12.7248  12.9210  12.9986  29.9579  35.1743

          k =-0.4312-0.4312 0.0000 (   194 PWs)   bands (ev):

     8.9439  10.5946  12.9682  13.0496  14.5030  14.5278  21.5259  32.2772

          k = 0.4312 0.2156 0.2156 (   202 PWs)   bands (ev):

     9.8842  10.5856  11.2895  12.8687  13.3077  16.4396  25.1947  26.1265

          k = 0.4312 0.4312 0.4312 (   216 PWs)   bands (ev):

    10.7447  10.7447  10.7447  13.0863  13.0863  22.7891  22.7891  22.7891

          k = 0.0000 0.0000 0.4312 (   209 PWs)   bands (ev):

     9.2149  10.8656  12.1809  12.1809  12.9535  14.2045  31.3570  31.3570

          k =-0.8624-0.2156-0.2156 (   210 PWs)   bands (ev):

     9.6149  10.1550  12.1190  12.7304  14.3849  19.2304  22.0292  28.0415

          k =-0.8624-0.8624-0.8624 (   236 PWs)   bands (ev):

     8.9525   8.9525  14.2440  14.2440  14.2440  24.0644  24.0644  24.0644

 ------ SPIN DOWN ----------


          k = 0.0000 0.0000 0.0000 (   201 PWs)   bands (ev):

     5.4954  13.4963  13.4963  13.4963  15.7776  15.7776  38.5164  38.5164

          k = 0.2156 0.2156 0.0000 (   205 PWs)   bands (ev):

     7.8962  12.8032  13.1963  14.8819  15.3884  15.8682  30.5719  35.2929

          k =-0.4312-0.4312 0.0000 (   194 PWs)   bands (ev):

    10.1794  12.1726  14.5679  15.5809  16.0506  16.5942  22.8267  32.3341

          k = 0.4312 0.2156 0.2156 (   202 PWs)   bands (ev):

    10.8811  12.2099  12.6399  15.4032  16.0085  18.0178  26.0476  26.7669

          k = 0.4312 0.4312 0.4312 (   216 PWs)   bands (ev):

    12.0164  12.0164  12.0164  16.0998  16.0998  23.6126  23.6126  23.6126

          k = 0.0000 0.0000 0.4312 (   209 PWs)   bands (ev):

     9.7942  13.2180  13.8861  13.8861  14.8453  16.7033  31.8858  31.8858

          k =-0.8624-0.2156-0.2156 (   210 PWs)   bands (ev):

    11.3832  11.9653  13.8205  14.6566  16.4358  20.2770  23.0417  28.4770

          k =-0.8624-0.8624-0.8624 (   236 PWs)   bands (ev):

    10.8799  10.8799  16.2795  16.2795  16.2795  24.2438  24.2438  24.2438

     the Fermi energy is    14.2720 ev

!    total energy              =     -55.80001547 Ry
     estimated scf accuracy    <          2.2E-13 Ry
     smearing contrib. (-TS)   =       0.00025088 Ry
     internal energy E=F+TS    =     -55.80026636 Ry

     The total energy is F=E-TS. E is the sum of the following terms:
     one-electron contribution =       7.96457074 Ry
     hartree contribution      =       6.45288193 Ry
     xc contribution           =     -26.45421730 Ry
     ewald contribution        =     -43.76350173 Ry

     total magnetization       =     2.00 Bohr mag/cell
     absolute magnetization    =     2.10 Bohr mag/cell

     convergence has been achieved in  11 iterations

     Forces acting on atoms (cartesian axes, Ry/au):

     atom    1 type  1   force =     0.00000000    0.00000000    0.00000000
     The non-local contrib.  to forces
     atom    1 type  1   force =     0.00000000    0.00000000    0.00000000
     The ionic contribution  to forces
     atom    1 type  1   force =    -0.00000000   -0.00000000   -0.00000000
     The local contribution  to forces
     atom    1 type  1   force =    -0.00000000   -0.00000000   -0.00000000
     The core correction contribution to forces
     atom    1 type  1   force =     0.00000000    0.00000000    0.00000000
     The Hubbard contrib.    to forces
     atom    1 type  1   force =     0.00000000    0.00000000    0.00000000
     The SCF correction term to forces
     atom    1 type  1   force =     0.00000000    0.00000000    0.00000000

     Total force =     0.000000     Total SCF correction =     0.000000


     Computing stress (Cartesian axis) and pressure

          total   stress  (Ry/bohr**3)                   (kbar)     P=       -0.12
  -0.00000083   0.00000000   0.00000000           -0.12        0.00        0.00
   0.00000000  -0.00000083   0.00000000            0.00       -0.12        0.00
   0.00000000   0.00000000  -0.00000083            0.00        0.00       -0.12

     Energy error            =      1.1E-07 Ry
     Gradient error          =      0.0E+00 Ry/Bohr
     Cell gradient error     =      1.2E-01 kbar

     bfgs converged in   5 scf cycles and   4 bfgs steps
     (criteria: energy <  1.0E-04 Ry, force <  1.0E-03 Ry/Bohr, cell <  5.0E-01 kbar)

     End of BFGS Geometry Optimization

     Final enthalpy           =     -55.8000154732 Ry

     File /home/gridsan/epan1/labutil/lab3_samples/problem1/Lab3/Fe_bcc_a_2.8046394196999995_ecut_30_nk_4/pwscf.bfgs deleted, as requested
Begin final coordinates
     new unit-cell volume =     75.37086 a.u.^3 (    11.16881 Ang^3 )
     density =      8.30284 g/cm^3

CELL_PARAMETERS (angstrom)
  -1.408150138   1.408150138   1.408150138
   1.408150138  -1.408150138   1.408150138
   1.408150138   1.408150138  -1.408150138

ATOMIC_POSITIONS (angstrom)
Fe            0.0000000000        0.0000000000        0.0000000000
End final coordinates



     Writing config-only to output data dir /home/gridsan/epan1/labutil/lab3_samples/problem1/Lab3/Fe_bcc_a_2.8046394196999995_ecut_30_nk_4/pwscf.save/

     Final scf calculation at the relaxed structure.
     The G-vectors are recalculated for the final unit cell
     Results may differ from those at the preceding step.

     Parallelization info
     --------------------
     sticks:   dense  smooth     PW     G-vecs:    dense   smooth      PW
     Min          96      49     22                 1188      430     138
     Max          97      50     23                 1189      431     139
     Sum         387     197     91                 4753     1721     555

     Using Slab Decomposition



     bravais-lattice index     =            0
     lattice parameter (alat)  =       4.5899  a.u.
     unit-cell volume          =      75.3709 (a.u.)^3
     number of atoms/cell      =            1
     number of atomic types    =            1
     number of electrons       =         8.00
     number of Kohn-Sham states=            8
     kinetic-energy cutoff     =      30.0000  Ry
     charge density cutoff     =     240.0000  Ry
     scf convergence threshold =      1.0E-09
     mixing beta               =       0.5000
     number of iterations used =            8  plain     mixing
     press convergence thresh. =      5.0E-01
     Exchange-correlation=  SLA  PW   PBE  PBE
                           (   1   4   3   4   0   0   0)

     celldm(1)=   4.589935  celldm(2)=   0.000000  celldm(3)=   0.000000
     celldm(4)=   0.000000  celldm(5)=   0.000000  celldm(6)=   0.000000

     crystal axes: (cart. coord. in units of alat)
               a(1) = (  -0.579751   0.579751   0.579751 )  
               a(2) = (   0.579751  -0.579751   0.579751 )  
               a(3) = (   0.579751   0.579751  -0.579751 )  

     reciprocal axes: (cart. coord. in units 2 pi/alat)
               b(1) = (  0.000000  0.862440  0.862440 )  
               b(2) = (  0.862440  0.000000  0.862440 )  
               b(3) = (  0.862440  0.862440  0.000000 )  


     PseudoPot. # 1 for Fe read from file:
     /home/gridsan/epan1/labutil/lab3_samples/pseudopotentials/Fe.pbe-nd-rrkjus.UPF
     MD5 check sum: 398036227a04b607635f6f5e8dfd8242
     Pseudo is Ultrasoft + core correction, Zval =  8.0
     Generated by new atomic code, or converted to UPF format
     Using radial grid of  957 points,  6 beta functions with: 
                l(1) =   0
                l(2) =   0
                l(3) =   1
                l(4) =   1
                l(5) =   2
                l(6) =   2
     Q(r) pseudized with 0 coefficients 


     atomic species   valence    mass     pseudopotential
        Fe             8.00    55.84500     Fe( 1.00)

     Starting magnetic structure 
     atomic species   magnetization
        Fe           0.316

     48 Sym. Ops., with inversion, found



   Cartesian axes

     site n.     atom                  positions (alat units)
         1           Fe  tau(   1) = (   0.0000000   0.0000000   0.0000000  )

     number of k points=     8  Methfessel-Paxton smearing, width (Ry)=  0.0200
                       cart. coord. in units 2pi/alat
        k(    1) = (   0.0000000   0.0000000   0.0000000), wk =   0.0156250
        k(    2) = (   0.2156099   0.2156099   0.0000000), wk =   0.1875000
        k(    3) = (  -0.4312198  -0.4312198   0.0000000), wk =   0.0937500
        k(    4) = (   0.4312198   0.2156099   0.2156099), wk =   0.3750000
        k(    5) = (   0.4312198   0.4312198   0.4312198), wk =   0.0312500
        k(    6) = (   0.0000000   0.0000000   0.4312198), wk =   0.0937500
        k(    7) = (  -0.8624396  -0.2156099  -0.2156099), wk =   0.1875000
        k(    8) = (  -0.8624396  -0.8624396  -0.8624396), wk =   0.0156250

     Dense  grid:     4753 G-vectors     FFT dimensions: (  24,  24,  24)

     Smooth grid:     1721 G-vectors     FFT dimensions: (  18,  18,  18)

     Estimated max dynamical RAM per process >       7.51 MB

     Estimated total dynamical RAM >      30.06 MB
     Generating pointlists ...

     Initial potential from superposition of free atoms

     starting charge       7.9994, renormalised to       8.0000
     Starting wfcs are    6 randomized atomic wfcs +    2 random wfcs

     total cpu time spent up to now is      129.6 secs

     Self-consistent Calculation

     iteration #  1     ecut=    30.00 Ry     beta= 0.50
     Davidson diagonalization with overlap
     c_bands:  1 eigenvalues not converged
     c_bands:  3 eigenvalues not converged
     c_bands:  1 eigenvalues not converged
     c_bands:  1 eigenvalues not converged
     c_bands:  3 eigenvalues not converged
     ethr =  1.00E-06,  avg # of iterations = 18.3

     total cpu time spent up to now is      134.6 secs

     total energy              =     -55.66371033 Ry
     estimated scf accuracy    <       0.38503468 Ry

     total magnetization       =     1.96 Bohr mag/cell
     absolute magnetization    =     1.96 Bohr mag/cell

     iteration #  2     ecut=    30.00 Ry     beta= 0.50
     Davidson diagonalization with overlap
     ethr =  4.81E-03,  avg # of iterations =  1.9

     total cpu time spent up to now is      138.2 secs

     total energy              =     -55.77840335 Ry
     estimated scf accuracy    <       0.10748843 Ry

     total magnetization       =     2.06 Bohr mag/cell
     absolute magnetization    =     2.09 Bohr mag/cell

     iteration #  3     ecut=    30.00 Ry     beta= 0.50
     Davidson diagonalization with overlap
     ethr =  1.34E-03,  avg # of iterations =  1.0

     total cpu time spent up to now is      140.0 secs

     total energy              =     -55.79838224 Ry
     estimated scf accuracy    <       0.00216819 Ry

     total magnetization       =     1.99 Bohr mag/cell
     absolute magnetization    =     2.01 Bohr mag/cell

     iteration #  4     ecut=    30.00 Ry     beta= 0.50
     Davidson diagonalization with overlap
     ethr =  2.71E-05,  avg # of iterations =  2.0

     total cpu time spent up to now is      141.5 secs

     total energy              =     -55.79987587 Ry
     estimated scf accuracy    <       0.00046104 Ry

     total magnetization       =     2.01 Bohr mag/cell
     absolute magnetization    =     2.07 Bohr mag/cell

     iteration #  5     ecut=    30.00 Ry     beta= 0.50
     Davidson diagonalization with overlap
     ethr =  5.76E-06,  avg # of iterations =  1.9

     total cpu time spent up to now is      142.4 secs

     total energy              =     -55.80009316 Ry
     estimated scf accuracy    <       0.00007368 Ry

     total magnetization       =     2.01 Bohr mag/cell
     absolute magnetization    =     2.09 Bohr mag/cell

     iteration #  6     ecut=    30.00 Ry     beta= 0.50
     Davidson diagonalization with overlap
     ethr =  9.21E-07,  avg # of iterations =  2.3

     total cpu time spent up to now is      143.1 secs

     total energy              =     -55.80009073 Ry
     estimated scf accuracy    <       0.00006561 Ry

     total magnetization       =     2.00 Bohr mag/cell
     absolute magnetization    =     2.09 Bohr mag/cell

     iteration #  7     ecut=    30.00 Ry     beta= 0.50
     Davidson diagonalization with overlap
     ethr =  8.20E-07,  avg # of iterations =  1.6

     total cpu time spent up to now is      145.9 secs

     total energy              =     -55.80011147 Ry
     estimated scf accuracy    <       0.00000565 Ry

     total magnetization       =     2.00 Bohr mag/cell
     absolute magnetization    =     2.10 Bohr mag/cell

     iteration #  8     ecut=    30.00 Ry     beta= 0.50
     Davidson diagonalization with overlap
     ethr =  7.07E-08,  avg # of iterations =  2.9

     total cpu time spent up to now is      148.3 secs

     total energy              =     -55.80011462 Ry
     estimated scf accuracy    <       0.00000034 Ry

     total magnetization       =     2.00 Bohr mag/cell
     absolute magnetization    =     2.10 Bohr mag/cell

     iteration #  9     ecut=    30.00 Ry     beta= 0.50
     Davidson diagonalization with overlap
     ethr =  4.23E-09,  avg # of iterations =  3.9

     total cpu time spent up to now is      150.2 secs

     total energy              =     -55.80011502 Ry
     estimated scf accuracy    <       0.00000002 Ry

     total magnetization       =     2.00 Bohr mag/cell
     absolute magnetization    =     2.10 Bohr mag/cell

     iteration # 10     ecut=    30.00 Ry     beta= 0.50
     Davidson diagonalization with overlap
     ethr =  2.41E-10,  avg # of iterations =  4.4

     total cpu time spent up to now is      151.9 secs

     total energy              =     -55.80011505 Ry
     estimated scf accuracy    <       0.00000001 Ry

     total magnetization       =     2.00 Bohr mag/cell
     absolute magnetization    =     2.10 Bohr mag/cell

     iteration # 11     ecut=    30.00 Ry     beta= 0.50
     Davidson diagonalization with overlap
     ethr =  1.47E-10,  avg # of iterations =  1.4

     total cpu time spent up to now is      160.9 secs

     total energy              =     -55.80011505 Ry
     estimated scf accuracy    <          2.0E-09 Ry

     total magnetization       =     2.00 Bohr mag/cell
     absolute magnetization    =     2.10 Bohr mag/cell

     iteration # 12     ecut=    30.00 Ry     beta= 0.50
     Davidson diagonalization with overlap
     ethr =  2.52E-11,  avg # of iterations =  2.8

     Magnetic moment per site  (integrated on atomic sphere of radius R)
     atom   1 (R=0.413)  charge=  6.4416  magn=  2.0370

     total cpu time spent up to now is      162.3 secs

     End of self-consistent calculation

 ------ SPIN UP ------------


          k = 0.0000 0.0000 0.0000 (   201 PWs)   bands (ev):

     5.3764  11.7270  11.7270  11.7270  12.8476  12.8476  38.7337  38.7337

          k = 0.2156 0.2156 0.0000 (   205 PWs)   bands (ev):

     7.6812  11.1388  11.5299  12.7246  12.9208  12.9984  29.9579  35.1744

          k =-0.4312-0.4312 0.0000 (   214 PWs)   bands (ev):

     8.9437  10.5934  12.9678  13.0485  14.5030  14.5269  21.5258  32.2771

          k = 0.4312 0.2156 0.2156 (   211 PWs)   bands (ev):

     9.8841  10.5851  11.2889  12.8684  13.3073  16.4394  25.1946  26.1266

          k = 0.4312 0.4312 0.4312 (   216 PWs)   bands (ev):

    10.7447  10.7447  10.7447  13.0861  13.0861  22.7891  22.7891  22.7891

          k = 0.0000 0.0000 0.4312 (   209 PWs)   bands (ev):

     9.2150  10.8655  12.1808  12.1808  12.9533  14.2044  31.3572  31.3582

          k =-0.8624-0.2156-0.2156 (   210 PWs)   bands (ev):

     9.6149  10.1549  12.1188  12.7302  14.3846  19.2305  22.0293  28.0417

          k =-0.8624-0.8624-0.8624 (   236 PWs)   bands (ev):

     8.9524   8.9524  14.2437  14.2437  14.2437  24.0647  24.0647  24.0647

 ------ SPIN DOWN ----------


          k = 0.0000 0.0000 0.0000 (   201 PWs)   bands (ev):

     5.4956  13.4963  13.4963  13.4963  15.7773  15.7773  38.5166  38.5166

          k = 0.2156 0.2156 0.0000 (   205 PWs)   bands (ev):

     7.8965  12.8032  13.1962  14.8817  15.3881  15.8679  30.5719  35.2931

          k =-0.4312-0.4312 0.0000 (   214 PWs)   bands (ev):

    10.1793  12.1714  14.5680  15.5803  16.0487  16.5933  22.8267  32.3340

          k = 0.4312 0.2156 0.2156 (   211 PWs)   bands (ev):

    10.8811  12.2094  12.6392  15.4029  16.0078  18.0175  26.0475  26.7670

          k = 0.4312 0.4312 0.4312 (   216 PWs)   bands (ev):

    12.0165  12.0165  12.0165  16.0995  16.0995  23.6126  23.6126  23.6126

          k = 0.0000 0.0000 0.4312 (   209 PWs)   bands (ev):

     9.7944  13.2178  13.8860  13.8860  14.8451  16.7031  31.8860  31.8860

          k =-0.8624-0.2156-0.2156 (   210 PWs)   bands (ev):

    11.3832  11.9653  13.8205  14.6565  16.4356  20.2770  23.0418  28.4773

          k =-0.8624-0.8624-0.8624 (   236 PWs)   bands (ev):

    10.8799  10.8799  16.2793  16.2793  16.2793  24.2442  24.2442  24.2442

     the Fermi energy is    14.2717 ev

!    total energy              =     -55.80011505 Ry
     estimated scf accuracy    <          2.6E-10 Ry
     smearing contrib. (-TS)   =       0.00025062 Ry
     internal energy E=F+TS    =     -55.80036568 Ry

     The total energy is F=E-TS. E is the sum of the following terms:
     one-electron contribution =       7.96443688 Ry
     hartree contribution      =       6.45274695 Ry
     xc contribution           =     -26.45404777 Ry
     ewald contribution        =     -43.76350173 Ry

     total magnetization       =     2.00 Bohr mag/cell
     absolute magnetization    =     2.10 Bohr mag/cell

     convergence has been achieved in  12 iterations

     Forces acting on atoms (cartesian axes, Ry/au):

     atom    1 type  1   force =     0.00000000    0.00000000    0.00000000
     The non-local contrib.  to forces
     atom    1 type  1   force =     0.00000000    0.00000000    0.00000000
     The ionic contribution  to forces
     atom    1 type  1   force =    -0.00000000   -0.00000000   -0.00000000
     The local contribution  to forces
     atom    1 type  1   force =    -0.00000000   -0.00000000   -0.00000000
     The core correction contribution to forces
     atom    1 type  1   force =     0.00000000    0.00000000    0.00000000
     The Hubbard contrib.    to forces
     atom    1 type  1   force =     0.00000000    0.00000000    0.00000000
     The SCF correction term to forces
     atom    1 type  1   force =    -0.00000000    0.00000000    0.00000000

     Total force =     0.000000     Total SCF correction =     0.000000


     Computing stress (Cartesian axis) and pressure

          total   stress  (Ry/bohr**3)                   (kbar)     P=       -1.07
  -0.00000726  -0.00000000  -0.00000000           -1.07       -0.00       -0.00
  -0.00000000  -0.00000726  -0.00000000           -0.00       -1.07       -0.00
  -0.00000000  -0.00000000  -0.00000726           -0.00       -0.00       -1.07


     init_run     :      1.47s CPU      3.25s WALL (       2 calls)
     electrons    :     69.12s CPU    147.50s WALL (       6 calls)
     update_pot   :      0.86s CPU      1.72s WALL (       4 calls)
     forces       :      1.23s CPU      2.78s WALL (       6 calls)
     stress       :      2.61s CPU      5.67s WALL (       6 calls)

     Called by init_run:
     wfcinit      :      0.08s CPU      0.17s WALL (       2 calls)
     potinit      :      0.47s CPU      0.97s WALL (       2 calls)
     hinit0       :      0.77s CPU      1.70s WALL (       2 calls)

     Called by electrons:
     c_bands      :     49.37s CPU    107.66s WALL (      94 calls)
     sum_band     :      8.21s CPU     17.27s WALL (      94 calls)
     v_of_rho     :      4.94s CPU      9.82s WALL (     100 calls)
     newd         :      1.60s CPU      3.17s WALL (     100 calls)
     mix_rho      :      3.10s CPU      5.52s WALL (      94 calls)

     Called by c_bands:
     init_us_2    :      0.10s CPU      0.13s WALL (    3232 calls)
     init_us_2:cp :      0.09s CPU      0.12s WALL (    3232 calls)
     cegterg      :     36.72s CPU     74.25s WALL (    1504 calls)

     Called by *egterg:
     cdiaghg      :      0.60s CPU      0.91s WALL (    4918 calls)
     h_psi        :     27.26s CPU     55.05s WALL (    5014 calls)
     s_psi        :      0.04s CPU      0.10s WALL (    5014 calls)
     g_psi        :      0.01s CPU      0.01s WALL (    3478 calls)

     Called by h_psi:
     h_psi:calbec :      2.78s CPU      5.37s WALL (    5014 calls)
     vloc_psi     :     24.41s CPU     49.53s WALL (    5014 calls)
     add_vuspsi   :      0.05s CPU      0.06s WALL (    5014 calls)

     General routines
     calbec       :      4.56s CPU      9.15s WALL (    6998 calls)
     fft          :      5.20s CPU     10.67s WALL (    2732 calls)
     ffts         :      0.51s CPU      1.00s WALL (     388 calls)
     fftw         :     28.53s CPU     57.80s WALL (   73194 calls)
     interpolate  :      0.53s CPU      1.10s WALL (     200 calls)

     Parallel routines

     PWSCF        :   1m16.41s CPU   2m43.74s WALL


   This run was terminated on:  17: 8:19   1Nov2023            

=------------------------------------------------------------------------------=
   JOB DONE.
=------------------------------------------------------------------------------=
