
     Program PWSCF v.7.2 starts on 31Oct2023 at 10:20:14 

     This program is part of the open-source Quantum ESPRESSO suite
     for quantum simulation of materials; please cite
         "P. Giannozzi et al., J. Phys.:Condens. Matter 21 395502 (2009);
         "P. Giannozzi et al., J. Phys.:Condens. Matter 29 465901 (2017);
         "P. Giannozzi et al., J. Chem. Phys. 152 154105 (2020);
          URL http://www.quantum-espresso.org", 
     in publications or presentations arising from this work. More details at
     http://www.quantum-espresso.org/quote

     Parallel version (MPI), running on     4 processors

     MPI processes distributed on     4 nodes
     186358 MiB available memory on the printing compute node when the environment starts

     Waiting for input...
     Reading input from standard input

     Current dimensions of program PWSCF are:
     Max number of different atomic species (ntypx) = 10
     Max number of k-points (npk) =  40000
     Max angular momentum in pseudopotentials (lmaxx) =  4
     file Fe.pbe-nd-rrkjus.UPF: wavefunction(s)  4S renormalized
     Message from routine setup:
     using ibrav=0 with symmetry is DISCOURAGED, use correct ibrav instead

     R & G space division:  proc/nbgrp/npool/nimage =       4
     Subspace diagonalization in iterative solution of the eigenvalue problem:
     a serial algorithm will be used


     Parallelization info
     --------------------
     sticks:   dense  smooth     PW     G-vecs:    dense   smooth      PW
     Min          95      45     22                 1181      400     138
     Max          96      46     23                 1183      401     139
     Sum         383     181     91                 4729     1601     555

     Using Slab Decomposition



     bravais-lattice index     =            0
     lattice parameter (alat)  =       4.5899  a.u.
     unit-cell volume          =      74.4385 (a.u.)^3
     number of atoms/cell      =            1
     number of atomic types    =            1
     number of electrons       =         8.00
     number of Kohn-Sham states=            8
     kinetic-energy cutoff     =      30.0000  Ry
     charge density cutoff     =     240.0000  Ry
     scf convergence threshold =      1.0E-07
     mixing beta               =       0.5000
     number of iterations used =            8  plain     mixing
     energy convergence thresh.=      1.0E-04
     force convergence thresh. =      1.0E-03
     press convergence thresh. =      5.0E-01
     Exchange-correlation=  SLA  PW   PBE  PBE
                           (   1   4   3   4   0   0   0)
     nstep                     =           50


     celldm(1)=   4.589935  celldm(2)=   0.000000  celldm(3)=   0.000000
     celldm(4)=   0.000000  celldm(5)=   0.000000  celldm(6)=   0.000000

     crystal axes: (cart. coord. in units of alat)
               a(1) = (  -0.577350   0.577350   0.577350 )  
               a(2) = (   0.577350  -0.577350   0.577350 )  
               a(3) = (   0.577350   0.577350  -0.577350 )  

     reciprocal axes: (cart. coord. in units 2 pi/alat)
               b(1) = (  0.000000  0.866025  0.866025 )  
               b(2) = (  0.866025  0.000000  0.866025 )  
               b(3) = (  0.866025  0.866025  0.000000 )  


     PseudoPot. # 1 for Fe read from file:
     /home/gridsan/epan1/labutil/lab3_samples/pseudopotentials/Fe.pbe-nd-rrkjus.UPF
     MD5 check sum: 398036227a04b607635f6f5e8dfd8242
     Pseudo is Ultrasoft + core correction, Zval =  8.0
     Generated by new atomic code, or converted to UPF format
     Using radial grid of  957 points,  6 beta functions with: 
                l(1) =   0
                l(2) =   0
                l(3) =   1
                l(4) =   1
                l(5) =   2
                l(6) =   2
     Q(r) pseudized with 0 coefficients 


     atomic species   valence    mass     pseudopotential
        Fe             8.00    55.84500     Fe( 1.00)

     Starting magnetic structure 
     atomic species   magnetization
        Fe           0.700

     48 Sym. Ops., with inversion, found



   Cartesian axes

     site n.     atom                  positions (alat units)
         1           Fe  tau(   1) = (   0.0000000   0.0000000   0.0000000  )

     number of k points=     8  Methfessel-Paxton smearing, width (Ry)=  0.0200
                       cart. coord. in units 2pi/alat
        k(    1) = (   0.0000000   0.0000000   0.0000000), wk =   0.0156250
        k(    2) = (   0.2165064   0.2165064   0.0000000), wk =   0.1875000
        k(    3) = (  -0.4330127  -0.4330127   0.0000000), wk =   0.0937500
        k(    4) = (   0.4330127   0.2165064   0.2165064), wk =   0.3750000
        k(    5) = (   0.4330127   0.4330127   0.4330127), wk =   0.0312500
        k(    6) = (   0.0000000   0.0000000   0.4330127), wk =   0.0937500
        k(    7) = (  -0.8660254  -0.2165064  -0.2165064), wk =   0.1875000
        k(    8) = (  -0.8660254  -0.8660254  -0.8660254), wk =   0.0156250

     Dense  grid:     4729 G-vectors     FFT dimensions: (  24,  24,  24)

     Smooth grid:     1601 G-vectors     FFT dimensions: (  15,  15,  15)

     Estimated max dynamical RAM per process >       7.48 MB

     Estimated total dynamical RAM >      29.92 MB
     Generating pointlists ...
     new r_m :   0.4125 (alat units)  1.8933 (a.u.) for type    1

     Initial potential from superposition of free atoms

     starting charge       7.9994, renormalised to       8.0000
     Starting wfcs are    6 randomized atomic wfcs +    2 random wfcs

     total cpu time spent up to now is        0.4 secs

     Self-consistent Calculation

     iteration #  1     ecut=    30.00 Ry     beta= 0.50
     Davidson diagonalization with overlap
     ethr =  1.00E-02,  avg # of iterations =  5.3

     total cpu time spent up to now is        0.5 secs

     total energy              =     -55.68485059 Ry
     estimated scf accuracy    <       0.33624255 Ry

     total magnetization       =     2.76 Bohr mag/cell
     absolute magnetization    =     2.76 Bohr mag/cell

     iteration #  2     ecut=    30.00 Ry     beta= 0.50
     Davidson diagonalization with overlap
     ethr =  4.20E-03,  avg # of iterations =  1.8

     total cpu time spent up to now is        0.5 secs

     total energy              =     -55.77703805 Ry
     estimated scf accuracy    <       0.03567158 Ry

     total magnetization       =     2.78 Bohr mag/cell
     absolute magnetization    =     2.78 Bohr mag/cell

     iteration #  3     ecut=    30.00 Ry     beta= 0.50
     Davidson diagonalization with overlap
     ethr =  4.46E-04,  avg # of iterations =  1.7

     total cpu time spent up to now is        0.6 secs

     total energy              =     -55.79300200 Ry
     estimated scf accuracy    <       0.00471216 Ry

     total magnetization       =     2.79 Bohr mag/cell
     absolute magnetization    =     2.80 Bohr mag/cell

     iteration #  4     ecut=    30.00 Ry     beta= 0.50
     Davidson diagonalization with overlap
     ethr =  5.89E-05,  avg # of iterations =  3.1

     total cpu time spent up to now is        0.6 secs

     total energy              =     -55.79491073 Ry
     estimated scf accuracy    <       0.00173395 Ry

     total magnetization       =     2.63 Bohr mag/cell
     absolute magnetization    =     2.69 Bohr mag/cell

     iteration #  5     ecut=    30.00 Ry     beta= 0.50
     Davidson diagonalization with overlap
     ethr =  2.17E-05,  avg # of iterations =  2.8

     total cpu time spent up to now is        0.7 secs

     total energy              =     -55.79582556 Ry
     estimated scf accuracy    <       0.00075190 Ry

     total magnetization       =     2.60 Bohr mag/cell
     absolute magnetization    =     2.67 Bohr mag/cell

     iteration #  6     ecut=    30.00 Ry     beta= 0.50
     Davidson diagonalization with overlap
     ethr =  9.40E-06,  avg # of iterations =  2.7

     total cpu time spent up to now is        0.7 secs

     total energy              =     -55.79501426 Ry
     estimated scf accuracy    <       0.00247896 Ry

     total magnetization       =     2.51 Bohr mag/cell
     absolute magnetization    =     2.61 Bohr mag/cell

     iteration #  7     ecut=    30.00 Ry     beta= 0.50
     Davidson diagonalization with overlap
     ethr =  9.40E-06,  avg # of iterations =  2.6

     total cpu time spent up to now is        0.8 secs

     total energy              =     -55.79684701 Ry
     estimated scf accuracy    <       0.00120062 Ry

     total magnetization       =     2.20 Bohr mag/cell
     absolute magnetization    =     2.32 Bohr mag/cell

     iteration #  8     ecut=    30.00 Ry     beta= 0.50
     Davidson diagonalization with overlap
     ethr =  9.40E-06,  avg # of iterations =  1.0

     total cpu time spent up to now is        0.8 secs

     total energy              =     -55.79416258 Ry
     estimated scf accuracy    <       0.00074288 Ry

     total magnetization       =     2.26 Bohr mag/cell
     absolute magnetization    =     2.38 Bohr mag/cell

     iteration #  9     ecut=    30.00 Ry     beta= 0.50
     Davidson diagonalization with overlap
     ethr =  9.29E-06,  avg # of iterations =  1.1

     total cpu time spent up to now is        0.9 secs

     total energy              =     -55.78989819 Ry
     estimated scf accuracy    <       0.00030091 Ry

     total magnetization       =     2.53 Bohr mag/cell
     absolute magnetization    =     2.63 Bohr mag/cell

     iteration # 10     ecut=    30.00 Ry     beta= 0.50
     Davidson diagonalization with overlap
     ethr =  3.76E-06,  avg # of iterations =  2.9

     total cpu time spent up to now is        0.9 secs

     total energy              =     -55.79339079 Ry
     estimated scf accuracy    <       0.00427784 Ry

     total magnetization       =     2.75 Bohr mag/cell
     absolute magnetization    =     2.82 Bohr mag/cell

     iteration # 11     ecut=    30.00 Ry     beta= 0.50
     Davidson diagonalization with overlap
     ethr =  3.76E-06,  avg # of iterations =  2.3

     total cpu time spent up to now is        1.0 secs

     total energy              =     -55.79548739 Ry
     estimated scf accuracy    <       0.00083352 Ry

     total magnetization       =     2.40 Bohr mag/cell
     absolute magnetization    =     2.50 Bohr mag/cell

     iteration # 12     ecut=    30.00 Ry     beta= 0.50
     Davidson diagonalization with overlap
     ethr =  3.76E-06,  avg # of iterations =  1.9

     total cpu time spent up to now is        1.1 secs

     total energy              =     -55.78703845 Ry
     estimated scf accuracy    <       0.00220629 Ry

     total magnetization       =     2.00 Bohr mag/cell
     absolute magnetization    =     2.13 Bohr mag/cell

     iteration # 13     ecut=    30.00 Ry     beta= 0.50
     Davidson diagonalization with overlap
     ethr =  3.76E-06,  avg # of iterations =  2.9

     total cpu time spent up to now is        1.1 secs

     total energy              =     -55.79739072 Ry
     estimated scf accuracy    <       0.00580913 Ry

     total magnetization       =     1.76 Bohr mag/cell
     absolute magnetization    =     1.87 Bohr mag/cell

     iteration # 14     ecut=    30.00 Ry     beta= 0.50
     Davidson diagonalization with overlap
     ethr =  3.76E-06,  avg # of iterations =  1.9

     total cpu time spent up to now is        1.2 secs

     total energy              =     -55.79686868 Ry
     estimated scf accuracy    <       0.00107710 Ry

     total magnetization       =     1.94 Bohr mag/cell
     absolute magnetization    =     2.03 Bohr mag/cell

     iteration # 15     ecut=    30.00 Ry     beta= 0.50
     Davidson diagonalization with overlap
     ethr =  3.76E-06,  avg # of iterations =  1.0

     total cpu time spent up to now is        1.2 secs

     total energy              =     -55.79802227 Ry
     estimated scf accuracy    <       0.00188329 Ry

     total magnetization       =     1.85 Bohr mag/cell
     absolute magnetization    =     1.95 Bohr mag/cell

     iteration # 16     ecut=    30.00 Ry     beta= 0.50
     Davidson diagonalization with overlap
     ethr =  3.76E-06,  avg # of iterations =  1.9

     total cpu time spent up to now is        1.3 secs

     total energy              =     -55.79827036 Ry
     estimated scf accuracy    <       0.00002351 Ry

     total magnetization       =     2.01 Bohr mag/cell
     absolute magnetization    =     2.11 Bohr mag/cell

     iteration # 17     ecut=    30.00 Ry     beta= 0.50
     Davidson diagonalization with overlap
     ethr =  2.94E-07,  avg # of iterations =  3.0
     Minimization algorithm failed to find Fermi energy: reverting to bisection
     Possible cause: smearing is larger than the electronic band-gap.

     total cpu time spent up to now is        1.4 secs

     total energy              =     -55.78726454 Ry
     estimated scf accuracy    <       0.00325422 Ry

     total magnetization       =     1.92 Bohr mag/cell
     absolute magnetization    =     2.02 Bohr mag/cell

     iteration # 18     ecut=    30.00 Ry     beta= 0.50
     Davidson diagonalization with overlap
     ethr =  2.94E-07,  avg # of iterations =  3.8

     total cpu time spent up to now is        1.4 secs

     total energy              =     -55.79251418 Ry
     estimated scf accuracy    <       0.00701073 Ry

     total magnetization       =     1.75 Bohr mag/cell
     absolute magnetization    =     1.82 Bohr mag/cell

     iteration # 19     ecut=    30.00 Ry     beta= 0.50
     Davidson diagonalization with overlap
     ethr =  2.94E-07,  avg # of iterations =  4.4

     total cpu time spent up to now is        1.5 secs

     total energy              =     -55.78511385 Ry
     estimated scf accuracy    <       0.00181973 Ry

     total magnetization       =     1.96 Bohr mag/cell
     absolute magnetization    =     2.11 Bohr mag/cell

     iteration # 20     ecut=    30.00 Ry     beta= 0.50
     Davidson diagonalization with overlap
     ethr =  2.94E-07,  avg # of iterations =  4.3

     total cpu time spent up to now is        1.6 secs

     total energy              =     -55.79517649 Ry
     estimated scf accuracy    <       0.00683898 Ry

     total magnetization       =     1.75 Bohr mag/cell
     absolute magnetization    =     1.81 Bohr mag/cell

     iteration # 21     ecut=    30.00 Ry     beta= 0.50
     Davidson diagonalization with overlap
     ethr =  2.94E-07,  avg # of iterations =  4.2

     total cpu time spent up to now is        1.7 secs

     total energy              =     -55.79931041 Ry
     estimated scf accuracy    <       0.00020522 Ry

     total magnetization       =     2.00 Bohr mag/cell
     absolute magnetization    =     2.10 Bohr mag/cell

     iteration # 22     ecut=    30.00 Ry     beta= 0.50
     Davidson diagonalization with overlap
     ethr =  2.94E-07,  avg # of iterations =  2.6
     Minimization algorithm failed to find Fermi energy: reverting to bisection
     Possible cause: smearing is larger than the electronic band-gap.

     total cpu time spent up to now is        1.7 secs

     total energy              =     -55.79678704 Ry
     estimated scf accuracy    <       0.00233848 Ry

     total magnetization       =     1.95 Bohr mag/cell
     absolute magnetization    =     2.06 Bohr mag/cell

     iteration # 23     ecut=    30.00 Ry     beta= 0.50
     Davidson diagonalization with overlap
     ethr =  2.94E-07,  avg # of iterations =  3.4

     total cpu time spent up to now is        1.8 secs

     total energy              =     -55.79932763 Ry
     estimated scf accuracy    <       0.00209216 Ry

     total magnetization       =     2.05 Bohr mag/cell
     absolute magnetization    =     2.16 Bohr mag/cell

     iteration # 24     ecut=    30.00 Ry     beta= 0.50
     Davidson diagonalization with overlap
     ethr =  2.94E-07,  avg # of iterations =  2.8

     total cpu time spent up to now is        1.9 secs

     total energy              =     -55.79990782 Ry
     estimated scf accuracy    <       0.00025268 Ry

     total magnetization       =     1.99 Bohr mag/cell
     absolute magnetization    =     2.10 Bohr mag/cell

     iteration # 25     ecut=    30.00 Ry     beta= 0.50
     Davidson diagonalization with overlap
     ethr =  2.94E-07,  avg # of iterations =  1.4

     total cpu time spent up to now is        1.9 secs

     total energy              =     -55.79919104 Ry
     estimated scf accuracy    <       0.00008234 Ry

     total magnetization       =     2.00 Bohr mag/cell
     absolute magnetization    =     2.10 Bohr mag/cell

     iteration # 26     ecut=    30.00 Ry     beta= 0.50
     Davidson diagonalization with overlap
     ethr =  2.94E-07,  avg # of iterations =  2.6

     total cpu time spent up to now is        2.0 secs

     total energy              =     -55.79970887 Ry
     estimated scf accuracy    <       0.00078918 Ry

     total magnetization       =     2.00 Bohr mag/cell
     absolute magnetization    =     2.12 Bohr mag/cell

     iteration # 27     ecut=    30.00 Ry     beta= 0.50
     Davidson diagonalization with overlap
     ethr =  2.94E-07,  avg # of iterations =  2.2

     total cpu time spent up to now is        2.0 secs

     total energy              =     -55.79979197 Ry
     estimated scf accuracy    <       0.00024108 Ry

     total magnetization       =     1.99 Bohr mag/cell
     absolute magnetization    =     2.10 Bohr mag/cell

     iteration # 28     ecut=    30.00 Ry     beta= 0.50
     Davidson diagonalization with overlap
     ethr =  2.94E-07,  avg # of iterations =  2.8

     total cpu time spent up to now is        2.1 secs

     total energy              =     -55.79991581 Ry
     estimated scf accuracy    <       0.00013187 Ry

     total magnetization       =     2.01 Bohr mag/cell
     absolute magnetization    =     2.10 Bohr mag/cell

     iteration # 29     ecut=    30.00 Ry     beta= 0.50
     Davidson diagonalization with overlap
     ethr =  2.94E-07,  avg # of iterations =  1.8

     total cpu time spent up to now is        2.1 secs

     total energy              =     -55.79991280 Ry
     estimated scf accuracy    <       0.00002161 Ry

     total magnetization       =     2.00 Bohr mag/cell
     absolute magnetization    =     2.10 Bohr mag/cell

     iteration # 30     ecut=    30.00 Ry     beta= 0.50
     Davidson diagonalization with overlap
     ethr =  2.70E-07,  avg # of iterations =  1.1

     total cpu time spent up to now is        2.2 secs

     total energy              =     -55.79991601 Ry
     estimated scf accuracy    <       0.00004977 Ry

     total magnetization       =     2.00 Bohr mag/cell
     absolute magnetization    =     2.10 Bohr mag/cell

     iteration # 31     ecut=    30.00 Ry     beta= 0.50
     Davidson diagonalization with overlap
     ethr =  2.70E-07,  avg # of iterations =  1.4

     total cpu time spent up to now is        2.3 secs

     total energy              =     -55.79990120 Ry
     estimated scf accuracy    <       0.00005424 Ry

     total magnetization       =     2.01 Bohr mag/cell
     absolute magnetization    =     2.11 Bohr mag/cell

     iteration # 32     ecut=    30.00 Ry     beta= 0.50
     Davidson diagonalization with overlap
     ethr =  2.70E-07,  avg # of iterations =  1.2

     total cpu time spent up to now is        2.3 secs

     total energy              =     -55.79991108 Ry
     estimated scf accuracy    <       0.00002486 Ry

     total magnetization       =     2.01 Bohr mag/cell
     absolute magnetization    =     2.10 Bohr mag/cell

     iteration # 33     ecut=    30.00 Ry     beta= 0.50
     Davidson diagonalization with overlap
     ethr =  2.70E-07,  avg # of iterations =  1.0

     total cpu time spent up to now is        2.4 secs

     total energy              =     -55.79992648 Ry
     estimated scf accuracy    <       0.00002794 Ry

     total magnetization       =     2.01 Bohr mag/cell
     absolute magnetization    =     2.10 Bohr mag/cell

     iteration # 34     ecut=    30.00 Ry     beta= 0.50
     Davidson diagonalization with overlap
     ethr =  2.70E-07,  avg # of iterations =  1.2

     total cpu time spent up to now is        2.4 secs

     total energy              =     -55.79992630 Ry
     estimated scf accuracy    <       0.00000023 Ry

     total magnetization       =     2.01 Bohr mag/cell
     absolute magnetization    =     2.10 Bohr mag/cell

     iteration # 35     ecut=    30.00 Ry     beta= 0.50
     Davidson diagonalization with overlap
     ethr =  2.86E-09,  avg # of iterations =  2.2

     total cpu time spent up to now is        2.5 secs

     total energy              =     -55.79992646 Ry
     estimated scf accuracy    <       0.00000011 Ry

     total magnetization       =     2.01 Bohr mag/cell
     absolute magnetization    =     2.10 Bohr mag/cell

     iteration # 36     ecut=    30.00 Ry     beta= 0.50
     Davidson diagonalization with overlap
     ethr =  1.38E-09,  avg # of iterations =  1.2

     Magnetic moment per site  (integrated on atomic sphere of radius R)
     atom   1 (R=0.413)  charge=  6.4569  magn=  2.0403

     total cpu time spent up to now is        2.5 secs

     End of self-consistent calculation

 ------ SPIN UP ------------


          k = 0.0000 0.0000 0.0000 (   201 PWs)   bands (ev):

     5.5276  11.9204  11.9204  11.9204  13.0729  13.0729  39.0730  39.0730

          k = 0.2165 0.2165 0.0000 (   205 PWs)   bands (ev):

     7.8497  11.3207  11.7228  12.9442  13.1478  13.2150  30.3212  35.5241

          k =-0.4330-0.4330 0.0000 (   194 PWs)   bands (ev):

     9.0970  10.7664  13.1931  13.2799  14.7264  14.7731  21.8645  32.6042

          k = 0.4330 0.2165 0.2165 (   202 PWs)   bands (ev):

    10.0542  10.7615  11.4780  13.0895  13.5396  16.7080  25.5270  26.4866

          k = 0.4330 0.4330 0.4330 (   216 PWs)   bands (ev):

    10.9219  10.9219  10.9219  13.3174  13.3174  23.1022  23.1022  23.1022

          k = 0.0000 0.0000 0.4330 (   209 PWs)   bands (ev):

     9.3901  11.0488  12.3818  12.3818  13.1686  14.4548  31.7462  31.7462

          k =-0.8660-0.2165-0.2165 (   210 PWs)   bands (ev):

     9.7765  10.3274  12.3184  12.9437  14.6274  19.5158  22.3604  28.4014

          k =-0.8660-0.8660-0.8660 (   236 PWs)   bands (ev):

     9.1012   9.1012  14.4837  14.4837  14.4837  24.3795  24.3795  24.3795

 ------ SPIN DOWN ----------


          k = 0.0000 0.0000 0.0000 (   201 PWs)   bands (ev):

     5.6563  13.6979  13.6979  13.6979  16.0019  16.0019  38.8683  38.8683

          k = 0.2165 0.2165 0.0000 (   205 PWs)   bands (ev):

     8.0763  12.9925  13.3926  15.1070  15.6084  16.0944  30.9471  35.6519

          k =-0.4330-0.4330 0.0000 (   194 PWs)   bands (ev):

    10.3390  12.3515  14.8026  15.8077  16.2809  16.8493  23.1750  32.6694

          k = 0.4330 0.2165 0.2165 (   202 PWs)   bands (ev):

    11.0636  12.3897  12.8328  15.6261  16.2423  18.2937  26.3932  27.1370

          k = 0.4330 0.4330 0.4330 (   216 PWs)   bands (ev):

    12.2007  12.2007  12.2007  16.3311  16.3311  23.9384  23.9384  23.9384

          k = 0.0000 0.0000 0.4330 (   209 PWs)   bands (ev):

     9.9815  13.3973  14.0946  14.0946  15.0689  16.9517  32.2867  32.2867

          k =-0.8660-0.2165-0.2165 (   210 PWs)   bands (ev):

    11.5458  12.1377  14.0275  14.8747  16.6879  20.5724  23.3836  28.8485

          k =-0.8660-0.8660-0.8660 (   236 PWs)   bands (ev):

    11.0257  11.0257  16.5288  16.5288  16.5288  24.5696  24.5696  24.5696

     the Fermi energy is    14.5177 ev

!    total energy              =     -55.79992646 Ry
     estimated scf accuracy    <          1.1E-09 Ry
     smearing contrib. (-TS)   =       0.00015885 Ry
     internal energy E=F+TS    =     -55.80008531 Ry

     The total energy is F=E-TS. E is the sum of the following terms:
     one-electron contribution =       8.22222072 Ry
     hartree contribution      =       6.38678992 Ry
     xc contribution           =     -26.46363858 Ry
     ewald contribution        =     -43.94545736 Ry

     total magnetization       =     2.01 Bohr mag/cell
     absolute magnetization    =     2.10 Bohr mag/cell

     convergence has been achieved in  36 iterations

     Forces acting on atoms (cartesian axes, Ry/au):

     atom    1 type  1   force =     0.00000000    0.00000000    0.00000000
     The non-local contrib.  to forces
     atom    1 type  1   force =     0.00000000    0.00000000    0.00000000
     The ionic contribution  to forces
     atom    1 type  1   force =    -0.00000000   -0.00000000   -0.00000000
     The local contribution  to forces
     atom    1 type  1   force =    -0.00000000   -0.00000000   -0.00000000
     The core correction contribution to forces
     atom    1 type  1   force =     0.00000000    0.00000000   -0.00000000
     The Hubbard contrib.    to forces
     atom    1 type  1   force =     0.00000000    0.00000000    0.00000000
     The SCF correction term to forces
     atom    1 type  1   force =    -0.00000000    0.00000000    0.00000000

     Total force =     0.000000     Total SCF correction =     0.000000


     Computing stress (Cartesian axis) and pressure

          total   stress  (Ry/bohr**3)                   (kbar)     P=       28.00
   0.00019031   0.00000000   0.00000000           28.00        0.00        0.00
   0.00000000   0.00019031   0.00000000            0.00       28.00        0.00
   0.00000000   0.00000000   0.00019031            0.00        0.00       28.00


     BFGS Geometry Optimization
     Energy error            =      0.0E+00 Ry
     Gradient error          =      0.0E+00 Ry/Bohr
     Cell gradient error     =      2.8E+01 kbar

     number of scf cycles    =   1
     number of bfgs steps    =   0

     enthalpy           new  =     -55.7999264550 Ry

     new trust radius        =       0.0082099191 bohr
     new conv_thr            =       0.0000001000 Ry

     new unit-cell volume =     75.50608 a.u.^3 (    11.18885 Ang^3 )
     density =      8.28797 g/cm^3

CELL_PARAMETERS (angstrom)
  -1.408991726   1.408991726   1.408991726
   1.408991726  -1.408991726   1.408991726
   1.408991726   1.408991726  -1.408991726

ATOMIC_POSITIONS (angstrom)
Fe            0.0000000000        0.0000000000        0.0000000000



     Writing config-only to output data dir /home/gridsan/epan1/labutil/lab3_samples/problem1/Lab3/Fe_bcc_a_2.8046394196999995_ecut_30_nk_4/pwscf.save/
     NEW-OLD atomic charge density approx. for the potential
     extrapolated charge    8.11310, renormalised to    8.00000
     Generating pointlists ...

     total cpu time spent up to now is        2.8 secs

     Self-consistent Calculation

     iteration #  1     ecut=    30.00 Ry     beta= 0.50
     Davidson diagonalization with overlap
     ethr =  1.00E-06,  avg # of iterations =  3.9

     total cpu time spent up to now is        2.8 secs

     total energy              =     -55.78259337 Ry
     estimated scf accuracy    <       0.02076703 Ry

     total magnetization       =     1.91 Bohr mag/cell
     absolute magnetization    =     2.00 Bohr mag/cell

     iteration #  2     ecut=    30.00 Ry     beta= 0.50
     Davidson diagonalization with overlap
     ethr =  2.60E-04,  avg # of iterations =  2.2

     total cpu time spent up to now is        2.9 secs

     total energy              =     -55.79937616 Ry
     estimated scf accuracy    <       0.03872045 Ry

     total magnetization       =     1.99 Bohr mag/cell
     absolute magnetization    =     2.10 Bohr mag/cell

     iteration #  3     ecut=    30.00 Ry     beta= 0.50
     Davidson diagonalization with overlap
     ethr =  2.60E-04,  avg # of iterations =  1.2

     total cpu time spent up to now is        2.9 secs

     total energy              =     -55.80027148 Ry
     estimated scf accuracy    <       0.00676468 Ry

     total magnetization       =     1.99 Bohr mag/cell
     absolute magnetization    =     2.10 Bohr mag/cell

     iteration #  4     ecut=    30.00 Ry     beta= 0.50
     Davidson diagonalization with overlap
     ethr =  8.46E-05,  avg # of iterations =  1.1

     total cpu time spent up to now is        3.0 secs

     total energy              =     -55.80061054 Ry
     estimated scf accuracy    <       0.00210716 Ry

     total magnetization       =     2.00 Bohr mag/cell
     absolute magnetization    =     2.10 Bohr mag/cell

     iteration #  5     ecut=    30.00 Ry     beta= 0.50
     Davidson diagonalization with overlap
     ethr =  2.63E-05,  avg # of iterations =  1.0

     total cpu time spent up to now is        3.0 secs

     total energy              =     -55.80069132 Ry
     estimated scf accuracy    <       0.00239339 Ry

     total magnetization       =     2.00 Bohr mag/cell
     absolute magnetization    =     2.10 Bohr mag/cell

     iteration #  6     ecut=    30.00 Ry     beta= 0.50
     Davidson diagonalization with overlap
     ethr =  2.63E-05,  avg # of iterations =  1.0

     total cpu time spent up to now is        3.1 secs

     total energy              =     -55.79957985 Ry
     estimated scf accuracy    <       0.00247941 Ry

     total magnetization       =     2.00 Bohr mag/cell
     absolute magnetization    =     2.10 Bohr mag/cell

     iteration #  7     ecut=    30.00 Ry     beta= 0.50
     Davidson diagonalization with overlap
     ethr =  2.63E-05,  avg # of iterations =  1.6

     total cpu time spent up to now is        3.1 secs

     total energy              =     -55.80006847 Ry
     estimated scf accuracy    <       0.00001707 Ry

     total magnetization       =     2.00 Bohr mag/cell
     absolute magnetization    =     2.10 Bohr mag/cell

     iteration #  8     ecut=    30.00 Ry     beta= 0.50
     Davidson diagonalization with overlap
     ethr =  2.13E-07,  avg # of iterations =  4.1

     total cpu time spent up to now is        3.2 secs

     total energy              =     -55.80039316 Ry
     estimated scf accuracy    <       0.00177523 Ry

     total magnetization       =     1.98 Bohr mag/cell
     absolute magnetization    =     2.08 Bohr mag/cell

     iteration #  9     ecut=    30.00 Ry     beta= 0.50
     Davidson diagonalization with overlap
     ethr =  2.13E-07,  avg # of iterations =  1.0

     total cpu time spent up to now is        3.3 secs

     total energy              =     -55.79960859 Ry
     estimated scf accuracy    <       0.00191315 Ry

     total magnetization       =     1.98 Bohr mag/cell
     absolute magnetization    =     2.08 Bohr mag/cell

     iteration # 10     ecut=    30.00 Ry     beta= 0.50
     Davidson diagonalization with overlap
     ethr =  2.13E-07,  avg # of iterations =  3.6

     total cpu time spent up to now is        3.3 secs

     total energy              =     -55.79997281 Ry
     estimated scf accuracy    <       0.00008558 Ry

     total magnetization       =     2.00 Bohr mag/cell
     absolute magnetization    =     2.10 Bohr mag/cell

     iteration # 11     ecut=    30.00 Ry     beta= 0.50
     Davidson diagonalization with overlap
     ethr =  2.13E-07,  avg # of iterations =  2.9

     total cpu time spent up to now is        3.4 secs

     total energy              =     -55.79994141 Ry
     estimated scf accuracy    <       0.00024029 Ry

     total magnetization       =     2.00 Bohr mag/cell
     absolute magnetization    =     2.09 Bohr mag/cell

     iteration # 12     ecut=    30.00 Ry     beta= 0.50
     Davidson diagonalization with overlap
     ethr =  2.13E-07,  avg # of iterations =  3.1

     total cpu time spent up to now is        3.5 secs

     total energy              =     -55.80006478 Ry
     estimated scf accuracy    <       0.00015771 Ry

     total magnetization       =     2.00 Bohr mag/cell
     absolute magnetization    =     2.10 Bohr mag/cell

     iteration # 13     ecut=    30.00 Ry     beta= 0.50
     Davidson diagonalization with overlap
     ethr =  2.13E-07,  avg # of iterations =  1.3

     total cpu time spent up to now is        3.5 secs

     total energy              =     -55.79998284 Ry
     estimated scf accuracy    <       0.00022234 Ry

     total magnetization       =     2.00 Bohr mag/cell
     absolute magnetization    =     2.10 Bohr mag/cell

     iteration # 14     ecut=    30.00 Ry     beta= 0.50
     Davidson diagonalization with overlap
     ethr =  2.13E-07,  avg # of iterations =  2.5

     total cpu time spent up to now is        3.6 secs

     total energy              =     -55.80001481 Ry
     estimated scf accuracy    <       0.00000302 Ry

     total magnetization       =     2.00 Bohr mag/cell
     absolute magnetization    =     2.10 Bohr mag/cell

     iteration # 15     ecut=    30.00 Ry     beta= 0.50
     Davidson diagonalization with overlap
     ethr =  3.78E-08,  avg # of iterations =  1.1

     total cpu time spent up to now is        3.6 secs

     total energy              =     -55.80001165 Ry
     estimated scf accuracy    <       0.00000916 Ry

     total magnetization       =     2.00 Bohr mag/cell
     absolute magnetization    =     2.10 Bohr mag/cell

     iteration # 16     ecut=    30.00 Ry     beta= 0.50
     Davidson diagonalization with overlap
     ethr =  3.78E-08,  avg # of iterations =  2.1

     total cpu time spent up to now is        3.7 secs

     total energy              =     -55.80001358 Ry
     estimated scf accuracy    <       0.00000028 Ry

     total magnetization       =     2.00 Bohr mag/cell
     absolute magnetization    =     2.10 Bohr mag/cell

     iteration # 17     ecut=    30.00 Ry     beta= 0.50
     Davidson diagonalization with overlap
     ethr =  3.46E-09,  avg # of iterations =  1.2

     total cpu time spent up to now is        3.8 secs

     total energy              =     -55.80001349 Ry
     estimated scf accuracy    <       0.00000045 Ry

     total magnetization       =     2.00 Bohr mag/cell
     absolute magnetization    =     2.10 Bohr mag/cell

     iteration # 18     ecut=    30.00 Ry     beta= 0.50
     Davidson diagonalization with overlap
     ethr =  3.46E-09,  avg # of iterations =  1.1

     Magnetic moment per site  (integrated on atomic sphere of radius R)
     atom   1 (R=0.413)  charge=  6.4393  magn=  2.0364

     total cpu time spent up to now is        3.8 secs

     End of self-consistent calculation

 ------ SPIN UP ------------


          k = 0.0000 0.0000 0.0000 (   201 PWs)   bands (ev):

     5.3548  11.7000  11.7000  11.7000  12.8162  12.8162  38.6851  38.6851

          k = 0.2155 0.2155 0.0000 (   205 PWs)   bands (ev):

     7.6572  11.1134  11.5029  12.6940  12.8891  12.9681  29.9062  35.1244

          k =-0.4310-0.4310 0.0000 (   194 PWs)   bands (ev):

     8.9223  10.5705  12.9366  13.0172  14.4713  14.4932  21.4779  32.2306

          k = 0.4310 0.2155 0.2155 (   202 PWs)   bands (ev):

     9.8603  10.5609  11.2630  12.8377  13.2751  16.4016  25.1475  26.0753

          k = 0.4310 0.4310 0.4310 (   216 PWs)   bands (ev):

    10.7198  10.7198  10.7198  13.0538  13.0538  22.7447  22.7447  22.7447

          k = 0.0000 0.0000 0.4310 (   209 PWs)   bands (ev):

     9.1901  10.8399  12.1527  12.1527  12.9233  14.1692  31.3017  31.3017

          k =-0.8619-0.2155-0.2155 (   210 PWs)   bands (ev):

     9.5922  10.1307  12.0909  12.7003  14.3508  19.1899  21.9822  27.9903

          k =-0.8619-0.8619-0.8619 (   236 PWs)   bands (ev):

     8.9316   8.9316  14.2102  14.2102  14.2102  24.0195  24.0195  24.0195

 ------ SPIN DOWN ----------


          k = 0.0000 0.0000 0.0000 (   201 PWs)   bands (ev):

     5.4723  13.4684  13.4684  13.4684  15.7464  15.7464  38.4657  38.4657

          k = 0.2155 0.2155 0.0000 (   205 PWs)   bands (ev):

     7.8704  12.7769  13.1689  14.8506  15.3577  15.8368  30.5184  35.2413

          k =-0.4310-0.4310 0.0000 (   194 PWs)   bands (ev):

    10.1569  12.1478  14.5343  15.5494  16.0186  16.5588  22.7775  32.2858

          k = 0.4310 0.2155 0.2155 (   202 PWs)   bands (ev):

    10.8552  12.1847  12.6129  15.3723  15.9760  17.9791  25.9984  26.7141

          k = 0.4310 0.4310 0.4310 (   216 PWs)   bands (ev):

    11.9906  11.9906  11.9906  16.0677  16.0677  23.5664  23.5664  23.5664

          k = 0.0000 0.0000 0.4310 (   209 PWs)   bands (ev):

     9.7675  13.1929  13.8571  13.8571  14.8142  16.6686  31.8286  31.8286

          k =-0.8619-0.2155-0.2155 (   210 PWs)   bands (ev):

    11.3604  11.9410  13.7917  14.6262  16.4008  20.2350  22.9932  28.4240

          k =-0.8619-0.8619-0.8619 (   236 PWs)   bands (ev):

    10.8595  10.8595  16.2449  16.2449  16.2449  24.1972  24.1972  24.1972

     the Fermi energy is    14.2373 ev

!    total energy              =     -55.80001350 Ry
     estimated scf accuracy    <       0.00000005 Ry
     smearing contrib. (-TS)   =       0.00026255 Ry
     internal energy E=F+TS    =     -55.80027605 Ry

     The total energy is F=E-TS. E is the sum of the following terms:
     one-electron contribution =       7.92793177 Ry
     hartree contribution      =       6.46171401 Ry
     xc contribution           =     -26.45255992 Ry
     ewald contribution        =     -43.73736190 Ry

     total magnetization       =     2.00 Bohr mag/cell
     absolute magnetization    =     2.10 Bohr mag/cell

     convergence has been achieved in  18 iterations

     Forces acting on atoms (cartesian axes, Ry/au):

     atom    1 type  1   force =     0.00000000    0.00000000    0.00000000
     The non-local contrib.  to forces
     atom    1 type  1   force =     0.00000000    0.00000000    0.00000000
     The ionic contribution  to forces
     atom    1 type  1   force =    -0.00000000   -0.00000000   -0.00000000
     The local contribution  to forces
     atom    1 type  1   force =    -0.00000000   -0.00000000   -0.00000000
     The core correction contribution to forces
     atom    1 type  1   force =    -0.00000000   -0.00000000   -0.00000000
     The Hubbard contrib.    to forces
     atom    1 type  1   force =     0.00000000    0.00000000    0.00000000
     The SCF correction term to forces
     atom    1 type  1   force =    -0.00000000    0.00000000    0.00000000

     Total force =     0.000000     Total SCF correction =     0.000000


     Computing stress (Cartesian axis) and pressure

          total   stress  (Ry/bohr**3)                   (kbar)     P=       -8.11
  -0.00005513   0.00000000   0.00000000           -8.11        0.00        0.00
   0.00000000  -0.00005513   0.00000000            0.00       -8.11        0.00
   0.00000000   0.00000000  -0.00005513            0.00        0.00       -8.11

     Energy error            =      8.7E-05 Ry
     Gradient error          =      0.0E+00 Ry/Bohr
     Cell gradient error     =      8.1E+00 kbar

     number of scf cycles    =   2
     number of bfgs steps    =   1

     enthalpy           old  =     -55.7999264550 Ry
     enthalpy           new  =     -55.8000134976 Ry

     CASE: enthalpy          _new < enthalpy          _old

     new trust radius        =       0.0018620716 bohr
     new conv_thr            =       0.0000000010 Ry

     new unit-cell volume =     75.26363 a.u.^3 (    11.15292 Ang^3 )
     density =      8.31467 g/cm^3

CELL_PARAMETERS (angstrom)
  -1.407482049   1.407482049   1.407482049
   1.407482049  -1.407482049   1.407482049
   1.407482049   1.407482049  -1.407482049

ATOMIC_POSITIONS (angstrom)
Fe            0.0000000000        0.0000000000        0.0000000000



     Writing config-only to output data dir /home/gridsan/epan1/labutil/lab3_samples/problem1/Lab3/Fe_bcc_a_2.8046394196999995_ecut_30_nk_4/pwscf.save/
     NEW-OLD atomic charge density approx. for the potential
     extrapolated charge    7.97423, renormalised to    8.00000
     Generating pointlists ...

     total cpu time spent up to now is        4.1 secs

     Self-consistent Calculation

     iteration #  1     ecut=    30.00 Ry     beta= 0.50
     Davidson diagonalization with overlap
     ethr =  1.00E-06,  avg # of iterations =  2.5

     total cpu time spent up to now is        4.2 secs

     total energy              =     -55.79957590 Ry
     estimated scf accuracy    <       0.00047972 Ry

     total magnetization       =     2.00 Bohr mag/cell
     absolute magnetization    =     2.10 Bohr mag/cell

     iteration #  2     ecut=    30.00 Ry     beta= 0.50
     Davidson diagonalization with overlap
     ethr =  6.00E-06,  avg # of iterations =  2.4

     total cpu time spent up to now is        4.2 secs

     total energy              =     -55.79993040 Ry
     estimated scf accuracy    <       0.00151521 Ry

     total magnetization       =     1.99 Bohr mag/cell
     absolute magnetization    =     2.08 Bohr mag/cell

     iteration #  3     ecut=    30.00 Ry     beta= 0.50
     Davidson diagonalization with overlap
     ethr =  6.00E-06,  avg # of iterations =  1.4

     total cpu time spent up to now is        4.3 secs

     total energy              =     -55.80000699 Ry
     estimated scf accuracy    <       0.00014379 Ry

     total magnetization       =     2.00 Bohr mag/cell
     absolute magnetization    =     2.09 Bohr mag/cell

     iteration #  4     ecut=    30.00 Ry     beta= 0.50
     Davidson diagonalization with overlap
     ethr =  1.80E-06,  avg # of iterations =  1.2

     total cpu time spent up to now is        4.3 secs

     total energy              =     -55.80001007 Ry
     estimated scf accuracy    <       0.00001793 Ry

     total magnetization       =     2.00 Bohr mag/cell
     absolute magnetization    =     2.10 Bohr mag/cell

     iteration #  5     ecut=    30.00 Ry     beta= 0.50
     Davidson diagonalization with overlap
     ethr =  2.24E-07,  avg # of iterations =  1.7

     total cpu time spent up to now is        4.3 secs

     total energy              =     -55.80001441 Ry
     estimated scf accuracy    <       0.00000023 Ry

     total magnetization       =     2.00 Bohr mag/cell
     absolute magnetization    =     2.10 Bohr mag/cell

     iteration #  6     ecut=    30.00 Ry     beta= 0.50
     Davidson diagonalization with overlap
     ethr =  2.84E-09,  avg # of iterations =  2.9

     total cpu time spent up to now is        4.4 secs

     total energy              =     -55.80001474 Ry
     estimated scf accuracy    <       0.00000085 Ry

     total magnetization       =     2.00 Bohr mag/cell
     absolute magnetization    =     2.10 Bohr mag/cell

     iteration #  7     ecut=    30.00 Ry     beta= 0.50
     Davidson diagonalization with overlap
     ethr =  2.84E-09,  avg # of iterations =  1.1

     total cpu time spent up to now is        4.4 secs

     total energy              =     -55.80001415 Ry
     estimated scf accuracy    <       0.00000178 Ry

     total magnetization       =     2.00 Bohr mag/cell
     absolute magnetization    =     2.10 Bohr mag/cell

     iteration #  8     ecut=    30.00 Ry     beta= 0.50
     Davidson diagonalization with overlap
     ethr =  2.84E-09,  avg # of iterations =  2.1

     total cpu time spent up to now is        4.5 secs

     total energy              =     -55.80001439 Ry
     estimated scf accuracy    <       0.00000002 Ry

     total magnetization       =     2.00 Bohr mag/cell
     absolute magnetization    =     2.10 Bohr mag/cell

     iteration #  9     ecut=    30.00 Ry     beta= 0.50
     Davidson diagonalization with overlap
     ethr =  2.15E-10,  avg # of iterations =  2.0

     Magnetic moment per site  (integrated on atomic sphere of radius R)
     atom   1 (R=0.413)  charge=  6.4434  magn=  2.0374

     total cpu time spent up to now is        4.6 secs

     End of self-consistent calculation

 ------ SPIN UP ------------


          k = 0.0000 0.0000 0.0000 (   201 PWs)   bands (ev):

     5.3934  11.7492  11.7492  11.7492  12.8735  12.8735  38.7723  38.7723

          k = 0.2157 0.2157 0.0000 (   205 PWs)   bands (ev):

     7.7002  11.1597  11.5520  12.7498  12.9469  13.0233  29.9993  35.2142

          k =-0.4314-0.4314 0.0000 (   194 PWs)   bands (ev):

     8.9613  10.6142  12.9938  13.0758  14.5284  14.5557  21.5644  32.3145

          k = 0.4314 0.2157 0.2157 (   202 PWs)   bands (ev):

     9.9036  10.6057  11.3110  12.8939  13.3341  16.4701  25.2326  26.1675

          k = 0.4314 0.4314 0.4314 (   216 PWs)   bands (ev):

    10.7649  10.7649  10.7649  13.1126  13.1126  22.8248  22.8248  22.8248

          k = 0.0000 0.0000 0.4314 (   209 PWs)   bands (ev):

     9.2348  10.8865  12.2038  12.2038  12.9780  14.2330  31.4014  31.4014

          k =-0.8628-0.2157-0.2157 (   210 PWs)   bands (ev):

     9.6334  10.1746  12.1417  12.7547  14.4125  19.2629  22.0669  28.0825

          k =-0.8628-0.8628-0.8628 (   236 PWs)   bands (ev):

     8.9695   8.9695  14.2713  14.2713  14.2713  24.1002  24.1002  24.1002

 ------ SPIN DOWN ----------


          k = 0.0000 0.0000 0.0000 (   201 PWs)   bands (ev):

     5.5136  13.5193  13.5193  13.5193  15.8031  15.8031  38.5564  38.5564

          k = 0.2157 0.2157 0.0000 (   205 PWs)   bands (ev):

     7.9166  12.8248  13.2186  14.9075  15.4134  15.8940  30.6146  35.3338

          k =-0.4314-0.4314 0.0000 (   194 PWs)   bands (ev):

    10.1975  12.1930  14.5946  15.6068  16.0768  16.6232  22.8663  32.3723

          k = 0.4314 0.2157 0.2157 (   202 PWs)   bands (ev):

    10.9018  12.2303  12.6618  15.4286  16.0351  18.0492  26.0869  26.8090

          k = 0.4314 0.4314 0.4314 (   216 PWs)   bands (ev):

    12.0374  12.0374  12.0374  16.1261  16.1261  23.6497  23.6497  23.6497

          k = 0.0000 0.0000 0.4314 (   209 PWs)   bands (ev):

     9.8155  13.2384  13.9098  13.9098  14.8707  16.7316  31.9314  31.9314

          k =-0.8628-0.2157-0.2157 (   210 PWs)   bands (ev):

    11.4017  11.9849  13.8441  14.6814  16.4645  20.3105  23.0806  28.5193

          k =-0.8628-0.8628-0.8628 (   236 PWs)   bands (ev):

    10.8965  10.8965  16.3079  16.3079  16.3079  24.2809  24.2809  24.2809

     the Fermi energy is    14.3000 ev

!    total energy              =     -55.80001440 Ry
     estimated scf accuracy    <          2.1E-10 Ry
     smearing contrib. (-TS)   =       0.00024114 Ry
     internal energy E=F+TS    =     -55.80025554 Ry

     The total energy is F=E-TS. E is the sum of the following terms:
     one-electron contribution =       7.99395995 Ry
     hartree contribution      =       6.44538084 Ry
     xc contribution           =     -26.45532138 Ry
     ewald contribution        =     -43.78427494 Ry

     total magnetization       =     2.00 Bohr mag/cell
     absolute magnetization    =     2.10 Bohr mag/cell

     convergence has been achieved in   9 iterations

     Forces acting on atoms (cartesian axes, Ry/au):

     atom    1 type  1   force =     0.00000000    0.00000000    0.00000000
     The non-local contrib.  to forces
     atom    1 type  1   force =     0.00000000    0.00000000    0.00000000
     The ionic contribution  to forces
     atom    1 type  1   force =    -0.00000000   -0.00000000   -0.00000000
     The local contribution  to forces
     atom    1 type  1   force =     0.00000000   -0.00000000   -0.00000000
     The core correction contribution to forces
     atom    1 type  1   force =    -0.00000000   -0.00000000    0.00000000
     The Hubbard contrib.    to forces
     atom    1 type  1   force =     0.00000000    0.00000000    0.00000000
     The SCF correction term to forces
     atom    1 type  1   force =    -0.00000000    0.00000000    0.00000000

     Total force =     0.000000     Total SCF correction =     0.000000


     Computing stress (Cartesian axis) and pressure

          total   stress  (Ry/bohr**3)                   (kbar)     P=        3.34
   0.00002270   0.00000000  -0.00000000            3.34        0.00       -0.00
   0.00000000   0.00002270  -0.00000000            0.00        3.34       -0.00
  -0.00000000  -0.00000000   0.00002270           -0.00       -0.00        3.34

     Energy error            =      9.0E-07 Ry
     Gradient error          =      0.0E+00 Ry/Bohr
     Cell gradient error     =      3.3E+00 kbar

     number of scf cycles    =   3
     number of bfgs steps    =   2

     enthalpy           old  =     -55.8000134976 Ry
     enthalpy           new  =     -55.8000143965 Ry

     CASE: enthalpy          _new < enthalpy          _old

     new trust radius        =       0.0005419380 bohr
     new conv_thr            =       0.0000000010 Ry

     new unit-cell volume =     75.33418 a.u.^3 (    11.16337 Ang^3 )
     density =      8.30688 g/cm^3

CELL_PARAMETERS (angstrom)
  -1.407921662   1.407921662   1.407921662
   1.407921662  -1.407921662   1.407921662
   1.407921662   1.407921662  -1.407921662

ATOMIC_POSITIONS (angstrom)
Fe            0.0000000000        0.0000000000        0.0000000000



     Writing config-only to output data dir /home/gridsan/epan1/labutil/lab3_samples/problem1/Lab3/Fe_bcc_a_2.8046394196999995_ecut_30_nk_4/pwscf.save/
     NEW-OLD atomic charge density approx. for the potential
     extrapolated charge    8.00749, renormalised to    8.00000
     Generating pointlists ...

     total cpu time spent up to now is        5.0 secs

     Self-consistent Calculation

     iteration #  1     ecut=    30.00 Ry     beta= 0.50
     Davidson diagonalization with overlap
     ethr =  1.00E-06,  avg # of iterations =  2.0

     total cpu time spent up to now is        5.0 secs

     total energy              =     -55.79995960 Ry
     estimated scf accuracy    <       0.00006382 Ry

     total magnetization       =     2.00 Bohr mag/cell
     absolute magnetization    =     2.09 Bohr mag/cell

     iteration #  2     ecut=    30.00 Ry     beta= 0.50
     Davidson diagonalization with overlap
     ethr =  7.98E-07,  avg # of iterations =  2.3

     total cpu time spent up to now is        5.1 secs

     total energy              =     -55.80001158 Ry
     estimated scf accuracy    <       0.00014437 Ry

     total magnetization       =     2.00 Bohr mag/cell
     absolute magnetization    =     2.10 Bohr mag/cell

     iteration #  3     ecut=    30.00 Ry     beta= 0.50
     Davidson diagonalization with overlap
     ethr =  7.98E-07,  avg # of iterations =  1.2

     total cpu time spent up to now is        5.1 secs

     total energy              =     -55.80001896 Ry
     estimated scf accuracy    <       0.00002323 Ry

     total magnetization       =     2.00 Bohr mag/cell
     absolute magnetization    =     2.10 Bohr mag/cell

     iteration #  4     ecut=    30.00 Ry     beta= 0.50
     Davidson diagonalization with overlap
     ethr =  2.90E-07,  avg # of iterations =  1.0

     total cpu time spent up to now is        5.2 secs

     total energy              =     -55.80001856 Ry
     estimated scf accuracy    <       0.00001634 Ry

     total magnetization       =     2.00 Bohr mag/cell
     absolute magnetization    =     2.10 Bohr mag/cell

     iteration #  5     ecut=    30.00 Ry     beta= 0.50
     Davidson diagonalization with overlap
     ethr =  2.04E-07,  avg # of iterations =  1.0

     total cpu time spent up to now is        5.2 secs

     total energy              =     -55.80001280 Ry
     estimated scf accuracy    <       0.00001374 Ry

     total magnetization       =     2.00 Bohr mag/cell
     absolute magnetization    =     2.10 Bohr mag/cell

     iteration #  6     ecut=    30.00 Ry     beta= 0.50
     Davidson diagonalization with overlap
     ethr =  1.72E-07,  avg # of iterations =  1.4

     total cpu time spent up to now is        5.3 secs

     total energy              =     -55.80001531 Ry
     estimated scf accuracy    <       0.00000003 Ry

     total magnetization       =     2.00 Bohr mag/cell
     absolute magnetization    =     2.10 Bohr mag/cell

     iteration #  7     ecut=    30.00 Ry     beta= 0.50
     Davidson diagonalization with overlap
     ethr =  3.92E-10,  avg # of iterations =  3.3

     total cpu time spent up to now is        5.3 secs

     total energy              =     -55.80001536 Ry
     estimated scf accuracy    <       0.00000003 Ry

     total magnetization       =     2.00 Bohr mag/cell
     absolute magnetization    =     2.10 Bohr mag/cell

     iteration #  8     ecut=    30.00 Ry     beta= 0.50
     Davidson diagonalization with overlap
     ethr =  3.42E-10,  avg # of iterations =  1.6

     total cpu time spent up to now is        5.4 secs

     total energy              =     -55.80001537 Ry
     estimated scf accuracy    <          2.0E-09 Ry

     total magnetization       =     2.00 Bohr mag/cell
     absolute magnetization    =     2.10 Bohr mag/cell

     iteration #  9     ecut=    30.00 Ry     beta= 0.50
     Davidson diagonalization with overlap
     ethr =  2.54E-11,  avg # of iterations =  1.9

     total cpu time spent up to now is        5.4 secs

     total energy              =     -55.80001537 Ry
     estimated scf accuracy    <          4.4E-09 Ry

     total magnetization       =     2.00 Bohr mag/cell
     absolute magnetization    =     2.10 Bohr mag/cell

     iteration # 10     ecut=    30.00 Ry     beta= 0.50
     Davidson diagonalization with overlap
     ethr =  2.54E-11,  avg # of iterations =  1.0

     Magnetic moment per site  (integrated on atomic sphere of radius R)
     atom   1 (R=0.413)  charge=  6.4422  magn=  2.0371

     total cpu time spent up to now is        5.5 secs

     End of self-consistent calculation

 ------ SPIN UP ------------


          k = 0.0000 0.0000 0.0000 (   201 PWs)   bands (ev):

     5.3820  11.7346  11.7346  11.7346  12.8565  12.8565  38.7468  38.7468

          k = 0.2156 0.2156 0.0000 (   205 PWs)   bands (ev):

     7.6875  11.1459  11.5374  12.7333  12.9298  13.0069  29.9720  35.1879

          k =-0.4313-0.4313 0.0000 (   194 PWs)   bands (ev):

     8.9498  10.6012  12.9769  13.0585  14.5116  14.5372  21.5390  32.2900

          k = 0.4313 0.2156 0.2156 (   202 PWs)   bands (ev):

     9.8908  10.5924  11.2968  12.8772  13.3167  16.4499  25.2076  26.1405

          k = 0.4313 0.4313 0.4313 (   216 PWs)   bands (ev):

    10.7515  10.7515  10.7515  13.0952  13.0952  22.8013  22.8013  22.8013

          k = 0.0000 0.0000 0.4313 (   209 PWs)   bands (ev):

     9.2216  10.8727  12.1887  12.1887  12.9618  14.2141  31.3721  31.3721

          k =-0.8626-0.2156-0.2156 (   210 PWs)   bands (ev):

     9.6212  10.1616  12.1267  12.7386  14.3943  19.2415  22.0421  28.0555

          k =-0.8626-0.8626-0.8626 (   236 PWs)   bands (ev):

     8.9582   8.9582  14.2532  14.2532  14.2532  24.0766  24.0766  24.0766

 ------ SPIN DOWN ----------


          k = 0.0000 0.0000 0.0000 (   201 PWs)   bands (ev):

     5.5016  13.5041  13.5041  13.5041  15.7862  15.7862  38.5301  38.5301

          k = 0.2156 0.2156 0.0000 (   205 PWs)   bands (ev):

     7.9032  12.8105  13.2038  14.8905  15.3968  15.8769  30.5865  35.3069

          k =-0.4313-0.4313 0.0000 (   194 PWs)   bands (ev):

    10.1856  12.1795  14.5771  15.5897  16.0594  16.6040  22.8402  32.3471

          k = 0.4313 0.2156 0.2156 (   202 PWs)   bands (ev):

    10.8881  12.2168  12.6473  15.4118  16.0175  18.0284  26.0610  26.7812

          k = 0.4313 0.4313 0.4313 (   216 PWs)   bands (ev):

    12.0235  12.0235  12.0235  16.1087  16.1087  23.6252  23.6252  23.6252

          k = 0.0000 0.0000 0.4313 (   209 PWs)   bands (ev):

     9.8015  13.2249  13.8941  13.8941  14.8539  16.7129  31.9014  31.9014

          k =-0.8626-0.2156-0.2156 (   210 PWs)   bands (ev):

    11.3895  11.9720  13.8285  14.6650  16.4455  20.2884  23.0550  28.4915

          k =-0.8626-0.8626-0.8626 (   236 PWs)   bands (ev):

    10.8856  10.8856  16.2891  16.2891  16.2891  24.2565  24.2565  24.2565

     the Fermi energy is    14.2815 ev

!    total energy              =     -55.80001537 Ry
     estimated scf accuracy    <          8.7E-10 Ry
     smearing contrib. (-TS)   =       0.00024765 Ry
     internal energy E=F+TS    =     -55.80026302 Ry

     The total energy is F=E-TS. E is the sum of the following terms:
     one-electron contribution =       7.97457047 Ry
     hartree contribution      =       6.45040302 Ry
     xc contribution           =     -26.45463285 Ry
     ewald contribution        =     -43.77060365 Ry

     total magnetization       =     2.00 Bohr mag/cell
     absolute magnetization    =     2.10 Bohr mag/cell

     convergence has been achieved in  10 iterations

     Forces acting on atoms (cartesian axes, Ry/au):

     atom    1 type  1   force =     0.00000000    0.00000000    0.00000000
     The non-local contrib.  to forces
     atom    1 type  1   force =     0.00000000    0.00000000    0.00000000
     The ionic contribution  to forces
     atom    1 type  1   force =    -0.00000000   -0.00000000   -0.00000000
     The local contribution  to forces
     atom    1 type  1   force =    -0.00000000    0.00000000   -0.00000000
     The core correction contribution to forces
     atom    1 type  1   force =     0.00000000    0.00000000   -0.00000000
     The Hubbard contrib.    to forces
     atom    1 type  1   force =     0.00000000    0.00000000    0.00000000
     The SCF correction term to forces
     atom    1 type  1   force =     0.00000000    0.00000000    0.00000000

     Total force =     0.000000     Total SCF correction =     0.000000


     Computing stress (Cartesian axis) and pressure

          total   stress  (Ry/bohr**3)                   (kbar)     P=        1.56
   0.00001064  -0.00000000  -0.00000000            1.56       -0.00       -0.00
  -0.00000000   0.00001064  -0.00000000           -0.00        1.56       -0.00
  -0.00000000  -0.00000000   0.00001064           -0.00       -0.00        1.56

     Energy error            =      9.7E-07 Ry
     Gradient error          =      0.0E+00 Ry/Bohr
     Cell gradient error     =      1.6E+00 kbar

     number of scf cycles    =   4
     number of bfgs steps    =   3

     enthalpy           old  =     -55.8000143965 Ry
     enthalpy           new  =     -55.8000153670 Ry

     CASE: enthalpy          _new < enthalpy          _old

     new trust radius        =       0.0004787422 bohr
     new conv_thr            =       0.0000000010 Ry

     new unit-cell volume =     75.39653 a.u.^3 (    11.17261 Ang^3 )
     density =      8.30001 g/cm^3

CELL_PARAMETERS (angstrom)
  -1.408309950   1.408309950   1.408309950
   1.408309950  -1.408309950   1.408309950
   1.408309950   1.408309950  -1.408309950

ATOMIC_POSITIONS (angstrom)
Fe            0.0000000000        0.0000000000        0.0000000000



     Writing config-only to output data dir /home/gridsan/epan1/labutil/lab3_samples/problem1/Lab3/Fe_bcc_a_2.8046394196999995_ecut_30_nk_4/pwscf.save/
     NEW-OLD atomic charge density approx. for the potential
     extrapolated charge    8.00661, renormalised to    8.00000
     Generating pointlists ...

     total cpu time spent up to now is        5.7 secs

     Self-consistent Calculation

     iteration #  1     ecut=    30.00 Ry     beta= 0.50
     Davidson diagonalization with overlap
     ethr =  1.00E-06,  avg # of iterations =  2.0

     total cpu time spent up to now is        5.8 secs

     total energy              =     -55.79997229 Ry
     estimated scf accuracy    <       0.00004935 Ry

     total magnetization       =     2.00 Bohr mag/cell
     absolute magnetization    =     2.10 Bohr mag/cell

     iteration #  2     ecut=    30.00 Ry     beta= 0.50
     Davidson diagonalization with overlap
     ethr =  6.17E-07,  avg # of iterations =  2.3

     total cpu time spent up to now is        5.8 secs

     total energy              =     -55.80001231 Ry
     estimated scf accuracy    <       0.00011154 Ry

     total magnetization       =     2.00 Bohr mag/cell
     absolute magnetization    =     2.10 Bohr mag/cell

     iteration #  3     ecut=    30.00 Ry     beta= 0.50
     Davidson diagonalization with overlap
     ethr =  6.17E-07,  avg # of iterations =  1.2

     total cpu time spent up to now is        5.9 secs

     total energy              =     -55.80001805 Ry
     estimated scf accuracy    <       0.00001761 Ry

     total magnetization       =     2.00 Bohr mag/cell
     absolute magnetization    =     2.10 Bohr mag/cell

     iteration #  4     ecut=    30.00 Ry     beta= 0.50
     Davidson diagonalization with overlap
     ethr =  2.20E-07,  avg # of iterations =  1.0

     total cpu time spent up to now is        5.9 secs

     total energy              =     -55.80001743 Ry
     estimated scf accuracy    <       0.00001213 Ry

     total magnetization       =     2.00 Bohr mag/cell
     absolute magnetization    =     2.10 Bohr mag/cell

     iteration #  5     ecut=    30.00 Ry     beta= 0.50
     Davidson diagonalization with overlap
     ethr =  1.52E-07,  avg # of iterations =  1.0

     total cpu time spent up to now is        6.0 secs

     total energy              =     -55.80001363 Ry
     estimated scf accuracy    <       0.00000896 Ry

     total magnetization       =     2.00 Bohr mag/cell
     absolute magnetization    =     2.10 Bohr mag/cell

     iteration #  6     ecut=    30.00 Ry     beta= 0.50
     Davidson diagonalization with overlap
     ethr =  1.12E-07,  avg # of iterations =  1.4

     total cpu time spent up to now is        6.0 secs

     total energy              =     -55.80001534 Ry
     estimated scf accuracy    <       0.00000004 Ry

     total magnetization       =     2.00 Bohr mag/cell
     absolute magnetization    =     2.10 Bohr mag/cell

     iteration #  7     ecut=    30.00 Ry     beta= 0.50
     Davidson diagonalization with overlap
     ethr =  5.05E-10,  avg # of iterations =  3.1

     total cpu time spent up to now is        6.1 secs

     total energy              =     -55.80001538 Ry
     estimated scf accuracy    <          2.0E-09 Ry

     total magnetization       =     2.00 Bohr mag/cell
     absolute magnetization    =     2.10 Bohr mag/cell

     iteration #  8     ecut=    30.00 Ry     beta= 0.50
     Davidson diagonalization with overlap
     ethr =  2.54E-11,  avg # of iterations =  3.5

     Magnetic moment per site  (integrated on atomic sphere of radius R)
     atom   1 (R=0.413)  charge=  6.4412  magn=  2.0369

     total cpu time spent up to now is        6.1 secs

     End of self-consistent calculation

 ------ SPIN UP ------------


          k = 0.0000 0.0000 0.0000 (   201 PWs)   bands (ev):

     5.3720  11.7219  11.7219  11.7219  12.8417  12.8417  38.7242  38.7242

          k = 0.2156 0.2156 0.0000 (   205 PWs)   bands (ev):

     7.6764  11.1340  11.5247  12.7189  12.9149  12.9927  29.9479  35.1647

          k =-0.4312-0.4312 0.0000 (   194 PWs)   bands (ev):

     8.9397  10.5899  12.9621  13.0434  14.4968  14.5211  21.5167  32.2682

          k = 0.4312 0.2156 0.2156 (   202 PWs)   bands (ev):

     9.8796  10.5808  11.2844  12.8627  13.3015  16.4322  25.1856  26.1167

          k = 0.4312 0.4312 0.4312 (   216 PWs)   bands (ev):

    10.7399  10.7399  10.7399  13.0800  13.0800  22.7806  22.7806  22.7806

          k = 0.0000 0.0000 0.4312 (   209 PWs)   bands (ev):

     9.2100  10.8606  12.1755  12.1755  12.9477  14.1977  31.3464  31.3464

          k =-0.8623-0.2156-0.2156 (   210 PWs)   bands (ev):

     9.6105  10.1503  12.1135  12.7246  14.3783  19.2226  22.0202  28.0316

          k =-0.8623-0.8623-0.8623 (   236 PWs)   bands (ev):

     8.9484   8.9484  14.2374  14.2374  14.2374  24.0557  24.0557  24.0557

 ------ SPIN DOWN ----------


          k = 0.0000 0.0000 0.0000 (   201 PWs)   bands (ev):

     5.4910  13.4909  13.4909  13.4909  15.7714  15.7714  38.5068  38.5068

          k = 0.2156 0.2156 0.0000 (   205 PWs)   bands (ev):

     7.8913  12.7981  13.1909  14.8757  15.3823  15.8620  30.5617  35.2832

          k =-0.4312-0.4312 0.0000 (   194 PWs)   bands (ev):

    10.1750  12.1678  14.5616  15.5747  16.0443  16.5873  22.8172  32.3250

          k = 0.4312 0.2156 0.2156 (   202 PWs)   bands (ev):

    10.8761  12.2050  12.6346  15.3971  16.0021  18.0103  26.0382  26.7568

          k = 0.4312 0.4312 0.4312 (   216 PWs)   bands (ev):

    12.0114  12.0114  12.0114  16.0935  16.0935  23.6038  23.6038  23.6038

          k = 0.0000 0.0000 0.4312 (   209 PWs)   bands (ev):

     9.7892  13.2131  13.8804  13.8804  14.8392  16.6965  31.8749  31.8749

          k =-0.8623-0.2156-0.2156 (   210 PWs)   bands (ev):

    11.3788  11.9606  13.8149  14.6507  16.4289  20.2689  23.0324  28.4670

          k =-0.8623-0.8623-0.8623 (   236 PWs)   bands (ev):

    10.8760  10.8760  16.2727  16.2727  16.2727  24.2350  24.2350  24.2350

     the Fermi energy is    14.2653 ev

!    total energy              =     -55.80001539 Ry
     estimated scf accuracy    <          3.5E-10 Ry
     smearing contrib. (-TS)   =       0.00025313 Ry
     internal energy E=F+TS    =     -55.80026851 Ry

     The total energy is F=E-TS. E is the sum of the following terms:
     one-electron contribution =       7.95755928 Ry
     hartree contribution      =       6.45464657 Ry
     xc contribution           =     -26.45393879 Ry
     ewald contribution        =     -43.75853556 Ry

     total magnetization       =     2.00 Bohr mag/cell
     absolute magnetization    =     2.10 Bohr mag/cell

     convergence has been achieved in   8 iterations

     Forces acting on atoms (cartesian axes, Ry/au):

     atom    1 type  1   force =     0.00000000    0.00000000    0.00000000
     The non-local contrib.  to forces
     atom    1 type  1   force =     0.00000000    0.00000000    0.00000000
     The ionic contribution  to forces
     atom    1 type  1   force =    -0.00000000   -0.00000000   -0.00000000
     The local contribution  to forces
     atom    1 type  1   force =    -0.00000000   -0.00000000   -0.00000000
     The core correction contribution to forces
     atom    1 type  1   force =    -0.00000000    0.00000000   -0.00000000
     The Hubbard contrib.    to forces
     atom    1 type  1   force =     0.00000000    0.00000000    0.00000000
     The SCF correction term to forces
     atom    1 type  1   force =     0.00000000    0.00000000    0.00000000

     Total force =     0.000000     Total SCF correction =     0.000000


     Computing stress (Cartesian axis) and pressure

          total   stress  (Ry/bohr**3)                   (kbar)     P=       -1.08
  -0.00000733   0.00000000   0.00000000           -1.08        0.00        0.00
   0.00000000  -0.00000733   0.00000000            0.00       -1.08        0.00
   0.00000000   0.00000000  -0.00000733            0.00        0.00       -1.08

     Energy error            =      1.8E-08 Ry
     Gradient error          =      0.0E+00 Ry/Bohr
     Cell gradient error     =      1.1E+00 kbar

     number of scf cycles    =   5
     number of bfgs steps    =   4

     enthalpy           old  =     -55.8000153670 Ry
     enthalpy           new  =     -55.8000153854 Ry

     CASE: enthalpy          _new < enthalpy          _old

     new trust radius        =       0.0001953850 bohr
     new conv_thr            =       0.0000000010 Ry

     new unit-cell volume =     75.37108 a.u.^3 (    11.16884 Ang^3 )
     density =      8.30281 g/cm^3

CELL_PARAMETERS (angstrom)
  -1.408151503   1.408151503   1.408151503
   1.408151503  -1.408151503   1.408151503
   1.408151503   1.408151503  -1.408151503

ATOMIC_POSITIONS (angstrom)
Fe            0.0000000000        0.0000000000        0.0000000000



     Writing config-only to output data dir /home/gridsan/epan1/labutil/lab3_samples/problem1/Lab3/Fe_bcc_a_2.8046394196999995_ecut_30_nk_4/pwscf.save/
     NEW-OLD atomic charge density approx. for the potential
     extrapolated charge    7.99730, renormalised to    8.00000
     Generating pointlists ...

     total cpu time spent up to now is        6.4 secs

     Self-consistent Calculation

     iteration #  1     ecut=    30.00 Ry     beta= 0.50
     Davidson diagonalization with overlap
     ethr =  1.00E-06,  avg # of iterations =  2.0

     Threshold (ethr) on eigenvalues was too large:
     Diagonalizing with lowered threshold

     Davidson diagonalization with overlap
     ethr =  8.85E-08,  avg # of iterations =  1.0

     total cpu time spent up to now is        6.5 secs

     total energy              =     -55.80000898 Ry
     estimated scf accuracy    <       0.00000730 Ry

     total magnetization       =     2.00 Bohr mag/cell
     absolute magnetization    =     2.10 Bohr mag/cell

     iteration #  2     ecut=    30.00 Ry     beta= 0.50
     Davidson diagonalization with overlap
     ethr =  9.12E-08,  avg # of iterations =  2.3

     total cpu time spent up to now is        6.5 secs

     total energy              =     -55.80001474 Ry
     estimated scf accuracy    <       0.00001878 Ry

     total magnetization       =     2.00 Bohr mag/cell
     absolute magnetization    =     2.10 Bohr mag/cell

     iteration #  3     ecut=    30.00 Ry     beta= 0.50
     Davidson diagonalization with overlap
     ethr =  9.12E-08,  avg # of iterations =  1.3

     total cpu time spent up to now is        6.6 secs

     total energy              =     -55.80001488 Ry
     estimated scf accuracy    <       0.00000249 Ry

     total magnetization       =     2.00 Bohr mag/cell
     absolute magnetization    =     2.10 Bohr mag/cell

     iteration #  4     ecut=    30.00 Ry     beta= 0.50
     Davidson diagonalization with overlap
     ethr =  3.11E-08,  avg # of iterations =  1.6

     total cpu time spent up to now is        6.6 secs

     total energy              =     -55.80001549 Ry
     estimated scf accuracy    <       0.00000006 Ry

     total magnetization       =     2.00 Bohr mag/cell
     absolute magnetization    =     2.10 Bohr mag/cell

     iteration #  5     ecut=    30.00 Ry     beta= 0.50
     Davidson diagonalization with overlap
     ethr =  7.54E-10,  avg # of iterations =  2.4

     total cpu time spent up to now is        6.7 secs

     total energy              =     -55.80001551 Ry
     estimated scf accuracy    <       0.00000020 Ry

     total magnetization       =     2.00 Bohr mag/cell
     absolute magnetization    =     2.10 Bohr mag/cell

     iteration #  6     ecut=    30.00 Ry     beta= 0.50
     Davidson diagonalization with overlap
     ethr =  7.54E-10,  avg # of iterations =  1.0

     total cpu time spent up to now is        6.7 secs

     total energy              =     -55.80001545 Ry
     estimated scf accuracy    <       0.00000017 Ry

     total magnetization       =     2.00 Bohr mag/cell
     absolute magnetization    =     2.10 Bohr mag/cell

     iteration #  7     ecut=    30.00 Ry     beta= 0.50
     Davidson diagonalization with overlap
     ethr =  7.54E-10,  avg # of iterations =  1.8

     total cpu time spent up to now is        6.7 secs

     total energy              =     -55.80001547 Ry
     estimated scf accuracy    <          1.7E-09 Ry

     total magnetization       =     2.00 Bohr mag/cell
     absolute magnetization    =     2.10 Bohr mag/cell

     iteration #  8     ecut=    30.00 Ry     beta= 0.50
     Davidson diagonalization with overlap
     ethr =  2.13E-11,  avg # of iterations =  3.1

     total cpu time spent up to now is        6.8 secs

     total energy              =     -55.80001547 Ry
     estimated scf accuracy    <       0.00000001 Ry

     total magnetization       =     2.00 Bohr mag/cell
     absolute magnetization    =     2.10 Bohr mag/cell

     iteration #  9     ecut=    30.00 Ry     beta= 0.50
     Davidson diagonalization with overlap
     ethr =  2.13E-11,  avg # of iterations =  1.4

     total cpu time spent up to now is        6.9 secs

     total energy              =     -55.80001547 Ry
     estimated scf accuracy    <          3.4E-09 Ry

     total magnetization       =     2.00 Bohr mag/cell
     absolute magnetization    =     2.10 Bohr mag/cell

     iteration # 10     ecut=    30.00 Ry     beta= 0.50
     Davidson diagonalization with overlap
     ethr =  2.13E-11,  avg # of iterations =  1.0

     total cpu time spent up to now is        6.9 secs

     total energy              =     -55.80001547 Ry
     estimated scf accuracy    <          5.9E-09 Ry

     total magnetization       =     2.00 Bohr mag/cell
     absolute magnetization    =     2.10 Bohr mag/cell

     iteration # 11     ecut=    30.00 Ry     beta= 0.50
     Davidson diagonalization with overlap
     ethr =  2.13E-11,  avg # of iterations =  1.9

     Magnetic moment per site  (integrated on atomic sphere of radius R)
     atom   1 (R=0.413)  charge=  6.4416  magn=  2.0370

     total cpu time spent up to now is        7.0 secs

     End of self-consistent calculation

 ------ SPIN UP ------------


          k = 0.0000 0.0000 0.0000 (   201 PWs)   bands (ev):

     5.3761  11.7271  11.7271  11.7271  12.8477  12.8477  38.7335  38.7335

          k = 0.2156 0.2156 0.0000 (   205 PWs)   bands (ev):

     7.6810  11.1389  11.5299  12.7248  12.9210  12.9985  29.9578  35.1742

          k =-0.4312-0.4312 0.0000 (   194 PWs)   bands (ev):

     8.9438  10.5946  12.9681  13.0496  14.5029  14.5277  21.5258  32.2772

          k = 0.4312 0.2156 0.2156 (   202 PWs)   bands (ev):

     9.8842  10.5856  11.2895  12.8687  13.3077  16.4395  25.1946  26.1264

          k = 0.4312 0.4312 0.4312 (   216 PWs)   bands (ev):

    10.7447  10.7447  10.7447  13.0862  13.0862  22.7891  22.7891  22.7891

          k = 0.0000 0.0000 0.4312 (   209 PWs)   bands (ev):

     9.2148  10.8656  12.1809  12.1809  12.9535  14.2044  31.3570  31.3570

          k =-0.8624-0.2156-0.2156 (   210 PWs)   bands (ev):

     9.6149  10.1549  12.1189  12.7303  14.3849  19.2303  22.0292  28.0414

          k =-0.8624-0.8624-0.8624 (   236 PWs)   bands (ev):

     8.9524   8.9524  14.2439  14.2439  14.2439  24.0643  24.0643  24.0643

 ------ SPIN DOWN ----------


          k = 0.0000 0.0000 0.0000 (   201 PWs)   bands (ev):

     5.4953  13.4963  13.4963  13.4963  15.7775  15.7775  38.5163  38.5163

          k = 0.2156 0.2156 0.0000 (   205 PWs)   bands (ev):

     7.8961  12.8032  13.1962  14.8818  15.3883  15.8682  30.5718  35.2928

          k =-0.4312-0.4312 0.0000 (   194 PWs)   bands (ev):

    10.1793  12.1726  14.5679  15.5809  16.0505  16.5941  22.8266  32.3340

          k = 0.4312 0.2156 0.2156 (   202 PWs)   bands (ev):

    10.8810  12.2098  12.6398  15.4032  16.0084  18.0177  26.0475  26.7668

          k = 0.4312 0.4312 0.4312 (   216 PWs)   bands (ev):

    12.0164  12.0164  12.0164  16.0997  16.0997  23.6125  23.6125  23.6125

          k = 0.0000 0.0000 0.4312 (   209 PWs)   bands (ev):

     9.7942  13.2179  13.8861  13.8861  14.8452  16.7032  31.8857  31.8857

          k =-0.8624-0.2156-0.2156 (   210 PWs)   bands (ev):

    11.3831  11.9653  13.8205  14.6566  16.4357  20.2769  23.0416  28.4769

          k =-0.8624-0.8624-0.8624 (   236 PWs)   bands (ev):

    10.8799  10.8799  16.2795  16.2795  16.2795  24.2438  24.2438  24.2438

     the Fermi energy is    14.2719 ev

!    total energy              =     -55.80001547 Ry
     estimated scf accuracy    <          4.4E-12 Ry
     smearing contrib. (-TS)   =       0.00025091 Ry
     internal energy E=F+TS    =     -55.80026639 Ry

     The total energy is F=E-TS. E is the sum of the following terms:
     one-electron contribution =       7.96450940 Ry
     hartree contribution      =       6.45290004 Ry
     xc contribution           =     -26.45421650 Ry
     ewald contribution        =     -43.76345933 Ry

     total magnetization       =     2.00 Bohr mag/cell
     absolute magnetization    =     2.10 Bohr mag/cell

     convergence has been achieved in  11 iterations

     Forces acting on atoms (cartesian axes, Ry/au):

     atom    1 type  1   force =     0.00000000    0.00000000    0.00000000
     The non-local contrib.  to forces
     atom    1 type  1   force =     0.00000000    0.00000000    0.00000000
     The ionic contribution  to forces
     atom    1 type  1   force =    -0.00000000   -0.00000000   -0.00000000
     The local contribution  to forces
     atom    1 type  1   force =    -0.00000000   -0.00000000   -0.00000000
     The core correction contribution to forces
     atom    1 type  1   force =     0.00000000   -0.00000000   -0.00000000
     The Hubbard contrib.    to forces
     atom    1 type  1   force =     0.00000000    0.00000000    0.00000000
     The SCF correction term to forces
     atom    1 type  1   force =     0.00000000    0.00000000    0.00000000

     Total force =     0.000000     Total SCF correction =     0.000000


     Computing stress (Cartesian axis) and pressure

          total   stress  (Ry/bohr**3)                   (kbar)     P=       -0.11
  -0.00000075  -0.00000000  -0.00000000           -0.11       -0.00       -0.00
  -0.00000000  -0.00000075  -0.00000000           -0.00       -0.11       -0.00
  -0.00000000  -0.00000000  -0.00000075           -0.00       -0.00       -0.11

     Energy error            =      8.8E-08 Ry
     Gradient error          =      0.0E+00 Ry/Bohr
     Cell gradient error     =      1.1E-01 kbar

     bfgs converged in   6 scf cycles and   5 bfgs steps
     (criteria: energy <  1.0E-04 Ry, force <  1.0E-03 Ry/Bohr, cell <  5.0E-01 kbar)

     End of BFGS Geometry Optimization

     Final enthalpy           =     -55.8000154731 Ry

     File /home/gridsan/epan1/labutil/lab3_samples/problem1/Lab3/Fe_bcc_a_2.8046394196999995_ecut_30_nk_4/pwscf.bfgs deleted, as requested
Begin final coordinates
     new unit-cell volume =     75.37108 a.u.^3 (    11.16884 Ang^3 )
     density =      8.30281 g/cm^3

CELL_PARAMETERS (angstrom)
  -1.408151503   1.408151503   1.408151503
   1.408151503  -1.408151503   1.408151503
   1.408151503   1.408151503  -1.408151503

ATOMIC_POSITIONS (angstrom)
Fe            0.0000000000        0.0000000000        0.0000000000
End final coordinates



     Writing config-only to output data dir /home/gridsan/epan1/labutil/lab3_samples/problem1/Lab3/Fe_bcc_a_2.8046394196999995_ecut_30_nk_4/pwscf.save/

     Final scf calculation at the relaxed structure.
     The G-vectors are recalculated for the final unit cell
     Results may differ from those at the preceding step.

     Parallelization info
     --------------------
     sticks:   dense  smooth     PW     G-vecs:    dense   smooth      PW
     Min          96      49     22                 1188      430     138
     Max          97      50     23                 1189      431     139
     Sum         387     197     91                 4753     1721     555

     Using Slab Decomposition



     bravais-lattice index     =            0
     lattice parameter (alat)  =       4.5899  a.u.
     unit-cell volume          =      75.3711 (a.u.)^3
     number of atoms/cell      =            1
     number of atomic types    =            1
     number of electrons       =         8.00
     number of Kohn-Sham states=            8
     kinetic-energy cutoff     =      30.0000  Ry
     charge density cutoff     =     240.0000  Ry
     scf convergence threshold =      1.0E-09
     mixing beta               =       0.5000
     number of iterations used =            8  plain     mixing
     press convergence thresh. =      5.0E-01
     Exchange-correlation=  SLA  PW   PBE  PBE
                           (   1   4   3   4   0   0   0)

     celldm(1)=   4.589935  celldm(2)=   0.000000  celldm(3)=   0.000000
     celldm(4)=   0.000000  celldm(5)=   0.000000  celldm(6)=   0.000000

     crystal axes: (cart. coord. in units of alat)
               a(1) = (  -0.579751   0.579751   0.579751 )  
               a(2) = (   0.579751  -0.579751   0.579751 )  
               a(3) = (   0.579751   0.579751  -0.579751 )  

     reciprocal axes: (cart. coord. in units 2 pi/alat)
               b(1) = (  0.000000  0.862439  0.862439 )  
               b(2) = (  0.862439  0.000000  0.862439 )  
               b(3) = (  0.862439  0.862439  0.000000 )  


     PseudoPot. # 1 for Fe read from file:
     /home/gridsan/epan1/labutil/lab3_samples/pseudopotentials/Fe.pbe-nd-rrkjus.UPF
     MD5 check sum: 398036227a04b607635f6f5e8dfd8242
     Pseudo is Ultrasoft + core correction, Zval =  8.0
     Generated by new atomic code, or converted to UPF format
     Using radial grid of  957 points,  6 beta functions with: 
                l(1) =   0
                l(2) =   0
                l(3) =   1
                l(4) =   1
                l(5) =   2
                l(6) =   2
     Q(r) pseudized with 0 coefficients 


     atomic species   valence    mass     pseudopotential
        Fe             8.00    55.84500     Fe( 1.00)

     Starting magnetic structure 
     atomic species   magnetization
        Fe           0.316

     48 Sym. Ops., with inversion, found



   Cartesian axes

     site n.     atom                  positions (alat units)
         1           Fe  tau(   1) = (   0.0000000   0.0000000   0.0000000  )

     number of k points=     8  Methfessel-Paxton smearing, width (Ry)=  0.0200
                       cart. coord. in units 2pi/alat
        k(    1) = (   0.0000000   0.0000000   0.0000000), wk =   0.0156250
        k(    2) = (   0.2156097   0.2156097   0.0000000), wk =   0.1875000
        k(    3) = (  -0.4312194  -0.4312194   0.0000000), wk =   0.0937500
        k(    4) = (   0.4312194   0.2156097   0.2156097), wk =   0.3750000
        k(    5) = (   0.4312194   0.4312194   0.4312194), wk =   0.0312500
        k(    6) = (   0.0000000   0.0000000   0.4312194), wk =   0.0937500
        k(    7) = (  -0.8624388  -0.2156097  -0.2156097), wk =   0.1875000
        k(    8) = (  -0.8624388  -0.8624388  -0.8624388), wk =   0.0156250

     Dense  grid:     4753 G-vectors     FFT dimensions: (  24,  24,  24)

     Smooth grid:     1721 G-vectors     FFT dimensions: (  18,  18,  18)

     Estimated max dynamical RAM per process >       7.51 MB

     Estimated total dynamical RAM >      30.06 MB
     Generating pointlists ...

     Initial potential from superposition of free atoms

     starting charge       7.9994, renormalised to       8.0000
     Starting wfcs are    6 randomized atomic wfcs +    2 random wfcs

     total cpu time spent up to now is        7.4 secs

     Self-consistent Calculation

     iteration #  1     ecut=    30.00 Ry     beta= 0.50
     Davidson diagonalization with overlap
     c_bands:  1 eigenvalues not converged
     c_bands:  3 eigenvalues not converged
     c_bands:  1 eigenvalues not converged
     c_bands:  1 eigenvalues not converged
     c_bands:  3 eigenvalues not converged
     ethr =  1.00E-06,  avg # of iterations = 18.3
     Minimization algorithm failed to find Fermi energy: reverting to bisection
     Possible cause: smearing is larger than the electronic band-gap.

     total cpu time spent up to now is        7.6 secs

     total energy              =     -55.66370987 Ry
     estimated scf accuracy    <       0.38503551 Ry

     total magnetization       =     1.96 Bohr mag/cell
     absolute magnetization    =     1.96 Bohr mag/cell

     iteration #  2     ecut=    30.00 Ry     beta= 0.50
     Davidson diagonalization with overlap
     ethr =  4.81E-03,  avg # of iterations =  1.9

     total cpu time spent up to now is        7.7 secs

     total energy              =     -55.77840310 Ry
     estimated scf accuracy    <       0.10748982 Ry

     total magnetization       =     2.06 Bohr mag/cell
     absolute magnetization    =     2.09 Bohr mag/cell

     iteration #  3     ecut=    30.00 Ry     beta= 0.50
     Davidson diagonalization with overlap
     ethr =  1.34E-03,  avg # of iterations =  1.0

     total cpu time spent up to now is        7.7 secs

     total energy              =     -55.79838223 Ry
     estimated scf accuracy    <       0.00216821 Ry

     total magnetization       =     1.99 Bohr mag/cell
     absolute magnetization    =     2.01 Bohr mag/cell

     iteration #  4     ecut=    30.00 Ry     beta= 0.50
     Davidson diagonalization with overlap
     ethr =  2.71E-05,  avg # of iterations =  2.0

     total cpu time spent up to now is        7.8 secs

     total energy              =     -55.79987586 Ry
     estimated scf accuracy    <       0.00046106 Ry

     total magnetization       =     2.01 Bohr mag/cell
     absolute magnetization    =     2.07 Bohr mag/cell

     iteration #  5     ecut=    30.00 Ry     beta= 0.50
     Davidson diagonalization with overlap
     ethr =  5.76E-06,  avg # of iterations =  1.9

     total cpu time spent up to now is        7.8 secs

     total energy              =     -55.80009316 Ry
     estimated scf accuracy    <       0.00007367 Ry

     total magnetization       =     2.01 Bohr mag/cell
     absolute magnetization    =     2.09 Bohr mag/cell

     iteration #  6     ecut=    30.00 Ry     beta= 0.50
     Davidson diagonalization with overlap
     ethr =  9.21E-07,  avg # of iterations =  2.3

     total cpu time spent up to now is        7.9 secs

     total energy              =     -55.80009073 Ry
     estimated scf accuracy    <       0.00006561 Ry

     total magnetization       =     2.00 Bohr mag/cell
     absolute magnetization    =     2.09 Bohr mag/cell

     iteration #  7     ecut=    30.00 Ry     beta= 0.50
     Davidson diagonalization with overlap
     ethr =  8.20E-07,  avg # of iterations =  1.6

     total cpu time spent up to now is        8.0 secs

     total energy              =     -55.80011147 Ry
     estimated scf accuracy    <       0.00000565 Ry

     total magnetization       =     2.00 Bohr mag/cell
     absolute magnetization    =     2.10 Bohr mag/cell

     iteration #  8     ecut=    30.00 Ry     beta= 0.50
     Davidson diagonalization with overlap
     ethr =  7.07E-08,  avg # of iterations =  2.9

     total cpu time spent up to now is        8.1 secs

     total energy              =     -55.80011462 Ry
     estimated scf accuracy    <       0.00000034 Ry

     total magnetization       =     2.00 Bohr mag/cell
     absolute magnetization    =     2.10 Bohr mag/cell

     iteration #  9     ecut=    30.00 Ry     beta= 0.50
     Davidson diagonalization with overlap
     ethr =  4.23E-09,  avg # of iterations =  3.9

     total cpu time spent up to now is        8.2 secs

     total energy              =     -55.80011502 Ry
     estimated scf accuracy    <       0.00000002 Ry

     total magnetization       =     2.00 Bohr mag/cell
     absolute magnetization    =     2.10 Bohr mag/cell

     iteration # 10     ecut=    30.00 Ry     beta= 0.50
     Davidson diagonalization with overlap
     ethr =  2.41E-10,  avg # of iterations =  4.4

     total cpu time spent up to now is        8.3 secs

     total energy              =     -55.80011505 Ry
     estimated scf accuracy    <       0.00000001 Ry

     total magnetization       =     2.00 Bohr mag/cell
     absolute magnetization    =     2.10 Bohr mag/cell

     iteration # 11     ecut=    30.00 Ry     beta= 0.50
     Davidson diagonalization with overlap
     ethr =  1.47E-10,  avg # of iterations =  1.4

     total cpu time spent up to now is        8.3 secs

     total energy              =     -55.80011505 Ry
     estimated scf accuracy    <          2.0E-09 Ry

     total magnetization       =     2.00 Bohr mag/cell
     absolute magnetization    =     2.10 Bohr mag/cell

     iteration # 12     ecut=    30.00 Ry     beta= 0.50
     Davidson diagonalization with overlap
     ethr =  2.52E-11,  avg # of iterations =  2.8

     Magnetic moment per site  (integrated on atomic sphere of radius R)
     atom   1 (R=0.413)  charge=  6.4416  magn=  2.0370

     total cpu time spent up to now is        8.4 secs

     End of self-consistent calculation

 ------ SPIN UP ------------


          k = 0.0000 0.0000 0.0000 (   201 PWs)   bands (ev):

     5.3763  11.7270  11.7270  11.7270  12.8476  12.8476  38.7336  38.7336

          k = 0.2156 0.2156 0.0000 (   205 PWs)   bands (ev):

     7.6812  11.1388  11.5299  12.7246  12.9208  12.9983  29.9578  35.1743

          k =-0.4312-0.4312 0.0000 (   214 PWs)   bands (ev):

     8.9437  10.5933  12.9677  13.0484  14.5029  14.5269  21.5257  32.2771

          k = 0.4312 0.2156 0.2156 (   211 PWs)   bands (ev):

     9.8840  10.5851  11.2889  12.8684  13.3073  16.4393  25.1946  26.1265

          k = 0.4312 0.4312 0.4312 (   216 PWs)   bands (ev):

    10.7446  10.7446  10.7446  13.0860  13.0860  22.7890  22.7890  22.7890

          k = 0.0000 0.0000 0.4312 (   209 PWs)   bands (ev):

     9.2149  10.8655  12.1807  12.1807  12.9533  14.2043  31.3571  31.3581

          k =-0.8624-0.2156-0.2156 (   210 PWs)   bands (ev):

     9.6148  10.1549  12.1188  12.7302  14.3846  19.2304  22.0292  28.0417

          k =-0.8624-0.8624-0.8624 (   236 PWs)   bands (ev):

     8.9524   8.9524  14.2436  14.2436  14.2436  24.0646  24.0646  24.0646

 ------ SPIN DOWN ----------


          k = 0.0000 0.0000 0.0000 (   201 PWs)   bands (ev):

     5.4956  13.4962  13.4962  13.4962  15.7772  15.7772  38.5165  38.5165

          k = 0.2156 0.2156 0.0000 (   205 PWs)   bands (ev):

     7.8964  12.8032  13.1962  14.8817  15.3880  15.8679  30.5719  35.2930

          k =-0.4312-0.4312 0.0000 (   214 PWs)   bands (ev):

    10.1793  12.1713  14.5680  15.5802  16.0487  16.5933  22.8266  32.3339

          k = 0.4312 0.2156 0.2156 (   211 PWs)   bands (ev):

    10.8811  12.2093  12.6392  15.4029  16.0078  18.0175  26.0474  26.7670

          k = 0.4312 0.4312 0.4312 (   216 PWs)   bands (ev):

    12.0164  12.0164  12.0164  16.0994  16.0994  23.6125  23.6125  23.6125

          k = 0.0000 0.0000 0.4312 (   209 PWs)   bands (ev):

     9.7944  13.2178  13.8860  13.8860  14.8451  16.7030  31.8859  31.8859

          k =-0.8624-0.2156-0.2156 (   210 PWs)   bands (ev):

    11.3831  11.9653  13.8204  14.6565  16.4355  20.2769  23.0417  28.4772

          k =-0.8624-0.8624-0.8624 (   236 PWs)   bands (ev):

    10.8799  10.8799  16.2793  16.2793  16.2793  24.2442  24.2442  24.2442

     the Fermi energy is    14.2717 ev

!    total energy              =     -55.80011505 Ry
     estimated scf accuracy    <          2.6E-10 Ry
     smearing contrib. (-TS)   =       0.00025064 Ry
     internal energy E=F+TS    =     -55.80036570 Ry

     The total energy is F=E-TS. E is the sum of the following terms:
     one-electron contribution =       7.96437684 Ry
     hartree contribution      =       6.45276236 Ry
     xc contribution           =     -26.45404556 Ry
     ewald contribution        =     -43.76345933 Ry

     total magnetization       =     2.00 Bohr mag/cell
     absolute magnetization    =     2.10 Bohr mag/cell

     convergence has been achieved in  12 iterations

     Forces acting on atoms (cartesian axes, Ry/au):

     atom    1 type  1   force =     0.00000000    0.00000000    0.00000000
     The non-local contrib.  to forces
     atom    1 type  1   force =     0.00000000    0.00000000    0.00000000
     The ionic contribution  to forces
     atom    1 type  1   force =    -0.00000000   -0.00000000   -0.00000000
     The local contribution  to forces
     atom    1 type  1   force =    -0.00000000   -0.00000000   -0.00000000
     The core correction contribution to forces
     atom    1 type  1   force =    -0.00000000   -0.00000000    0.00000000
     The Hubbard contrib.    to forces
     atom    1 type  1   force =     0.00000000    0.00000000    0.00000000
     The SCF correction term to forces
     atom    1 type  1   force =     0.00000000    0.00000000    0.00000000

     Total force =     0.000000     Total SCF correction =     0.000000


     Computing stress (Cartesian axis) and pressure

          total   stress  (Ry/bohr**3)                   (kbar)     P=       -1.08
  -0.00000732  -0.00000000  -0.00000000           -1.08       -0.00       -0.00
  -0.00000000  -0.00000732  -0.00000000           -0.00       -1.08       -0.00
  -0.00000000  -0.00000000  -0.00000732           -0.00       -0.00       -1.08


     init_run     :      0.58s CPU      0.57s WALL (       2 calls)
     electrons    :      5.43s CPU      6.09s WALL (       7 calls)
     update_pot   :      0.39s CPU      0.34s WALL (       5 calls)
     forces       :      0.35s CPU      0.31s WALL (       7 calls)
     stress       :      0.74s CPU      0.71s WALL (       7 calls)

     Called by init_run:
     wfcinit      :      0.02s CPU      0.02s WALL (       2 calls)
     potinit      :      0.13s CPU      0.13s WALL (       2 calls)
     hinit0       :      0.41s CPU      0.41s WALL (       2 calls)

     Called by electrons:
     c_bands      :      3.39s CPU      4.12s WALL (     105 calls)
     sum_band     :      1.01s CPU      1.02s WALL (     105 calls)
     v_of_rho     :      0.57s CPU      0.51s WALL (     111 calls)
     newd         :      0.31s CPU      0.28s WALL (     111 calls)
     mix_rho      :      0.11s CPU      0.09s WALL (     105 calls)

     Called by c_bands:
     init_us_2    :      0.09s CPU      0.10s WALL (    3616 calls)
     init_us_2:cp :      0.09s CPU      0.09s WALL (    3616 calls)
     cegterg      :      2.82s CPU      2.91s WALL (    1680 calls)

     Called by *egterg:
     cdiaghg      :      0.54s CPU      0.55s WALL (    5361 calls)
     h_psi        :      1.75s CPU      1.80s WALL (    5489 calls)
     s_psi        :      0.04s CPU      0.04s WALL (    5489 calls)
     g_psi        :      0.01s CPU      0.01s WALL (    3777 calls)

     Called by h_psi:
     h_psi:calbec :      0.17s CPU      0.18s WALL (    5489 calls)
     vloc_psi     :      1.51s CPU      1.56s WALL (    5489 calls)
     add_vuspsi   :      0.04s CPU      0.04s WALL (    5489 calls)

     General routines
     calbec       :      0.24s CPU      0.25s WALL (    7729 calls)
     fft          :      0.37s CPU      0.34s WALL (    3048 calls)
     ffts         :      0.11s CPU      0.11s WALL (     432 calls)
     fftw         :      1.54s CPU      1.60s WALL (   80926 calls)
     interpolate  :      0.12s CPU      0.12s WALL (     222 calls)

     Parallel routines

     PWSCF        :      7.74s CPU      8.56s WALL


   This run was terminated on:  10:20:22  31Oct2023            

=------------------------------------------------------------------------------=
   JOB DONE.
=------------------------------------------------------------------------------=
