Header of the LAMMPS data file 

4 atoms 
1 atom types

0.0 4.037373737373737  xlo xhi
0.0 4.037373737373737  ylo yhi
0.0 4.037373737373737  zlo zhi

Masses 

1  107.8682

Atoms # atomic 

1 1 0.00000 0.00000 0.00000 
2 1 0.00000 2.01869 2.01869 
3 1 2.01869 0.00000 2.01869 
4 1 2.01869 2.01869 0.00000 
