LAMMPS (29 Oct 2020)
Reading data file ...
  orthogonal box = (0.0000000 0.0000000 0.0000000) to (49.080000 49.080000 49.080000)
  1 by 1 by 1 MPI processor grid
  reading atoms ...
  6911 atoms
  read_data CPU = 0.005 seconds
Reading eam potential file /home/gridsan/epan1/3320_atomistic_shared/lammps/potentials/Ag_u3.eam with DATE: 2007-06-11
WARNING: No fixes defined, atoms won't move (../verlet.cpp:54)
Neighbor list info ...
  update every 1 steps, delay 10 steps, check yes
  max neighbors/atom: 2000, page size: 100000
  master list distance cutoff = 7.55
  ghost atom cutoff = 7.55
  binsize = 3.775, bins = 14 14 14
  1 neighbor lists, perpetual/occasional/extra = 1 0 0
  (1) pair eam, perpetual
      attributes: half, newton on
      pair build: half/bin/atomonly/newton
      stencil: half/bin/3d/newton
      bin: standard
Setting up Verlet run ...
  Unit style    : metal
  Current step  : 0
  Time step     : 0.001
Per MPI rank memory allocation (min/avg/max) = 4.851 | 4.851 | 4.851 Mbytes
Step PotEng Lx Ly Lz Press Pxx Pyy Pzz 
       0   -19695.374        49.08        49.08        49.08    -21.55924    -21.55924    -21.55924    -21.55924 
Loop time of 9.53674e-07 on 1 procs for 0 steps with 6911 atoms

104.9% CPU use with 1 MPI tasks x no OpenMP threads

MPI task timing breakdown:
Section |  min time  |  avg time  |  max time  |%varavg| %total
---------------------------------------------------------------
Pair    | 0          | 0          | 0          |   0.0 |  0.00
Neigh   | 0          | 0          | 0          |   0.0 |  0.00
Comm    | 0          | 0          | 0          |   0.0 |  0.00
Output  | 0          | 0          | 0          |   0.0 |  0.00
Modify  | 0          | 0          | 0          |   0.0 |  0.00
Other   |            | 9.537e-07  |            |       |100.00

Nlocal:        6911.00 ave        6911 max        6911 min
Histogram: 1 0 0 0 0 0 0 0 0 0
Nghost:        7976.00 ave        7976 max        7976 min
Histogram: 1 0 0 0 0 0 0 0 0 0
Neighs:       297130.0 ave      297130 max      297130 min
Histogram: 1 0 0 0 0 0 0 0 0 0

Total # of neighbors = 297130
Ave neighs/atom = 42.993778
Neighbor list builds = 0
Dangerous builds = 0
WARNING: Using 'neigh_modify every 1 delay 0 check yes' setting during minimization (../min.cpp:187)
Setting up cg style minimization ...
  Unit style    : metal
  Current step  : 0
WARNING: Energy due to 1 extra global DOFs will be included in minimizer energies
Per MPI rank memory allocation (min/avg/max) = 5.976 | 5.976 | 5.976 Mbytes
Step PotEng Lx Ly Lz Press Pxx Pyy Pzz 
       0   -19695.374        49.08        49.08        49.08    -21.55924    -21.55924    -21.55924    -21.55924 
       7   -19695.381     49.07958     49.07958     49.07958    1.7714692    1.7714692    1.7714692    1.7714692 
Loop time of 0.112889 on 1 procs for 7 steps with 6911 atoms

100.0% CPU use with 1 MPI tasks x no OpenMP threads

Minimization stats:
  Stopping criterion = energy tolerance
  Energy initial, next-to-last, final = 
     -19695.3740075403  -19695.3811746248  -19695.3811750049
  Force two-norm initial, final = 4.7813920 0.41594855
  Force max component initial, final = 4.7726325 0.39214866
  Final line search alpha, max atom move = 0.038685135 0.015170324
  Iterations, force evaluations = 7 14

MPI task timing breakdown:
Section |  min time  |  avg time  |  max time  |%varavg| %total
---------------------------------------------------------------
Pair    | 0.10848    | 0.10848    | 0.10848    |   0.0 | 96.09
Neigh   | 0          | 0          | 0          |   0.0 |  0.00
Comm    | 0.00045252 | 0.00045252 | 0.00045252 |   0.0 |  0.40
Output  | 0          | 0          | 0          |   0.0 |  0.00
Modify  | 0          | 0          | 0          |   0.0 |  0.00
Other   |            | 0.003957   |            |       |  3.51

Nlocal:        6911.00 ave        6911 max        6911 min
Histogram: 1 0 0 0 0 0 0 0 0 0
Nghost:        7976.00 ave        7976 max        7976 min
Histogram: 1 0 0 0 0 0 0 0 0 0
Neighs:       297130.0 ave      297130 max      297130 min
Histogram: 1 0 0 0 0 0 0 0 0 0

Total # of neighbors = 297130
Ave neighs/atom = 42.993778
Neighbor list builds = 0
Dangerous builds = 0
Total energy (eV) = -19695.3811750049
Number of atoms = 6911
Lattice constant (Angstoms) = 49.079579612703
Total wall time: 0:00:00
