Header of the LAMMPS data file 

4 atoms 
1 atom types

0.0 4.209090909090909  xlo xhi
0.0 4.209090909090909  ylo yhi
0.0 4.209090909090909  zlo zhi

Masses 

1  107.8682

Atoms # atomic 

1 1 0.00000 0.00000 0.00000 
2 1 0.00000 2.10455 2.10455 
3 1 2.10455 0.00000 2.10455 
4 1 2.10455 2.10455 0.00000 
