
     Program PWSCF v.7.2 starts on  1Nov2023 at 16:58:51 

     This program is part of the open-source Quantum ESPRESSO suite
     for quantum simulation of materials; please cite
         "P. Giannozzi et al., J. Phys.:Condens. Matter 21 395502 (2009);
         "P. Giannozzi et al., J. Phys.:Condens. Matter 29 465901 (2017);
         "P. Giannozzi et al., J. Chem. Phys. 152 154105 (2020);
          URL http://www.quantum-espresso.org", 
     in publications or presentations arising from this work. More details at
     http://www.quantum-espresso.org/quote

     Parallel version (MPI), running on     4 processors

     MPI processes distributed on     4 nodes
     186844 MiB available memory on the printing compute node when the environment starts

     Waiting for input...
     Reading input from standard input
Warning: card &CELL ignored
Warning: card / ignored

     Current dimensions of program PWSCF are:
     Max number of different atomic species (ntypx) = 10
     Max number of k-points (npk) =  40000
     Max angular momentum in pseudopotentials (lmaxx) =  4
     file Fe.pbe-nd-rrkjus.UPF: wavefunction(s)  4S renormalized
     Message from routine setup:
     using ibrav=0 with symmetry is DISCOURAGED, use correct ibrav instead

     R & G space division:  proc/nbgrp/npool/nimage =       4
     Subspace diagonalization in iterative solution of the eigenvalue problem:
     a serial algorithm will be used


     Parallelization info
     --------------------
     sticks:   dense  smooth     PW     G-vecs:    dense   smooth      PW
     Min          57      28     15                  560      197      79
     Max          58      30     16                  562      198      81
     Sum         229     117     63                 2243      791     321

     Using Slab Decomposition



     bravais-lattice index     =            0
     lattice parameter (alat)  =       3.6004  a.u.
     unit-cell volume          =      35.9281 (a.u.)^3
     number of atoms/cell      =            1
     number of atomic types    =            1
     number of electrons       =         8.00
     number of Kohn-Sham states=            8
     kinetic-energy cutoff     =      30.0000  Ry
     charge density cutoff     =     240.0000  Ry
     scf convergence threshold =      1.0E-07
     mixing beta               =       0.5000
     number of iterations used =            8  plain     mixing
     Exchange-correlation=  SLA  PW   PBE  PBE
                           (   1   4   3   4   0   0   0)

     celldm(1)=   3.600412  celldm(2)=   0.000000  celldm(3)=   0.000000
     celldm(4)=   0.000000  celldm(5)=   0.000000  celldm(6)=   0.000000

     crystal axes: (cart. coord. in units of alat)
               a(1) = (  -0.577350   0.577350   0.577350 )  
               a(2) = (   0.577350  -0.577350   0.577350 )  
               a(3) = (   0.577350   0.577350  -0.577350 )  

     reciprocal axes: (cart. coord. in units 2 pi/alat)
               b(1) = (  0.000000  0.866025  0.866025 )  
               b(2) = (  0.866025  0.000000  0.866025 )  
               b(3) = (  0.866025  0.866025  0.000000 )  


     PseudoPot. # 1 for Fe read from file:
     /home/gridsan/epan1/labutil/lab3_samples/pseudopotentials/Fe.pbe-nd-rrkjus.UPF
     MD5 check sum: 398036227a04b607635f6f5e8dfd8242
     Pseudo is Ultrasoft + core correction, Zval =  8.0
     Generated by new atomic code, or converted to UPF format
     Using radial grid of  957 points,  6 beta functions with: 
                l(1) =   0
                l(2) =   0
                l(3) =   1
                l(4) =   1
                l(5) =   2
                l(6) =   2
     Q(r) pseudized with 0 coefficients 


     atomic species   valence    mass     pseudopotential
        Fe             8.00    55.84500     Fe( 1.00)

     Starting magnetic structure 
     atomic species   magnetization
        Fe           0.700

     48 Sym. Ops., with inversion, found



   Cartesian axes

     site n.     atom                  positions (alat units)
         1           Fe  tau(   1) = (   0.0000000   0.0000000   0.0000000  )

     number of k points=    47  Methfessel-Paxton smearing, width (Ry)=  0.0200
                       cart. coord. in units 2pi/alat
        k(    1) = (   0.0000000   0.0000000   0.0000000), wk =   0.0010000
        k(    2) = (   0.0866025   0.0866025   0.0000000), wk =   0.0120000
        k(    3) = (   0.1732051   0.1732051   0.0000000), wk =   0.0120000
        k(    4) = (   0.2598076   0.2598076   0.0000000), wk =   0.0120000
        k(    5) = (   0.3464102   0.3464102   0.0000000), wk =   0.0120000
        k(    6) = (  -0.4330127  -0.4330127   0.0000000), wk =   0.0060000
        k(    7) = (   0.1732051   0.0866025   0.0866025), wk =   0.0240000
        k(    8) = (   0.2598076   0.1732051   0.0866025), wk =   0.0480000
        k(    9) = (   0.3464102   0.2598076   0.0866025), wk =   0.0480000
        k(   10) = (   0.4330127   0.3464102   0.0866025), wk =   0.0480000
        k(   11) = (   0.3464102   0.1732051   0.1732051), wk =   0.0240000
        k(   12) = (   0.4330127   0.2598076   0.1732051), wk =   0.0480000
        k(   13) = (   0.5196152   0.3464102   0.1732051), wk =   0.0240000
        k(   14) = (   0.5196152   0.2598076   0.2598076), wk =   0.0240000
        k(   15) = (   0.1732051   0.1732051   0.1732051), wk =   0.0080000
        k(   16) = (   0.2598076   0.2598076   0.1732051), wk =   0.0240000
        k(   17) = (   0.3464102   0.3464102   0.1732051), wk =   0.0240000
        k(   18) = (   0.4330127   0.4330127   0.1732051), wk =   0.0120000
        k(   19) = (   0.0000000   0.0000000   0.1732051), wk =   0.0060000
        k(   20) = (   0.3464102   0.2598076   0.2598076), wk =   0.0240000
        k(   21) = (   0.4330127   0.3464102   0.2598076), wk =   0.0480000
        k(   22) = (   0.0000000  -0.0866025   0.2598076), wk =   0.0240000
        k(   23) = (   0.5196152   0.3464102   0.3464102), wk =   0.0080000
        k(   24) = (  -0.0000000  -0.1732051   0.3464102), wk =   0.0240000
        k(   25) = (   0.0866025  -0.0866025   0.3464102), wk =   0.0240000
        k(   26) = (   0.0000000  -0.2598076   0.4330127), wk =   0.0240000
        k(   27) = (   0.0866025  -0.1732051   0.4330127), wk =   0.0480000
        k(   28) = (  -0.8660254  -0.3464102  -0.3464102), wk =   0.0120000
        k(   29) = (  -0.7794229  -0.2598076  -0.3464102), wk =   0.0480000
        k(   30) = (  -0.6928203  -0.1732051  -0.3464102), wk =   0.0240000
        k(   31) = (  -0.6928203  -0.2598076  -0.2598076), wk =   0.0240000
        k(   32) = (   0.3464102   0.3464102   0.3464102), wk =   0.0080000
        k(   33) = (   0.4330127   0.4330127   0.3464102), wk =   0.0120000
        k(   34) = (   0.0000000   0.0000000   0.3464102), wk =   0.0060000
        k(   35) = (  -0.0000000  -0.0866025   0.4330127), wk =   0.0240000
        k(   36) = (   0.0000000  -0.1732051   0.5196152), wk =   0.0240000
        k(   37) = (   0.0866025  -0.0866025   0.5196152), wk =   0.0240000
        k(   38) = (  -0.8660254  -0.2598076  -0.2598076), wk =   0.0120000
        k(   39) = (  -0.7794229  -0.1732051  -0.2598076), wk =   0.0480000
        k(   40) = (  -0.6928203  -0.1732051  -0.1732051), wk =   0.0080000
        k(   41) = (  -0.0000000  -0.0000000   0.5196152), wk =   0.0060000
        k(   42) = (   0.0000000  -0.0866025   0.6062178), wk =   0.0240000
        k(   43) = (  -0.8660254  -0.1732051  -0.1732051), wk =   0.0120000
        k(   44) = (  -0.7794229  -0.0866025  -0.1732051), wk =   0.0240000
        k(   45) = (   0.0000000   0.0000000   0.6928203), wk =   0.0060000
        k(   46) = (  -0.8660254  -0.0866025  -0.0866025), wk =   0.0120000
        k(   47) = (  -0.8660254  -0.8660254  -0.8660254), wk =   0.0010000

     Dense  grid:     2243 G-vectors     FFT dimensions: (  18,  18,  18)

     Smooth grid:      791 G-vectors     FFT dimensions: (  15,  15,  15)

     Estimated max dynamical RAM per process >       3.85 MB

     Estimated total dynamical RAM >      15.40 MB
     Generating pointlists ...
     new r_m :   0.4125 (alat units)  1.4852 (a.u.) for type    1

     Initial potential from superposition of free atoms

     starting charge       7.9994, renormalised to       8.0000
     Starting wfcs are    6 randomized atomic wfcs +    2 random wfcs

     total cpu time spent up to now is        0.4 secs

     Self-consistent Calculation

     iteration #  1     ecut=    30.00 Ry     beta= 0.50
     Davidson diagonalization with overlap
     ethr =  1.00E-02,  avg # of iterations =  4.9

     total cpu time spent up to now is        0.6 secs

     total energy              =     -55.13781602 Ry
     estimated scf accuracy    <       0.20042509 Ry

     total magnetization       =     2.14 Bohr mag/cell
     absolute magnetization    =     2.14 Bohr mag/cell

     iteration #  2     ecut=    30.00 Ry     beta= 0.50
     Davidson diagonalization with overlap
     ethr =  2.51E-03,  avg # of iterations =  1.1

     total cpu time spent up to now is        0.8 secs

     total energy              =     -55.22702189 Ry
     estimated scf accuracy    <       0.05986859 Ry

     total magnetization       =     1.81 Bohr mag/cell
     absolute magnetization    =     1.81 Bohr mag/cell

     iteration #  3     ecut=    30.00 Ry     beta= 0.50
     Davidson diagonalization with overlap
     ethr =  7.48E-04,  avg # of iterations =  1.2

     total cpu time spent up to now is        0.9 secs

     total energy              =     -55.25125081 Ry
     estimated scf accuracy    <       0.01118241 Ry

     total magnetization       =     1.22 Bohr mag/cell
     absolute magnetization    =     1.23 Bohr mag/cell

     iteration #  4     ecut=    30.00 Ry     beta= 0.50
     Davidson diagonalization with overlap
     ethr =  1.40E-04,  avg # of iterations =  4.0

     total cpu time spent up to now is        1.1 secs

     total energy              =     -55.26124304 Ry
     estimated scf accuracy    <       0.00177490 Ry

     total magnetization       =     0.74 Bohr mag/cell
     absolute magnetization    =     0.79 Bohr mag/cell

     iteration #  5     ecut=    30.00 Ry     beta= 0.50
     Davidson diagonalization with overlap
     ethr =  2.22E-05,  avg # of iterations =  4.0

     total cpu time spent up to now is        1.3 secs

     total energy              =     -55.26128599 Ry
     estimated scf accuracy    <       0.00119306 Ry

     total magnetization       =     0.65 Bohr mag/cell
     absolute magnetization    =     0.69 Bohr mag/cell

     iteration #  6     ecut=    30.00 Ry     beta= 0.50
     Davidson diagonalization with overlap
     ethr =  1.49E-05,  avg # of iterations =  2.4

     total cpu time spent up to now is        1.4 secs

     total energy              =     -55.26453481 Ry
     estimated scf accuracy    <       0.00013301 Ry

     total magnetization       =     0.39 Bohr mag/cell
     absolute magnetization    =     0.40 Bohr mag/cell

     iteration #  7     ecut=    30.00 Ry     beta= 0.50
     Davidson diagonalization with overlap
     ethr =  1.66E-06,  avg # of iterations =  3.8

     total cpu time spent up to now is        1.6 secs

     total energy              =     -55.26400579 Ry
     estimated scf accuracy    <       0.00019225 Ry

     total magnetization       =     0.42 Bohr mag/cell
     absolute magnetization    =     0.44 Bohr mag/cell

     iteration #  8     ecut=    30.00 Ry     beta= 0.50
     Davidson diagonalization with overlap
     ethr =  1.66E-06,  avg # of iterations =  2.6

     total cpu time spent up to now is        1.8 secs

     total energy              =     -55.26501154 Ry
     estimated scf accuracy    <       0.00002654 Ry

     total magnetization       =     0.25 Bohr mag/cell
     absolute magnetization    =     0.26 Bohr mag/cell

     iteration #  9     ecut=    30.00 Ry     beta= 0.50
     Davidson diagonalization with overlap
     ethr =  3.32E-07,  avg # of iterations =  2.5

     total cpu time spent up to now is        2.0 secs

     total energy              =     -55.26519254 Ry
     estimated scf accuracy    <       0.00000513 Ry

     total magnetization       =     0.19 Bohr mag/cell
     absolute magnetization    =     0.19 Bohr mag/cell

     iteration # 10     ecut=    30.00 Ry     beta= 0.50
     Davidson diagonalization with overlap
     ethr =  6.42E-08,  avg # of iterations =  1.8

     total cpu time spent up to now is        2.2 secs

     total energy              =     -55.26517914 Ry
     estimated scf accuracy    <       0.00000635 Ry

     total magnetization       =     0.19 Bohr mag/cell
     absolute magnetization    =     0.20 Bohr mag/cell

     iteration # 11     ecut=    30.00 Ry     beta= 0.50
     Davidson diagonalization with overlap
     ethr =  6.42E-08,  avg # of iterations =  2.0

     total cpu time spent up to now is        2.4 secs

     total energy              =     -55.26520451 Ry
     estimated scf accuracy    <       0.00000194 Ry

     total magnetization       =     0.16 Bohr mag/cell
     absolute magnetization    =     0.16 Bohr mag/cell

     iteration # 12     ecut=    30.00 Ry     beta= 0.50
     Davidson diagonalization with overlap
     ethr =  2.43E-08,  avg # of iterations =  2.2

     total cpu time spent up to now is        2.6 secs

     total energy              =     -55.26519982 Ry
     estimated scf accuracy    <       0.00000076 Ry

     total magnetization       =     0.14 Bohr mag/cell
     absolute magnetization    =     0.14 Bohr mag/cell

     iteration # 13     ecut=    30.00 Ry     beta= 0.50
     Davidson diagonalization with overlap
     ethr =  9.51E-09,  avg # of iterations =  2.7

     total cpu time spent up to now is        2.8 secs

     total energy              =     -55.26521992 Ry
     estimated scf accuracy    <       0.00000021 Ry

     total magnetization       =     0.12 Bohr mag/cell
     absolute magnetization    =     0.12 Bohr mag/cell

     iteration # 14     ecut=    30.00 Ry     beta= 0.50
     Davidson diagonalization with overlap
     ethr =  2.58E-09,  avg # of iterations =  1.5

     total cpu time spent up to now is        2.9 secs

     total energy              =     -55.26518471 Ry
     estimated scf accuracy    <       0.00000021 Ry

     total magnetization       =     0.12 Bohr mag/cell
     absolute magnetization    =     0.12 Bohr mag/cell

     iteration # 15     ecut=    30.00 Ry     beta= 0.50
     Davidson diagonalization with overlap
     ethr =  2.58E-09,  avg # of iterations =  3.4

     Magnetic moment per site  (integrated on atomic sphere of radius R)
     atom   1 (R=0.413)  charge=  6.0211  magn=  0.0769

     total cpu time spent up to now is        3.2 secs

     End of self-consistent calculation

 ------ SPIN UP ------------


          k = 0.0000 0.0000 0.0000 (    87 PWs)   bands (ev):

    21.3651  28.5122  28.5122  28.5122  32.6976  32.6976  65.0554  65.0554

          k = 0.0866 0.0866 0.0000 (    91 PWs)   bands (ev):

    22.1363  28.1395  28.4543  29.1629  32.2952  32.7286  64.3082  64.9813

          k = 0.1732 0.1732 0.0000 (    97 PWs)   bands (ev):

    23.7071  27.2258  28.4681  30.9610  31.9378  32.8604  61.9590  63.6097

          k = 0.2598 0.2598 0.0000 (   101 PWs)   bands (ev):

    23.6842  26.1985  30.4937  32.3468  33.1312  33.4322  58.1614  60.9808

          k = 0.3464 0.3464 0.0000 (   101 PWs)   bands (ev):

    22.6911  25.4356  32.6697  33.4497  34.2067  35.7208  54.0026  58.6538

          k =-0.4330-0.4330 0.0000 (    98 PWs)   bands (ev):

    22.2516  25.1581  32.9864  33.5994  35.9955  36.6926  51.9211  57.7499

          k = 0.1732 0.0866 0.0866 (    98 PWs)   bands (ev):

    23.4245  27.7285  27.8843  30.5993  31.7676  32.9636  62.8143  64.3958

          k = 0.2598 0.1732 0.0866 (    98 PWs)   bands (ev):

    24.4967  26.7463  28.1643  31.7053  33.0090  33.5378  60.0850  62.0052

          k = 0.3464 0.2598 0.0866 (   102 PWs)   bands (ev):

    23.6776  25.8680  30.3415  32.3792  33.7924  36.3821  56.0224  59.4644

          k = 0.4330 0.3464 0.0866 (    99 PWs)   bands (ev):

    22.8646  25.3905  31.8241  32.8515  34.7333  39.0520  52.3995  57.9129

          k = 0.3464 0.1732 0.1732 (   103 PWs)   bands (ev):

    24.8876  26.1661  28.2456  31.8264  33.7972  36.8994  57.6342  59.1948

          k = 0.4330 0.2598 0.1732 (   100 PWs)   bands (ev):

    24.3012  25.8031  29.1925  32.4620  34.1818  40.8326  53.8473  57.0237

          k = 0.5196 0.3464 0.1732 (   100 PWs)   bands (ev):

    23.9448  25.7343  29.5839  32.8162  34.4137  43.1990  51.2794  56.2775

          k = 0.5196 0.2598 0.2598 (    98 PWs)   bands (ev):

    24.7147  26.3403  27.9702  33.0733  33.9552  45.5136  50.7994  54.6182

          k = 0.1732 0.1732 0.1732 (    98 PWs)   bands (ev):

    24.9838  26.8269  26.8269  32.5481  32.5481  33.2951  61.4568  61.4569

          k = 0.2598 0.2598 0.1732 (    99 PWs)   bands (ev):

    25.1034  25.9357  27.9203  32.6466  33.1408  36.6645  57.9007  59.3711

          k = 0.3464 0.3464 0.1732 (    93 PWs)   bands (ev):

    24.0712  25.3768  30.3830  33.0249  33.5165  40.0599  53.7965  57.5509

          k = 0.4330 0.4330 0.1732 (    96 PWs)   bands (ev):

    23.6589  25.1878  31.5102  33.2145  33.6519  41.9054  51.4916  56.8327

          k = 0.0000 0.0000 0.1732 (    95 PWs)   bands (ev):

    22.8588  28.5000  28.5000  29.1190  31.2628  33.2805  63.1669  66.3196

          k = 0.3464 0.2598 0.2598 (    97 PWs)   bands (ev):

    25.1344  25.8252  28.2760  32.9813  33.5545  40.5766  55.3185  56.7008

          k = 0.4330 0.3464 0.2598 (    96 PWs)   bands (ev):

    24.7986  25.8017  29.1106  33.3147  33.7422  44.2451  51.7325  55.2595

          k = 0.0000-0.0866 0.2598 (   103 PWs)   bands (ev):

    24.3467  27.8428  28.3668  30.4894  30.7566  33.8956  61.6450  64.7881

          k = 0.5196 0.3464 0.3464 (    95 PWs)   bands (ev):

    24.8971  27.4110  27.4110  33.6129  33.6129  48.5307  48.5307  53.8507

          k =-0.0000-0.1732 0.3464 (   104 PWs)   bands (ev):

    24.2977  26.8982  28.7917  31.4951  33.2617  34.9666  58.4719  61.5705

          k = 0.0866-0.0866 0.3464 (   101 PWs)   bands (ev):

    25.2491  26.9919  28.3824  30.2617  32.6121  35.2477  60.0793  62.3160

          k = 0.0000-0.2598 0.4330 (    98 PWs)   bands (ev):

    23.2062  26.1846  29.8466  32.2444  35.6038  37.5003  54.1753  59.4794

          k = 0.0866-0.1732 0.4330 (   100 PWs)   bands (ev):

    24.5718  26.4574  28.4243  31.3245  34.3149  38.2243  56.5827  59.5272

          k =-0.8660-0.3464-0.3464 (   100 PWs)   bands (ev):

    22.7319  25.9230  30.4151  32.2002  36.6039  39.3655  51.8477  58.7239

          k =-0.7794-0.2598-0.3464 (    98 PWs)   bands (ev):

    23.6454  26.5331  28.4153  31.8902  35.5765  41.7768  52.4650  58.2171

          k =-0.6928-0.1732-0.3464 (    99 PWs)   bands (ev):

    25.3022  25.3418  27.8430  32.1499  34.6321  42.8102  53.9980  56.0573

          k =-0.6928-0.2598-0.2598 (    97 PWs)   bands (ev):

    24.8586  26.3560  26.7111  32.8829  34.6290  46.2925  50.8349  54.9584

          k = 0.3464 0.3464 0.3464 (    95 PWs)   bands (ev):

    25.8051  25.8051  28.0784  33.5760  33.5760  44.5698  53.7120  53.7120

          k = 0.4330 0.4330 0.3464 (    98 PWs)   bands (ev):

    25.8430  26.1978  27.9044  33.6590  33.7365  47.7081  50.6930  53.1404

          k = 0.0000 0.0000 0.3464 (   100 PWs)   bands (ev):

    25.5482  27.9117  29.0416  29.0416  30.7837  35.3334  61.4067  65.9074

          k =-0.0000-0.0866 0.4330 (   101 PWs)   bands (ev):

    25.3931  26.4796  28.7992  30.3393  32.8829  37.4713  59.5085  62.3588

          k = 0.0000-0.1732 0.5196 (    98 PWs)   bands (ev):

    23.9527  26.5997  28.2777  31.1564  35.3052  40.9616  54.7955  60.9573

          k = 0.0866-0.0866 0.5196 (   100 PWs)   bands (ev):

    24.6233  25.4228  29.1402  31.2707  34.2979  40.8658  57.5469  58.5984

          k =-0.8660-0.2598-0.2598 (   100 PWs)   bands (ev):

    23.3990  26.7205  28.0714  31.2688  36.3744  43.6138  51.7092  60.5348

          k =-0.7794-0.1732-0.2598 (   100 PWs)   bands (ev):

    23.7787  25.1917  28.6433  32.3074  35.4894  45.1792  52.8497  56.7783

          k =-0.6928-0.1732-0.1732 (   104 PWs)   bands (ev):

    24.2031  24.2031  28.3804  34.3560  34.3560  49.9305  49.9305  53.8674

          k =-0.0000-0.0000 0.5196 (    96 PWs)   bands (ev):

    24.3956  25.2371  30.9100  30.9100  33.0156  40.2498  60.9414  61.1665

          k = 0.0000-0.0866 0.6062 (   104 PWs)   bands (ev):

    23.1680  24.1642  31.2332  32.0540  34.9678  44.0114  55.7458  58.3608

          k =-0.8660-0.1732-0.1732 (   104 PWs)   bands (ev):

    22.7456  23.7126  31.1534  32.4413  36.0958  47.5121  51.6329  57.1334

          k =-0.7794-0.0866-0.1732 (   104 PWs)   bands (ev):

    22.5164  22.9754  31.5535  34.0332  35.4651  48.1623  53.2551  54.2658

          k = 0.0000 0.0000 0.6928 (   108 PWs)   bands (ev):

    21.9217  22.4815  33.8994  33.8994  34.9885  47.1730  54.9629  54.9629

          k =-0.8660-0.0866-0.0866 (   104 PWs)   bands (ev):

    21.5525  21.7373  34.2896  34.7031  35.8744  50.5485  51.7187  53.4707

          k =-0.8660-0.8660-0.8660 (   116 PWs)   bands (ev):

    21.0458  21.0458  35.7899  35.7899  35.7899  51.8280  51.8280  51.8280

 ------ SPIN DOWN ----------


          k = 0.0000 0.0000 0.0000 (    87 PWs)   bands (ev):

    21.3801  28.5854  28.5854  28.5854  32.8199  32.8199  65.0586  65.0586

          k = 0.0866 0.0866 0.0000 (    91 PWs)   bands (ev):

    22.1520  28.2113  28.5264  29.2369  32.4142  32.8508  64.3253  64.9957

          k = 0.1732 0.1732 0.0000 (    97 PWs)   bands (ev):

    23.7316  27.2946  28.5316  31.0375  32.0494  32.9828  61.9944  63.6383

          k = 0.2598 0.2598 0.0000 (   101 PWs)   bands (ev):

    23.7322  26.2643  30.5345  32.4505  33.2551  33.5129  58.2079  61.0063

          k = 0.3464 0.3464 0.0000 (   101 PWs)   bands (ev):

    22.7461  25.4994  32.7720  33.5760  34.2350  35.8062  54.0583  58.6734

          k =-0.4330-0.4330 0.0000 (    98 PWs)   bands (ev):

    22.3075  25.2213  33.0942  33.7271  36.0121  36.7803  51.9830  57.7669

          k = 0.1732 0.0866 0.0866 (    98 PWs)   bands (ev):

    23.4430  27.7976  27.9556  30.6736  31.8813  33.0857  62.8441  64.4300

          k = 0.2598 0.1732 0.0866 (    98 PWs)   bands (ev):

    24.5348  26.8139  28.2202  31.8121  33.0970  33.6453  60.1271  62.0368

          k = 0.3464 0.2598 0.0866 (   102 PWs)   bands (ev):

    23.7318  25.9326  30.3988  32.4799  33.9070  36.4523  56.0726  59.4913

          k = 0.4330 0.3464 0.0866 (    99 PWs)   bands (ev):

    22.9213  25.4536  31.9068  32.9567  34.8257  39.1108  52.4582  57.9361

          k = 0.3464 0.1732 0.1732 (   103 PWs)   bands (ev):

    24.9400  26.2354  28.2954  31.9298  33.9132  36.9701  57.6817  59.2275

          k = 0.4330 0.2598 0.1732 (   100 PWs)   bands (ev):

    24.3588  25.8683  29.2553  32.5647  34.2906  40.8949  53.8997  57.0574

          k = 0.5196 0.3464 0.1732 (   100 PWs)   bands (ev):

    24.0031  25.7975  29.6557  32.9208  34.5157  43.2546  51.3373  56.3108

          k = 0.5196 0.2598 0.2598 (    98 PWs)   bands (ev):

    24.7721  26.4077  28.0372  33.1760  34.0596  45.5705  50.8533  54.6567

          k = 0.1732 0.1732 0.1732 (    98 PWs)   bands (ev):

    25.0062  26.8949  26.8949  32.6658  32.6658  33.3679  61.4939  61.4939

          k = 0.2598 0.2598 0.1732 (    99 PWs)   bands (ev):

    25.1560  26.0000  27.9642  32.7604  33.2632  36.7331  57.9441  59.4059

          k = 0.3464 0.3464 0.1732 (    93 PWs)   bands (ev):

    24.1276  25.4386  30.4303  33.1374  33.6428  40.1202  53.8478  57.5810

          k = 0.4330 0.4330 0.1732 (    96 PWs)   bands (ev):

    23.7155  25.2487  31.5612  33.3270  33.7799  41.9578  51.5496  56.8608

          k = 0.0000 0.0000 0.1732 (    95 PWs)   bands (ev):

    22.8753  28.5715  28.5715  29.1930  31.3760  33.4046  63.1896  66.3603

          k = 0.3464 0.2598 0.2598 (    97 PWs)   bands (ev):

    25.1926  25.8881  28.3203  33.0973  33.6779  40.6389  55.3634  56.7379

          k = 0.4330 0.3464 0.2598 (    96 PWs)   bands (ev):

    24.8556  25.8618  29.1649  33.4313  33.8657  44.2988  51.7832  55.2963

          k = 0.0000-0.0866 0.2598 (   103 PWs)   bands (ev):

    24.3719  27.9121  28.4379  30.5894  30.8327  34.0173  61.6830  64.8246

          k = 0.5196 0.3464 0.3464 (    95 PWs)   bands (ev):

    24.9535  27.4697  27.4697  33.7328  33.7328  48.5804  48.5804  53.8920

          k =-0.0000-0.1732 0.3464 (   104 PWs)   bands (ev):

    24.3484  26.9648  28.8615  31.5816  33.3418  35.0712  58.5199  61.5985

          k = 0.0866-0.0866 0.3464 (   101 PWs)   bands (ev):

    25.2903  27.0705  28.4443  30.3503  32.6933  35.3532  60.1273  62.3462

          k = 0.0000-0.2598 0.4330 (    98 PWs)   bands (ev):

    23.2643  26.2494  29.9280  32.3412  35.6888  37.5692  54.2302  59.5057

          k = 0.0866-0.1732 0.4330 (   100 PWs)   bands (ev):

    24.6322  26.5268  28.4934  31.4118  34.4064  38.2993  56.6338  59.5605

          k =-0.8660-0.3464-0.3464 (   100 PWs)   bands (ev):

    22.7909  25.9871  30.5023  32.2994  36.6915  39.4203  51.9085  58.7491

          k =-0.7794-0.2598-0.3464 (    98 PWs)   bands (ev):

    23.7084  26.5987  28.4942  31.9820  35.6649  41.8372  52.5217  58.2514

          k =-0.6928-0.1732-0.3464 (    99 PWs)   bands (ev):

    25.3771  25.4018  27.9151  32.2365  34.7233  42.8733  54.0539  56.0924

          k =-0.6928-0.2598-0.2598 (    97 PWs)   bands (ev):

    24.9266  26.4211  26.7875  32.9712  34.7179  46.3502  50.8922  54.9958

          k = 0.3464 0.3464 0.3464 (    95 PWs)   bands (ev):

    25.8637  25.8637  28.1266  33.7011  33.7011  44.6247  53.7542  53.7542

          k = 0.4330 0.4330 0.3464 (    98 PWs)   bands (ev):

    25.8998  26.2535  27.9581  33.7843  33.8651  47.7556  50.7406  53.1814

          k = 0.0000 0.0000 0.3464 (   100 PWs)   bands (ev):

    25.5817  28.0077  29.1109  29.1109  30.8602  35.4444  61.4534  65.9629

          k =-0.0000-0.0866 0.4330 (   101 PWs)   bands (ev):

    25.4571  26.5535  28.8678  30.4146  32.9622  37.5587  59.5597  62.3918

          k = 0.0000-0.1732 0.5196 (    98 PWs)   bands (ev):

    24.0222  26.6754  28.3451  31.2380  35.3895  41.0263  54.8466  60.9972

          k = 0.0866-0.0866 0.5196 (   100 PWs)   bands (ev):

    24.7037  25.4881  29.2107  31.3456  34.3814  40.9325  57.6010  58.6308

          k =-0.8660-0.2598-0.2598 (   100 PWs)   bands (ev):

    23.4677  26.8001  28.1384  31.3505  36.4615  43.6691  51.7647  60.5758

          k =-0.7794-0.1732-0.2598 (   100 PWs)   bands (ev):

    23.8533  25.2675  28.7105  32.3856  35.5746  45.2349  52.9003  56.8150

          k =-0.6928-0.1732-0.1732 (   104 PWs)   bands (ev):

    24.2795  24.2795  28.4447  34.4383  34.4383  49.9832  49.9832  53.9018

          k =-0.0000-0.0000 0.5196 (    96 PWs)   bands (ev):

    24.4782  25.3035  30.9805  30.9805  33.0960  40.3182  61.0046  61.1989

          k = 0.0000-0.0866 0.6062 (   104 PWs)   bands (ev):

    23.2456  24.2375  31.3053  32.1273  35.0514  44.0640  55.7862  58.3882

          k =-0.8660-0.1732-0.1732 (   104 PWs)   bands (ev):

    22.8206  23.7887  31.2256  32.5153  36.1823  47.5577  51.6766  57.1581

          k =-0.7794-0.0866-0.1732 (   104 PWs)   bands (ev):

    22.5921  23.0501  31.6251  34.1120  35.5495  48.2050  53.2938  54.2939

          k = 0.0000 0.0000 0.6928 (   108 PWs)   bands (ev):

    21.9971  22.5553  33.9770  33.9770  35.0727  47.2105  54.9852  54.9852

          k =-0.8660-0.0866-0.0866 (   104 PWs)   bands (ev):

    21.6265  21.8112  34.3697  34.7836  35.9604  50.5761  51.7441  53.4893

          k =-0.8660-0.8660-0.8660 (   116 PWs)   bands (ev):

    21.1189  21.1189  35.8758  35.8758  35.8758  51.8417  51.8417  51.8417

     the Fermi energy is    33.0870 ev

!    total energy              =     -55.26522267 Ry
     estimated scf accuracy    <       0.00000001 Ry
     smearing contrib. (-TS)   =      -0.00040008 Ry
     internal energy E=F+TS    =     -55.26482259 Ry

     The total energy is F=E-TS. E is the sum of the following terms:
     one-electron contribution =      24.88606937 Ry
     hartree contribution      =       3.27746799 Ry
     xc contribution           =     -27.40510448 Ry
     ewald contribution        =     -56.02325547 Ry

     total magnetization       =     0.08 Bohr mag/cell
     absolute magnetization    =     0.08 Bohr mag/cell

     convergence has been achieved in  15 iterations

     Forces acting on atoms (cartesian axes, Ry/au):

     atom    1 type  1   force =     0.00000000    0.00000000    0.00000000
     The non-local contrib.  to forces
     atom    1 type  1   force =     0.00000000    0.00000000    0.00000000
     The ionic contribution  to forces
     atom    1 type  1   force =    -0.00000000   -0.00000000   -0.00000000
     The local contribution  to forces
     atom    1 type  1   force =    -0.00000000   -0.00000000    0.00000000
     The core correction contribution to forces
     atom    1 type  1   force =     0.00000000    0.00000000    0.00000000
     The Hubbard contrib.    to forces
     atom    1 type  1   force =     0.00000000    0.00000000    0.00000000
     The SCF correction term to forces
     atom    1 type  1   force =    -0.00000000    0.00000000    0.00000000

     Total force =     0.000000     Total SCF correction =     0.000000


     Computing stress (Cartesian axis) and pressure

          total   stress  (Ry/bohr**3)                   (kbar)     P=     7261.39
   0.04936196   0.00000000   0.00000000         7261.39        0.00        0.00
   0.00000000   0.04936196   0.00000000            0.00     7261.39        0.00
   0.00000000   0.00000000   0.04936196            0.00        0.00     7261.39


     init_run     :      0.21s CPU      0.22s WALL (       1 calls)
     electrons    :      2.43s CPU      2.78s WALL (       1 calls)
     forces       :      0.02s CPU      0.02s WALL (       1 calls)
     stress       :      0.07s CPU      0.06s WALL (       1 calls)

     Called by init_run:
     wfcinit      :      0.04s CPU      0.04s WALL (       1 calls)
     potinit      :      0.01s CPU      0.01s WALL (       1 calls)
     hinit0       :      0.15s CPU      0.15s WALL (       1 calls)

     Called by electrons:
     c_bands      :      2.09s CPU      2.43s WALL (      15 calls)
     sum_band     :      0.25s CPU      0.27s WALL (      15 calls)
     v_of_rho     :      0.05s CPU      0.04s WALL (      16 calls)
     newd         :      0.02s CPU      0.02s WALL (      16 calls)
     mix_rho      :      0.01s CPU      0.01s WALL (      15 calls)

     Called by c_bands:
     init_us_2    :      0.04s CPU      0.05s WALL (    3102 calls)
     init_us_2:cp :      0.04s CPU      0.04s WALL (    3102 calls)
     cegterg      :      1.86s CPU      1.96s WALL (    1410 calls)

     Called by *egterg:
     cdiaghg      :      0.47s CPU      0.50s WALL (    5181 calls)
     h_psi        :      1.04s CPU      1.10s WALL (    5275 calls)
     s_psi        :      0.02s CPU      0.03s WALL (    5275 calls)
     g_psi        :      0.01s CPU      0.01s WALL (    3771 calls)

     Called by h_psi:
     h_psi:calbec :      0.12s CPU      0.12s WALL (    5275 calls)
     vloc_psi     :      0.88s CPU      0.92s WALL (    5275 calls)
     add_vuspsi   :      0.03s CPU      0.03s WALL (    5275 calls)

     General routines
     calbec       :      0.15s CPU      0.16s WALL (    7155 calls)
     fft          :      0.11s CPU      0.11s WALL (     438 calls)
     ffts         :      0.01s CPU      0.01s WALL (      62 calls)
     fftw         :      0.89s CPU      0.94s WALL (   68916 calls)
     interpolate  :      0.01s CPU      0.01s WALL (      32 calls)

     Parallel routines

     PWSCF        :      2.89s CPU      3.28s WALL


   This run was terminated on:  16:58:55   1Nov2023            

=------------------------------------------------------------------------------=
   JOB DONE.
=------------------------------------------------------------------------------=
