
     Program PWSCF v.7.2 starts on  1Nov2023 at 16:50:43 

     This program is part of the open-source Quantum ESPRESSO suite
     for quantum simulation of materials; please cite
         "P. Giannozzi et al., J. Phys.:Condens. Matter 21 395502 (2009);
         "P. Giannozzi et al., J. Phys.:Condens. Matter 29 465901 (2017);
         "P. Giannozzi et al., J. Chem. Phys. 152 154105 (2020);
          URL http://www.quantum-espresso.org", 
     in publications or presentations arising from this work. More details at
     http://www.quantum-espresso.org/quote

     Parallel version (MPI), running on     4 processors

     MPI processes distributed on     4 nodes
     185684 MiB available memory on the printing compute node when the environment starts

     Waiting for input...
     Reading input from standard input
Warning: card &CELL ignored
Warning: card / ignored

     Current dimensions of program PWSCF are:
     Max number of different atomic species (ntypx) = 10
     Max number of k-points (npk) =  40000
     Max angular momentum in pseudopotentials (lmaxx) =  4
     file Fe.pbe-nd-rrkjus.UPF: wavefunction(s)  4S renormalized
     Message from routine find_sym:
     Not a group! Trying with lower acceptance parameter...
     Message from routine find_sym:
     Still not a group! symmetry disabled

     R & G space division:  proc/nbgrp/npool/nimage =       4
     Subspace diagonalization in iterative solution of the eigenvalue problem:
     a serial algorithm will be used


     Parallelization info
     --------------------
     sticks:   dense  smooth     PW     G-vecs:    dense   smooth      PW
     Min         142      70     21                 4470     1576     273
     Max         144      71     22                 4473     1581     280
     Sum         571     283     85                17885     6315    1099

     Using Slab Decomposition



     bravais-lattice index     =            0
     lattice parameter (alat)  =       5.8582  a.u.
     unit-cell volume          =     284.3130 (a.u.)^3
     number of atoms/cell      =            2
     number of atomic types    =            1
     number of electrons       =        16.00
     number of Kohn-Sham states=           12
     kinetic-energy cutoff     =      30.0000  Ry
     charge density cutoff     =     240.0000  Ry
     scf convergence threshold =      1.0E-07
     mixing beta               =       0.5000
     number of iterations used =            8  plain     mixing
     Exchange-correlation=  SLA  PW   PBE  PBE
                           (   1   4   3   4   0   0   0)

     celldm(1)=   5.858151  celldm(2)=   0.000000  celldm(3)=   0.000000
     celldm(4)=   0.000000  celldm(5)=   0.000000  celldm(6)=   0.000000

     crystal axes: (cart. coord. in units of alat)
               a(1) = (   1.000000   0.000000   0.000000 )  
               a(2) = (  -0.500000   0.866025   0.000000 )  
               a(3) = (   0.000000   0.000000   1.632993 )  

     reciprocal axes: (cart. coord. in units 2 pi/alat)
               b(1) = (  1.000000  0.577350 -0.000000 )  
               b(2) = (  0.000000  1.154701  0.000000 )  
               b(3) = (  0.000000 -0.000000  0.612372 )  


     PseudoPot. # 1 for Fe read from file:
     /home/gridsan/epan1/labutil/lab3_samples/pseudopotentials/Fe.pbe-nd-rrkjus.UPF
     MD5 check sum: 398036227a04b607635f6f5e8dfd8242
     Pseudo is Ultrasoft + core correction, Zval =  8.0
     Generated by new atomic code, or converted to UPF format
     Using radial grid of  957 points,  6 beta functions with: 
                l(1) =   0
                l(2) =   0
                l(3) =   1
                l(4) =   1
                l(5) =   2
                l(6) =   2
     Q(r) pseudized with 0 coefficients 


     atomic species   valence    mass     pseudopotential
        Fe             8.00    55.84500     Fe( 1.00)

     Starting magnetic structure 
     atomic species   magnetization
        Fe           0.700

     No symmetry found



   Cartesian axes

     site n.     atom                  positions (alat units)
         1           Fe  tau(   1) = (   0.0000000   0.0000000   0.0000000  )
         2           Fe  tau(   2) = (  -0.0000000   0.5773516   0.8164968  )

     number of k points=   172  Methfessel-Paxton smearing, width (Ry)=  0.0200

     Number of k-points >= 100: set verbosity='high' to print them.

     Dense  grid:    17885 G-vectors     FFT dimensions: (  30,  30,  48)

     Smooth grid:     6315 G-vectors     FFT dimensions: (  24,  24,  36)

     Estimated max dynamical RAM per process >      31.97 MB

     Estimated total dynamical RAM >     127.88 MB

     Check: negative core charge=   -0.000004
     Generating pointlists ...
     new r_m :   0.4125 (alat units)  2.4165 (a.u.) for type    1

     Initial potential from superposition of free atoms

     starting charge      15.9987, renormalised to      16.0000
     Starting wfcs are   12 randomized atomic wfcs

     total cpu time spent up to now is        1.7 secs

     Self-consistent Calculation

     iteration #  1     ecut=    30.00 Ry     beta= 0.50
     Davidson diagonalization with overlap
     ethr =  1.00E-02,  avg # of iterations =  3.6

     total cpu time spent up to now is        5.7 secs

     total energy              =    -111.13059658 Ry
     estimated scf accuracy    <       0.67033245 Ry

     total magnetization       =     7.63 Bohr mag/cell
     absolute magnetization    =     7.63 Bohr mag/cell

     iteration #  2     ecut=    30.00 Ry     beta= 0.50
     Davidson diagonalization with overlap
     ethr =  4.19E-03,  avg # of iterations =  2.7

     total cpu time spent up to now is        9.5 secs

     total energy              =    -111.34679965 Ry
     estimated scf accuracy    <       0.26196032 Ry

     total magnetization       =     6.25 Bohr mag/cell
     absolute magnetization    =     6.30 Bohr mag/cell

     iteration #  3     ecut=    30.00 Ry     beta= 0.50
     Davidson diagonalization with overlap
     ethr =  1.64E-03,  avg # of iterations =  1.7

     total cpu time spent up to now is       12.7 secs

     total energy              =    -111.38073643 Ry
     estimated scf accuracy    <       0.03890546 Ry

     total magnetization       =     6.68 Bohr mag/cell
     absolute magnetization    =     6.77 Bohr mag/cell

     iteration #  4     ecut=    30.00 Ry     beta= 0.50
     Davidson diagonalization with overlap
     ethr =  2.43E-04,  avg # of iterations =  2.7

     total cpu time spent up to now is       16.7 secs

     total energy              =    -111.38234874 Ry
     estimated scf accuracy    <       0.91043385 Ry

     total magnetization       =     6.53 Bohr mag/cell
     absolute magnetization    =     6.70 Bohr mag/cell

     iteration #  5     ecut=    30.00 Ry     beta= 0.50
     Davidson diagonalization with overlap
     ethr =  2.43E-04,  avg # of iterations =  1.6

     total cpu time spent up to now is       19.8 secs

     total energy              =    -111.41271816 Ry
     estimated scf accuracy    <       0.00424745 Ry

     total magnetization       =     6.36 Bohr mag/cell
     absolute magnetization    =     6.70 Bohr mag/cell

     iteration #  6     ecut=    30.00 Ry     beta= 0.50
     Davidson diagonalization with overlap
     ethr =  2.65E-05,  avg # of iterations =  2.7

     total cpu time spent up to now is       23.6 secs

     total energy              =    -111.41504113 Ry
     estimated scf accuracy    <       0.00133783 Ry

     total magnetization       =     6.20 Bohr mag/cell
     absolute magnetization    =     6.66 Bohr mag/cell

     iteration #  7     ecut=    30.00 Ry     beta= 0.50
     Davidson diagonalization with overlap
     ethr =  8.36E-06,  avg # of iterations =  2.0

     total cpu time spent up to now is       27.3 secs

     total energy              =    -111.41541619 Ry
     estimated scf accuracy    <       0.00124548 Ry

     total magnetization       =     6.20 Bohr mag/cell
     absolute magnetization    =     6.70 Bohr mag/cell

     iteration #  8     ecut=    30.00 Ry     beta= 0.50
     Davidson diagonalization with overlap
     ethr =  7.78E-06,  avg # of iterations =  1.3

     total cpu time spent up to now is       30.3 secs

     total energy              =    -111.41560825 Ry
     estimated scf accuracy    <       0.00008314 Ry

     total magnetization       =     6.19 Bohr mag/cell
     absolute magnetization    =     6.70 Bohr mag/cell

     iteration #  9     ecut=    30.00 Ry     beta= 0.50
     Davidson diagonalization with overlap
     ethr =  5.20E-07,  avg # of iterations =  3.6

     total cpu time spent up to now is       34.6 secs

     total energy              =    -111.41565652 Ry
     estimated scf accuracy    <       0.00011753 Ry

     total magnetization       =     6.19 Bohr mag/cell
     absolute magnetization    =     6.72 Bohr mag/cell

     iteration # 10     ecut=    30.00 Ry     beta= 0.50
     Davidson diagonalization with overlap
     ethr =  5.20E-07,  avg # of iterations =  2.2

     total cpu time spent up to now is       38.2 secs

     total energy              =    -111.41568345 Ry
     estimated scf accuracy    <       0.00000839 Ry

     total magnetization       =     6.19 Bohr mag/cell
     absolute magnetization    =     6.72 Bohr mag/cell

     iteration # 11     ecut=    30.00 Ry     beta= 0.50
     Davidson diagonalization with overlap
     ethr =  5.24E-08,  avg # of iterations =  4.6

     total cpu time spent up to now is       43.7 secs

     total energy              =    -111.41569168 Ry
     estimated scf accuracy    <       0.00000525 Ry

     total magnetization       =     6.19 Bohr mag/cell
     absolute magnetization    =     6.72 Bohr mag/cell

     iteration # 12     ecut=    30.00 Ry     beta= 0.50
     Davidson diagonalization with overlap
     ethr =  3.28E-08,  avg # of iterations =  2.1

     total cpu time spent up to now is       47.1 secs

     total energy              =    -111.41569295 Ry
     estimated scf accuracy    <       0.00000034 Ry

     total magnetization       =     6.19 Bohr mag/cell
     absolute magnetization    =     6.72 Bohr mag/cell

     iteration # 13     ecut=    30.00 Ry     beta= 0.50
     Davidson diagonalization with overlap
     ethr =  2.13E-09,  avg # of iterations =  6.7

     total cpu time spent up to now is       54.6 secs

     total energy              =    -111.41569392 Ry
     estimated scf accuracy    <       0.00000021 Ry

     total magnetization       =     6.19 Bohr mag/cell
     absolute magnetization    =     6.71 Bohr mag/cell

     iteration # 14     ecut=    30.00 Ry     beta= 0.50
     Davidson diagonalization with overlap
     ethr =  1.30E-09,  avg # of iterations =  1.2

     total cpu time spent up to now is       57.6 secs

     total energy              =    -111.41569398 Ry
     estimated scf accuracy    <       0.00000034 Ry

     total magnetization       =     6.19 Bohr mag/cell
     absolute magnetization    =     6.71 Bohr mag/cell

     iteration # 15     ecut=    30.00 Ry     beta= 0.50
     Davidson diagonalization with overlap
     ethr =  1.30E-09,  avg # of iterations =  1.3

     Magnetic moment per site  (integrated on atomic sphere of radius R)
     atom   1 (R=0.412)  charge=  6.9567  magn=  3.2140
     atom   2 (R=0.412)  charge=  6.9567  magn=  3.2141

     total cpu time spent up to now is       60.6 secs

     End of self-consistent calculation

     Number of k-points >= 100: set verbosity='high' to print the bands.

     the Fermi energy is     6.2717 ev

!    total energy              =    -111.41569402 Ry
     estimated scf accuracy    <          3.7E-09 Ry
     smearing contrib. (-TS)   =      -0.00079280 Ry
     internal energy E=F+TS    =    -111.41490122 Ry

     The total energy is F=E-TS. E is the sum of the following terms:
     one-electron contribution =      -8.15544265 Ry
     hartree contribution      =      20.12044542 Ry
     xc contribution           =     -52.54562474 Ry
     ewald contribution        =     -70.83427924 Ry

     total magnetization       =     6.19 Bohr mag/cell
     absolute magnetization    =     6.71 Bohr mag/cell

     convergence has been achieved in  15 iterations

     Forces acting on atoms (cartesian axes, Ry/au):

     atom    1 type  1   force =     0.00000130    0.00000144    0.00000269
     atom    2 type  1   force =    -0.00000130   -0.00000144   -0.00000269
     The non-local contrib.  to forces
     atom    1 type  1   force =    -0.00000169   -0.00000033    0.00000198
     atom    2 type  1   force =     0.00000176   -0.00000184   -0.00000303
     The ionic contribution  to forces
     atom    1 type  1   force =     0.00000000    0.00000203    0.00000582
     atom    2 type  1   force =    -0.00000000   -0.00000203   -0.00000582
     The local contribution  to forces
     atom    1 type  1   force =     0.00000277   -0.00000103   -0.00000878
     atom    2 type  1   force =    -0.00000272    0.00000445    0.00001063
     The core correction contribution to forces
     atom    1 type  1   force =     0.00000035    0.00000022    0.00000000
     atom    2 type  1   force =    -0.00000034    0.00000030    0.00000023
     The Hubbard contrib.    to forces
     atom    1 type  1   force =     0.00000000    0.00000000    0.00000000
     atom    2 type  1   force =     0.00000000    0.00000000    0.00000000
     The SCF correction term to forces
     atom    1 type  1   force =    -0.00000026    0.00000100    0.00000373
     atom    2 type  1   force =    -0.00000013   -0.00000187   -0.00000464

     Total force =     0.000005     Total SCF correction =     0.000006
     SCF correction compared to forces is large: reduce conv_thr to get better values


     Computing stress (Cartesian axis) and pressure

          total   stress  (Ry/bohr**3)                   (kbar)     P=     -249.28
  -0.00180521  -0.00000000  -0.00000000         -265.56       -0.00       -0.00
  -0.00000000  -0.00180520   0.00000000           -0.00     -265.55        0.00
  -0.00000000   0.00000000  -0.00147338           -0.00        0.00     -216.74


     init_run     :      1.67s CPU      1.47s WALL (       1 calls)
     electrons    :     68.99s CPU     58.95s WALL (       1 calls)
     forces       :      0.37s CPU      0.40s WALL (       1 calls)
     stress       :      2.57s CPU      2.20s WALL (       1 calls)

     Called by init_run:
     wfcinit      :      1.31s CPU      1.11s WALL (       1 calls)
     potinit      :      0.15s CPU      0.15s WALL (       1 calls)
     hinit0       :      0.19s CPU      0.19s WALL (       1 calls)

     Called by electrons:
     c_bands      :     58.22s CPU     49.54s WALL (      15 calls)
     sum_band     :      9.81s CPU      8.21s WALL (      15 calls)
     v_of_rho     :      0.51s CPU      0.63s WALL (      16 calls)
     newd         :      0.27s CPU      0.21s WALL (      16 calls)
     mix_rho      :      0.12s CPU      0.12s WALL (      15 calls)

     Called by c_bands:
     init_us_2    :      1.52s CPU      1.27s WALL (   11352 calls)
     init_us_2:cp :      1.50s CPU      1.25s WALL (   11352 calls)
     cegterg      :     52.91s CPU     44.33s WALL (    5160 calls)

     Called by *egterg:
     cdiaghg      :      5.89s CPU      4.95s WALL (   19004 calls)
     h_psi        :     42.10s CPU     35.23s WALL (   19348 calls)
     s_psi        :      0.91s CPU      0.75s WALL (   19348 calls)
     g_psi        :      0.18s CPU      0.15s WALL (   13844 calls)

     Called by h_psi:
     h_psi:calbec :      2.32s CPU      2.03s WALL (   19348 calls)
     vloc_psi     :     38.56s CPU     32.16s WALL (   19348 calls)
     add_vuspsi   :      0.96s CPU      0.79s WALL (   19348 calls)

     General routines
     calbec       :      3.20s CPU      2.76s WALL (   26228 calls)
     fft          :      0.49s CPU      0.46s WALL (     438 calls)
     ffts         :      0.18s CPU      0.17s WALL (      62 calls)
     fftw         :     41.09s CPU     34.21s WALL (  393666 calls)
     interpolate  :      0.14s CPU      0.14s WALL (      32 calls)

     Parallel routines

     PWSCF        :   1m13.81s CPU   1m 3.29s WALL


   This run was terminated on:  16:51:46   1Nov2023            

=------------------------------------------------------------------------------=
   JOB DONE.
=------------------------------------------------------------------------------=
