
     Program PWSCF v.7.2 starts on  1Nov2023 at 16:59:13 

     This program is part of the open-source Quantum ESPRESSO suite
     for quantum simulation of materials; please cite
         "P. Giannozzi et al., J. Phys.:Condens. Matter 21 395502 (2009);
         "P. Giannozzi et al., J. Phys.:Condens. Matter 29 465901 (2017);
         "P. Giannozzi et al., J. Chem. Phys. 152 154105 (2020);
          URL http://www.quantum-espresso.org", 
     in publications or presentations arising from this work. More details at
     http://www.quantum-espresso.org/quote

     Parallel version (MPI), running on     4 processors

     MPI processes distributed on     4 nodes
     186610 MiB available memory on the printing compute node when the environment starts

     Waiting for input...
     Reading input from standard input
Warning: card &CELL ignored
Warning: card / ignored

     Current dimensions of program PWSCF are:
     Max number of different atomic species (ntypx) = 10
     Max number of k-points (npk) =  40000
     Max angular momentum in pseudopotentials (lmaxx) =  4
     file Fe.pbe-nd-rrkjus.UPF: wavefunction(s)  4S renormalized
     Message from routine setup:
     using ibrav=0 with symmetry is DISCOURAGED, use correct ibrav instead

     R & G space division:  proc/nbgrp/npool/nimage =       4
     Subspace diagonalization in iterative solution of the eigenvalue problem:
     a serial algorithm will be used


     Parallelization info
     --------------------
     sticks:   dense  smooth     PW     G-vecs:    dense   smooth      PW
     Min         116      57     24                 1590      560     167
     Max         117      58     25                 1592      563     170
     Sum         467     229     99                 6363     2243     675

     Using Slab Decomposition



     bravais-lattice index     =            0
     lattice parameter (alat)  =       5.0733  a.u.
     unit-cell volume          =     100.5198 (a.u.)^3
     number of atoms/cell      =            1
     number of atomic types    =            1
     number of electrons       =         8.00
     number of Kohn-Sham states=            8
     kinetic-energy cutoff     =      30.0000  Ry
     charge density cutoff     =     240.0000  Ry
     scf convergence threshold =      1.0E-07
     mixing beta               =       0.5000
     number of iterations used =            8  plain     mixing
     Exchange-correlation=  SLA  PW   PBE  PBE
                           (   1   4   3   4   0   0   0)

     celldm(1)=   5.073308  celldm(2)=   0.000000  celldm(3)=   0.000000
     celldm(4)=   0.000000  celldm(5)=   0.000000  celldm(6)=   0.000000

     crystal axes: (cart. coord. in units of alat)
               a(1) = (  -0.577350   0.577350   0.577350 )  
               a(2) = (   0.577350  -0.577350   0.577350 )  
               a(3) = (   0.577350   0.577350  -0.577350 )  

     reciprocal axes: (cart. coord. in units 2 pi/alat)
               b(1) = (  0.000000  0.866025  0.866025 )  
               b(2) = (  0.866025  0.000000  0.866025 )  
               b(3) = (  0.866025  0.866025  0.000000 )  


     PseudoPot. # 1 for Fe read from file:
     /home/gridsan/epan1/labutil/lab3_samples/pseudopotentials/Fe.pbe-nd-rrkjus.UPF
     MD5 check sum: 398036227a04b607635f6f5e8dfd8242
     Pseudo is Ultrasoft + core correction, Zval =  8.0
     Generated by new atomic code, or converted to UPF format
     Using radial grid of  957 points,  6 beta functions with: 
                l(1) =   0
                l(2) =   0
                l(3) =   1
                l(4) =   1
                l(5) =   2
                l(6) =   2
     Q(r) pseudized with 0 coefficients 


     atomic species   valence    mass     pseudopotential
        Fe             8.00    55.84500     Fe( 1.00)

     Starting magnetic structure 
     atomic species   magnetization
        Fe           0.700

     48 Sym. Ops., with inversion, found



   Cartesian axes

     site n.     atom                  positions (alat units)
         1           Fe  tau(   1) = (   0.0000000   0.0000000   0.0000000  )

     number of k points=    47  Methfessel-Paxton smearing, width (Ry)=  0.0200
                       cart. coord. in units 2pi/alat
        k(    1) = (   0.0000000   0.0000000   0.0000000), wk =   0.0010000
        k(    2) = (   0.0866025   0.0866025   0.0000000), wk =   0.0120000
        k(    3) = (   0.1732051   0.1732051   0.0000000), wk =   0.0120000
        k(    4) = (   0.2598076   0.2598076   0.0000000), wk =   0.0120000
        k(    5) = (   0.3464102   0.3464102   0.0000000), wk =   0.0120000
        k(    6) = (  -0.4330127  -0.4330127   0.0000000), wk =   0.0060000
        k(    7) = (   0.1732051   0.0866025   0.0866025), wk =   0.0240000
        k(    8) = (   0.2598076   0.1732051   0.0866025), wk =   0.0480000
        k(    9) = (   0.3464102   0.2598076   0.0866025), wk =   0.0480000
        k(   10) = (   0.4330127   0.3464102   0.0866025), wk =   0.0480000
        k(   11) = (   0.3464102   0.1732051   0.1732051), wk =   0.0240000
        k(   12) = (   0.4330127   0.2598076   0.1732051), wk =   0.0480000
        k(   13) = (   0.5196152   0.3464102   0.1732051), wk =   0.0240000
        k(   14) = (   0.5196152   0.2598076   0.2598076), wk =   0.0240000
        k(   15) = (   0.1732051   0.1732051   0.1732051), wk =   0.0080000
        k(   16) = (   0.2598076   0.2598076   0.1732051), wk =   0.0240000
        k(   17) = (   0.3464102   0.3464102   0.1732051), wk =   0.0240000
        k(   18) = (   0.4330127   0.4330127   0.1732051), wk =   0.0120000
        k(   19) = (   0.0000000   0.0000000   0.1732051), wk =   0.0060000
        k(   20) = (   0.3464102   0.2598076   0.2598076), wk =   0.0240000
        k(   21) = (   0.4330127   0.3464102   0.2598076), wk =   0.0480000
        k(   22) = (   0.0000000  -0.0866025   0.2598076), wk =   0.0240000
        k(   23) = (   0.5196152   0.3464102   0.3464102), wk =   0.0080000
        k(   24) = (   0.0000000  -0.1732051   0.3464102), wk =   0.0240000
        k(   25) = (   0.0866025  -0.0866025   0.3464102), wk =   0.0240000
        k(   26) = (   0.0000000  -0.2598076   0.4330127), wk =   0.0240000
        k(   27) = (   0.0866025  -0.1732051   0.4330127), wk =   0.0480000
        k(   28) = (  -0.8660254  -0.3464102  -0.3464102), wk =   0.0120000
        k(   29) = (  -0.7794229  -0.2598076  -0.3464102), wk =   0.0480000
        k(   30) = (  -0.6928203  -0.1732051  -0.3464102), wk =   0.0240000
        k(   31) = (  -0.6928203  -0.2598076  -0.2598076), wk =   0.0240000
        k(   32) = (   0.3464102   0.3464102   0.3464102), wk =   0.0080000
        k(   33) = (   0.4330127   0.4330127   0.3464102), wk =   0.0120000
        k(   34) = (   0.0000000   0.0000000   0.3464102), wk =   0.0060000
        k(   35) = (   0.0000000  -0.0866025   0.4330127), wk =   0.0240000
        k(   36) = (   0.0000000  -0.1732051   0.5196152), wk =   0.0240000
        k(   37) = (   0.0866025  -0.0866025   0.5196152), wk =   0.0240000
        k(   38) = (  -0.8660254  -0.2598076  -0.2598076), wk =   0.0120000
        k(   39) = (  -0.7794229  -0.1732051  -0.2598076), wk =   0.0480000
        k(   40) = (  -0.6928203  -0.1732051  -0.1732051), wk =   0.0080000
        k(   41) = (   0.0000000   0.0000000   0.5196152), wk =   0.0060000
        k(   42) = (   0.0000000  -0.0866025   0.6062178), wk =   0.0240000
        k(   43) = (  -0.8660254  -0.1732051  -0.1732051), wk =   0.0120000
        k(   44) = (  -0.7794229  -0.0866025  -0.1732051), wk =   0.0240000
        k(   45) = (   0.0000000   0.0000000   0.6928203), wk =   0.0060000
        k(   46) = (  -0.8660254  -0.0866025  -0.0866025), wk =   0.0120000
        k(   47) = (  -0.8660254  -0.8660254  -0.8660254), wk =   0.0010000

     Dense  grid:     6363 G-vectors     FFT dimensions: (  25,  25,  25)

     Smooth grid:     2243 G-vectors     FFT dimensions: (  18,  18,  18)

     Estimated max dynamical RAM per process >       8.59 MB

     Estimated total dynamical RAM >      34.36 MB
     Generating pointlists ...
     new r_m :   0.4125 (alat units)  2.0927 (a.u.) for type    1

     Initial potential from superposition of free atoms

     starting charge       7.9994, renormalised to       8.0000
     Starting wfcs are    6 randomized atomic wfcs +    2 random wfcs

     total cpu time spent up to now is        1.1 secs

     Self-consistent Calculation

     iteration #  1     ecut=    30.00 Ry     beta= 0.50
     Davidson diagonalization with overlap
     ethr =  1.00E-02,  avg # of iterations =  4.4

     total cpu time spent up to now is        2.2 secs

     total energy              =     -55.62522708 Ry
     estimated scf accuracy    <       0.37300685 Ry

     total magnetization       =     3.46 Bohr mag/cell
     absolute magnetization    =     3.46 Bohr mag/cell

     iteration #  2     ecut=    30.00 Ry     beta= 0.50
     Davidson diagonalization with overlap
     ethr =  4.66E-03,  avg # of iterations =  1.9

     total cpu time spent up to now is        2.9 secs

     total energy              =     -55.74245737 Ry
     estimated scf accuracy    <       0.12015348 Ry

     total magnetization       =     2.97 Bohr mag/cell
     absolute magnetization    =     3.00 Bohr mag/cell

     iteration #  3     ecut=    30.00 Ry     beta= 0.50
     Davidson diagonalization with overlap
     ethr =  1.50E-03,  avg # of iterations =  1.2

     total cpu time spent up to now is        3.5 secs

     total energy              =     -55.77611345 Ry
     estimated scf accuracy    <       0.00556215 Ry

     total magnetization       =     3.03 Bohr mag/cell
     absolute magnetization    =     3.09 Bohr mag/cell

     iteration #  4     ecut=    30.00 Ry     beta= 0.50
     Davidson diagonalization with overlap
     ethr =  6.95E-05,  avg # of iterations =  3.3

     total cpu time spent up to now is        4.3 secs

     total energy              =     -55.78235154 Ry
     estimated scf accuracy    <       0.00025955 Ry

     total magnetization       =     2.81 Bohr mag/cell
     absolute magnetization    =     3.02 Bohr mag/cell

     iteration #  5     ecut=    30.00 Ry     beta= 0.50
     Davidson diagonalization with overlap
     c_bands:  1 eigenvalues not converged
     c_bands:  1 eigenvalues not converged
     c_bands:  1 eigenvalues not converged
     c_bands:  1 eigenvalues not converged
     ethr =  3.24E-06,  avg # of iterations =  7.2

     total cpu time spent up to now is        5.5 secs

     total energy              =     -55.78254606 Ry
     estimated scf accuracy    <       0.00005377 Ry

     total magnetization       =     2.81 Bohr mag/cell
     absolute magnetization    =     3.04 Bohr mag/cell

     iteration #  6     ecut=    30.00 Ry     beta= 0.50
     Davidson diagonalization with overlap
     ethr =  6.72E-07,  avg # of iterations =  2.6

     total cpu time spent up to now is        6.3 secs

     total energy              =     -55.78255571 Ry
     estimated scf accuracy    <       0.00000573 Ry

     total magnetization       =     2.81 Bohr mag/cell
     absolute magnetization    =     3.05 Bohr mag/cell

     iteration #  7     ecut=    30.00 Ry     beta= 0.50
     Davidson diagonalization with overlap
     ethr =  7.16E-08,  avg # of iterations =  3.9

     total cpu time spent up to now is        7.3 secs

     total energy              =     -55.78258490 Ry
     estimated scf accuracy    <       0.00001607 Ry

     total magnetization       =     2.81 Bohr mag/cell
     absolute magnetization    =     3.06 Bohr mag/cell

     iteration #  8     ecut=    30.00 Ry     beta= 0.50
     Davidson diagonalization with overlap
     ethr =  7.16E-08,  avg # of iterations =  1.5

     total cpu time spent up to now is        8.0 secs

     total energy              =     -55.78258730 Ry
     estimated scf accuracy    <       0.00000128 Ry

     total magnetization       =     2.81 Bohr mag/cell
     absolute magnetization    =     3.05 Bohr mag/cell

     iteration #  9     ecut=    30.00 Ry     beta= 0.50
     Davidson diagonalization with overlap
     ethr =  1.60E-08,  avg # of iterations =  1.5

     total cpu time spent up to now is        8.5 secs

     total energy              =     -55.78258761 Ry
     estimated scf accuracy    <       0.00000087 Ry

     total magnetization       =     2.81 Bohr mag/cell
     absolute magnetization    =     3.05 Bohr mag/cell

     iteration # 10     ecut=    30.00 Ry     beta= 0.50
     Davidson diagonalization with overlap
     ethr =  1.09E-08,  avg # of iterations =  1.5

     total cpu time spent up to now is        9.3 secs

     total energy              =     -55.78258781 Ry
     estimated scf accuracy    <       0.00000020 Ry

     total magnetization       =     2.81 Bohr mag/cell
     absolute magnetization    =     3.05 Bohr mag/cell

     iteration # 11     ecut=    30.00 Ry     beta= 0.50
     Davidson diagonalization with overlap
     ethr =  2.55E-09,  avg # of iterations =  2.2

     Magnetic moment per site  (integrated on atomic sphere of radius R)
     atom   1 (R=0.413)  charge=  6.6224  magn=  2.9257

     total cpu time spent up to now is       10.3 secs

     End of self-consistent calculation

 ------ SPIN UP ------------


          k = 0.0000 0.0000 0.0000 (   321 PWs)   bands (ev):

     2.4239   7.0618   7.0618   7.0618   7.8866   7.8866  31.6107  31.6107

          k = 0.0866 0.0866 0.0000 (   285 PWs)   bands (ev):

     2.7604   6.9953   7.0606   7.2077   7.8276   7.8929  28.9756  30.7969

          k = 0.1732 0.1732 0.0000 (   281 PWs)   bands (ev):

     3.7032   6.8221   7.0346   7.6051   7.7603   7.9108  24.5674  28.7877

          k = 0.2598 0.2598 0.0000 (   283 PWs)   bands (ev):

     4.8714   6.6137   7.2681   7.8200   7.9412   8.1376  20.2488  27.0017

          k = 0.3464 0.3464 0.0000 (   282 PWs)   bands (ev):

     5.3631   6.4496   7.8532   7.9728   8.6105   8.7262  16.4732  25.8453

          k =-0.4330-0.4330 0.0000 (   276 PWs)   bands (ev):

     5.3996   6.3881   7.9052   7.9870   8.8032  10.0937  14.4096  25.4465

          k = 0.1732 0.0866 0.0866 (   284 PWs)   bands (ev):

     3.4049   6.9183   6.9671   7.5134   7.7428   7.9237  26.6564  27.4072

          k = 0.2598 0.1732 0.0866 (   278 PWs)   bands (ev):

     4.5238   6.7311   6.9116   7.7235   7.9630   8.0844  22.5442  25.3143

          k = 0.3464 0.2598 0.0866 (   282 PWs)   bands (ev):

     5.4037   6.5408   7.3081   7.8363   8.0621   8.9151  18.4433  23.9770

          k = 0.4330 0.3464 0.0866 (   278 PWs)   bands (ev):

     5.5408   6.4320   7.7315   7.8979   8.3998  10.4024  15.1581  23.2450

          k = 0.3464 0.1732 0.1732 (   279 PWs)   bands (ev):

     5.5127   6.6105   6.8132   7.7464   8.0507   9.0191  20.8532  21.1570

          k = 0.4330 0.2598 0.1732 (   281 PWs)   bands (ev):

     5.8968   6.4966   7.0892   7.8565   8.1548  10.6391  17.1559  19.9905

          k = 0.5196 0.3464 0.1732 (   276 PWs)   bands (ev):

     5.8933   6.4742   7.2423   7.9074   8.2497  12.3128  14.7409  19.6267

          k = 0.5196 0.2598 0.2598 (   284 PWs)   bands (ev):

     6.1665   6.5391   6.8589   7.9746   8.1353  13.0408  16.0737  16.8305

          k = 0.1732 0.1732 0.1732 (   276 PWs)   bands (ev):

     4.2899   6.7517   6.7517   7.8550   7.8550   8.0864  24.7563  24.7563

          k = 0.2598 0.2598 0.1732 (   279 PWs)   bands (ev):

     5.4028   6.5489   6.7220   7.8631   7.9357   8.9511  20.7349  23.3160

          k = 0.3464 0.3464 0.1732 (   281 PWs)   bands (ev):

     5.7806   6.4116   7.3451   7.9193   7.9801  10.3554  16.9213  22.4118

          k = 0.4330 0.4330 0.1732 (   278 PWs)   bands (ev):

     5.7662   6.3635   7.7315   7.9467   7.9940  11.8123  14.6323  22.1027

          k = 0.0000 0.0000 0.1732 (   289 PWs)   bands (ev):

     3.0895   7.0776   7.0776   7.2094   7.6727   7.9711  28.5478  29.4987

          k = 0.3464 0.2598 0.2598 (   279 PWs)   bands (ev):

     6.1043   6.4759   6.6907   7.9149   7.9905  10.3798  19.3440  19.5821

          k = 0.4330 0.3464 0.2598 (   279 PWs)   bands (ev):

     6.1229   6.4252   7.0764   7.9665   8.0231  12.4733  15.9637  18.7940

          k = 0.0000-0.0866 0.2598 (   277 PWs)   bands (ev):

     4.0046   6.9572   7.0598   7.5310   7.5715   8.0574  24.8188  27.5071

          k = 0.5196 0.3464 0.3464 (   279 PWs)   bands (ev):

     6.2090   6.7195   6.7195   8.0129   8.0129  15.0111  15.0111  16.3219

          k = 0.0000-0.1732 0.3464 (   281 PWs)   bands (ev):

     5.1136   6.7666   7.0315   7.6876   8.1085   8.2828  20.5101  25.7690

          k = 0.0866-0.0866 0.3464 (   281 PWs)   bands (ev):

     5.0013   6.8438   7.0080   7.4832   7.9543   8.3336  22.8853  23.2837

          k = 0.0000-0.2598 0.4330 (   280 PWs)   bands (ev):

     5.5509   6.6143   7.2954   7.8134   8.5898   9.4803  16.6935  24.5328

          k = 0.0866-0.1732 0.4330 (   276 PWs)   bands (ev):

     5.7457   6.6548   6.9908   7.6786   8.2643   9.4194  18.9427  21.7604

          k =-0.8660-0.3464-0.3464 (   278 PWs)   bands (ev):

     5.5686   6.5568   7.4422   7.7981   8.7866  10.9149  14.5031  24.0771

          k =-0.7794-0.2598-0.3464 (   280 PWs)   bands (ev):

     5.8325   6.6814   6.9998   7.7718   8.5632  11.3836  15.5065  21.0197

          k =-0.6928-0.1732-0.3464 (   284 PWs)   bands (ev):

     6.1781   6.4098   6.9100   7.8528   8.3329  11.4609  17.7124  18.1025

          k =-0.6928-0.2598-0.2598 (   284 PWs)   bands (ev):

     6.2094   6.6231   6.6305   7.9910   8.3550  13.6132  15.1139  17.5796

          k = 0.3464 0.3464 0.3464 (   279 PWs)   bands (ev):

     6.4267   6.4267   6.7068   7.9890   7.9890  12.3842  18.4121  18.4121

          k = 0.4330 0.4330 0.3464 (   284 PWs)   bands (ev):

     6.4186   6.4329   6.8139   8.0015   8.0057  14.6405  15.6134  18.0968

          k = 0.0000 0.0000 0.3464 (   277 PWs)   bands (ev):

     4.8042   7.0968   7.2185   7.2185   7.5973   8.3052  25.2542  25.2543

          k = 0.0000-0.0866 0.4330 (   284 PWs)   bands (ev):

     5.6523   6.7065   7.1803   7.4952   8.0441   8.9539  21.2467  23.4231

          k = 0.0000-0.1732 0.5196 (   282 PWs)   bands (ev):

     5.9206   6.5936   7.0746   7.6557   8.5363  10.6667  17.3717  22.1675

          k = 0.0866-0.0866 0.5196 (   275 PWs)   bands (ev):

     6.0461   6.3672   7.2554   7.7058   8.3223  10.4581  19.7776  19.9725

          k =-0.8660-0.2598-0.2598 (   276 PWs)   bands (ev):

     5.8847   6.6466   7.0316   7.6728   8.7437  12.5273  14.8446  21.7099

          k =-0.7794-0.1732-0.2598 (   276 PWs)   bands (ev):

     6.0501   6.3091   7.1465   7.9133   8.5657  12.8127  16.3127  19.1030

          k =-0.6928-0.1732-0.1732 (   279 PWs)   bands (ev):

     6.1531   6.1531   7.0744   8.3383   8.3383  15.4034  15.4034  16.5554

          k = 0.0000 0.0000 0.5196 (   277 PWs)   bands (ev):

     5.9618   6.3658   7.6373   7.6373   8.0827  10.1283  21.4859  21.4859

          k = 0.0000-0.0866 0.6062 (   267 PWs)   bands (ev):

     5.9665   6.0809   7.7167   7.8788   8.4747  12.1496  18.4131  20.1475

          k =-0.8660-0.1732-0.1732 (   264 PWs)   bands (ev):

     5.8836   6.0342   7.7032   7.9563   8.6909  14.4476  15.5874  19.6558

          k =-0.7794-0.0866-0.1732 (   270 PWs)   bands (ev):

     5.8641   5.8760   7.7848   8.2932   8.5708  14.5443  17.4181  17.7063

          k = 0.0000 0.0000 0.6928 (   265 PWs)   bands (ev):

     5.7567   5.7689   8.2725   8.2725   8.4795  14.1365  18.7217  18.7217

          k =-0.8660-0.0866-0.0866 (   270 PWs)   bands (ev):

     5.6525   5.6636   8.3487   8.4303   8.6481  16.4502  16.7859  18.1884

          k =-0.8660-0.8660-0.8660 (   266 PWs)   bands (ev):

     5.5408   5.5408   8.6319   8.6319   8.6319  17.6341  17.6341  17.6341

 ------ SPIN DOWN ----------


          k = 0.0000 0.0000 0.0000 (   321 PWs)   bands (ev):

     2.4632   9.9453   9.9453   9.9453  11.3858  11.3858  31.1354  31.1355

          k = 0.0866 0.0866 0.0000 (   285 PWs)   bands (ev):

     2.8015   9.8504   9.9210  10.1176  11.2927  11.3950  29.0118  30.5215

          k = 0.1732 0.1732 0.0000 (   281 PWs)   bands (ev):

     3.7759   9.6057   9.7770  10.5924  11.1590  11.4240  25.0704  28.7133

          k = 0.2598 0.2598 0.0000 (   283 PWs)   bands (ev):

     5.2230   9.3160   9.5367  11.1734  11.2440  11.4776  21.0782  26.9247

          k = 0.3464 0.3464 0.0000 (   282 PWs)   bands (ev):

     6.6416   9.0910   9.6081  11.2552  11.5369  11.8419  17.7351  25.7229

          k =-0.4330-0.4330 0.0000 (   276 PWs)   bands (ev):

     7.1725   9.0074   9.9993  11.2776  11.5640  12.0922  16.1875  25.3019

          k = 0.1732 0.0866 0.0866 (   284 PWs)   bands (ev):

     3.4593   9.7217   9.7748  10.4651  11.1534  11.4350  26.9090  27.7590

          k = 0.2598 0.1732 0.0866 (   278 PWs)   bands (ev):

     4.6858   9.4512   9.5428  11.0567  11.0907  11.5034  23.1870  25.7335

          k = 0.3464 0.2598 0.0866 (   282 PWs)   bands (ev):

     6.1973   9.1808   9.3617  11.1618  11.5424  11.8068  19.4186  24.4071

          k = 0.4330 0.3464 0.0866 (   278 PWs)   bands (ev):

     7.2337   9.0332   9.5667  11.2482  11.6285  12.4310  16.6672  23.6614

          k = 0.3464 0.1732 0.1732 (   279 PWs)   bands (ev):

     6.0309   9.1680   9.3158  11.0728  11.5331  11.8798  21.5893  21.8493

          k = 0.4330 0.2598 0.1732 (   281 PWs)   bands (ev):

     7.3554   8.9442   9.1999  11.1891  11.5754  12.8705  18.2105  20.7000

          k = 0.5196 0.3464 0.1732 (   276 PWs)   bands (ev):

     7.8496   8.9776   9.1705  11.2594  11.6031  13.7753  16.2830  20.3223

          k = 0.5196 0.2598 0.2598 (   284 PWs)   bands (ev):

     8.2705   8.7606   8.9947  11.3244  11.5135  14.5733  17.1856  17.8103

          k = 0.1732 0.1732 0.1732 (   276 PWs)   bands (ev):

     4.3961   9.4628   9.4628  11.0683  11.3218  11.3218  25.1455  25.1455

          k = 0.2598 0.2598 0.1732 (   279 PWs)   bands (ev):

     5.7905   9.1607   9.1913  11.2993  11.4589  11.8327  21.4710  23.7498

          k = 0.3464 0.3464 0.1732 (   281 PWs)   bands (ev):

     7.1557   8.9537   9.1446  11.3491  11.5452  12.6970  18.0229  22.8462

          k = 0.4330 0.4330 0.1732 (   278 PWs)   bands (ev):

     7.6362   8.8808   9.3734  11.3773  11.5750  13.3605  16.2441  22.5317

          k = 0.0000 0.0000 0.1732 (   289 PWs)   bands (ev):

     3.1344   9.9267   9.9267  10.1248  11.0584  11.5037  28.4266  29.8163

          k = 0.3464 0.2598 0.2598 (   279 PWs)   bands (ev):

     7.1440   8.8850   8.9700  11.3812  11.5315  12.8183  20.1470  20.3227

          k = 0.4330 0.3464 0.2598 (   279 PWs)   bands (ev):

     8.0478   8.7875   8.9562  11.4439  11.5709  14.1351  17.1286  19.5525

          k = 0.0000-0.0866 0.2598 (   277 PWs)   bands (ev):

     4.0911   9.7533   9.8372  10.5511  10.8017  11.5872  25.3093  27.8458

          k = 0.5196 0.3464 0.3464 (   279 PWs)   bands (ev):

     8.4740   8.7712   8.7712  11.5283  11.5283  16.1870  16.1870  17.3702

          k = 0.0000-0.1732 0.3464 (   281 PWs)   bands (ev):

     5.5052   9.4889   9.5301  10.8606  11.2061  11.6615  21.3197  26.3611

          k = 0.0866-0.0866 0.3464 (   281 PWs)   bands (ev):

     5.2576   9.5841   9.7136  10.6307  11.0208  11.7040  23.5159  23.9191

          k = 0.0000-0.2598 0.4330 (   280 PWs)   bands (ev):

     6.8905   9.2798   9.3769  11.0417  11.8151  11.9042  17.8963  25.1673

          k = 0.0866-0.1732 0.4330 (   276 PWs)   bands (ev):

     6.6739   9.1927   9.5537  10.8082  11.5236  12.0909  19.8519  22.4196

          k =-0.8660-0.3464-0.3464 (   278 PWs)   bands (ev):

     7.4178   9.2015   9.4981  11.0686  12.0716  12.3154  16.2105  24.6737

          k =-0.7794-0.2598-0.3464 (   280 PWs)   bands (ev):

     7.6722   9.0669   9.3717  10.9576  11.7869  13.0849  16.8616  21.6608

          k =-0.6928-0.1732-0.3464 (   284 PWs)   bands (ev):

     7.8240   8.8392   9.4213  11.0001  11.5690  13.3626  18.7112  18.9451

          k =-0.6928-0.2598-0.2598 (   284 PWs)   bands (ev):

     8.3772   8.7940   9.1320  11.1678  11.5710  14.8920  16.4434  18.4662

          k = 0.3464 0.3464 0.3464 (   279 PWs)   bands (ev):

     8.2025   8.7355   8.7355  11.5452  11.5452  14.1739  19.2517  19.2517

          k = 0.4330 0.4330 0.3464 (   284 PWs)   bands (ev):

     8.5154   8.6910   8.7914  11.5609  11.5934  15.8371  16.7882  18.9482

          k = 0.0000 0.0000 0.3464 (   277 PWs)   bands (ev):

     4.9858  10.0169  10.0169  10.1871  10.5987  11.7345  25.8068  25.9358

          k = 0.0000-0.0866 0.4330 (   284 PWs)   bands (ev):

     6.2665   9.4832   9.9571  10.4064  11.1284  11.9182  22.0024  24.1078

          k = 0.0000-0.1732 0.5196 (   282 PWs)   bands (ev):

     7.4804   8.9941   9.8164  10.6737  11.7462  12.6350  18.4084  22.7937

          k = 0.0866-0.0866 0.5196 (   275 PWs)   bands (ev):

     7.3843   9.0064  10.0160  10.6476  11.4867  12.5754  20.6101  20.6918

          k =-0.8660-0.2598-0.2598 (   276 PWs)   bands (ev):

     7.9836   8.8223   9.7585  10.6957  12.0182  13.7218  16.3207  22.2955

          k =-0.7794-0.1732-0.2598 (   276 PWs)   bands (ev):

     8.1658   8.6432   9.8416  10.9191  11.7704  14.1796  17.3775  19.8320

          k =-0.6928-0.1732-0.1732 (   279 PWs)   bands (ev):

     8.4901   8.4901   9.6523  11.4645  11.4645  16.4387  16.4387  17.4999

          k = 0.0000 0.0000 0.5196 (   277 PWs)   bands (ev):

     7.2089   9.1137  10.4718  10.4718  11.1967  12.3394  22.1337  22.1337

          k = 0.0000-0.0866 0.6062 (   267 PWs)   bands (ev):

     7.9147   8.6331  10.5940  10.7772  11.6702  13.5454  19.1782  20.7042

          k =-0.8660-0.1732-0.1732 (   264 PWs)   bands (ev):

     8.2658   8.3297  10.5849  10.8514  11.9526  15.3511  16.6441  20.1532

          k =-0.7794-0.0866-0.1732 (   270 PWs)   bands (ev):

     8.1605   8.3198  10.6296  11.3566  11.7753  15.4737  18.1326  18.3427

          k = 0.0000 0.0000 0.6928 (   265 PWs)   bands (ev):

     8.0075   8.2683  11.3122  11.3122  11.6893  14.9799  19.1371  19.1371

          k =-0.8660-0.0866-0.0866 (   270 PWs)   bands (ev):

     8.0444   8.0779  11.4545  11.5402  11.8994  16.9696  17.3101  18.5089

          k =-0.8660-0.8660-0.8660 (   266 PWs)   bands (ev):

     7.9527   7.9527  11.8794  11.8794  11.8794  17.8300  17.8300  17.8301

     the Fermi energy is     9.6710 ev

!    total energy              =     -55.78258786 Ry
     estimated scf accuracy    <          9.7E-09 Ry
     smearing contrib. (-TS)   =      -0.00004001 Ry
     internal energy E=F+TS    =     -55.78254785 Ry

     The total energy is F=E-TS. E is the sum of the following terms:
     one-electron contribution =       2.33896953 Ry
     hartree contribution      =       7.99812561 Ry
     xc contribution           =     -26.36120362 Ry
     ewald contribution        =     -39.75843937 Ry

     total magnetization       =     2.81 Bohr mag/cell
     absolute magnetization    =     3.05 Bohr mag/cell

     convergence has been achieved in  11 iterations

     Forces acting on atoms (cartesian axes, Ry/au):

     atom    1 type  1   force =     0.00000000    0.00000000    0.00000000
     The non-local contrib.  to forces
     atom    1 type  1   force =     0.00000000    0.00000000    0.00000000
     The ionic contribution  to forces
     atom    1 type  1   force =    -0.00000000   -0.00000000   -0.00000000
     The local contribution  to forces
     atom    1 type  1   force =     0.00000000    0.00000000    0.00000000
     The core correction contribution to forces
     atom    1 type  1   force =     0.00000000    0.00000000    0.00000000
     The Hubbard contrib.    to forces
     atom    1 type  1   force =     0.00000000    0.00000000    0.00000000
     The SCF correction term to forces
     atom    1 type  1   force =     0.00000000   -0.00000000   -0.00000000

     Total force =     0.000000     Total SCF correction =     0.000000


     Computing stress (Cartesian axis) and pressure

          total   stress  (Ry/bohr**3)                   (kbar)     P=     -223.57
  -0.00151982   0.00000000   0.00000000         -223.57        0.00        0.00
   0.00000000  -0.00151982   0.00000000            0.00     -223.57        0.00
   0.00000000   0.00000000  -0.00151982            0.00        0.00     -223.57


     init_run     :      0.35s CPU      0.68s WALL (       1 calls)
     electrons    :      4.46s CPU      9.12s WALL (       1 calls)
     forces       :      0.03s CPU      0.05s WALL (       1 calls)
     stress       :      0.21s CPU      0.42s WALL (       1 calls)

     Called by init_run:
     wfcinit      :      0.11s CPU      0.21s WALL (       1 calls)
     potinit      :      0.10s CPU      0.19s WALL (       1 calls)
     hinit0       :      0.13s CPU      0.25s WALL (       1 calls)

     Called by electrons:
     c_bands      :      3.65s CPU      7.79s WALL (      11 calls)
     sum_band     :      0.60s CPU      0.96s WALL (      11 calls)
     v_of_rho     :      0.09s CPU      0.10s WALL (      12 calls)
     newd         :      0.09s CPU      0.16s WALL (      12 calls)
     mix_rho      :      0.03s CPU      0.03s WALL (      11 calls)

     Called by c_bands:
     init_us_2    :      0.09s CPU      0.11s WALL (    2350 calls)
     init_us_2:cp :      0.09s CPU      0.10s WALL (    2350 calls)
     cegterg      :      3.22s CPU      3.56s WALL (    1034 calls)

     Called by *egterg:
     cdiaghg      :      0.46s CPU      0.50s WALL (    3969 calls)
     h_psi        :      2.42s CPU      2.79s WALL (    4063 calls)
     s_psi        :      0.05s CPU      0.05s WALL (    4063 calls)
     g_psi        :      0.01s CPU      0.01s WALL (    2935 calls)

     Called by h_psi:
     h_psi:calbec :      0.13s CPU      0.13s WALL (    4063 calls)
     vloc_psi     :      2.23s CPU      2.59s WALL (    4063 calls)
     add_vuspsi   :      0.04s CPU      0.04s WALL (    4063 calls)

     General routines
     calbec       :      0.16s CPU      0.23s WALL (    5567 calls)
     fft          :      0.09s CPU      0.12s WALL (     338 calls)
     ffts         :      0.09s CPU      0.19s WALL (      46 calls)
     fftw         :      2.39s CPU      2.93s WALL (   51256 calls)
     interpolate  :      0.10s CPU      0.19s WALL (      24 calls)

     Parallel routines

     PWSCF        :      5.35s CPU     10.79s WALL


   This run was terminated on:  16:59:24   1Nov2023            

=------------------------------------------------------------------------------=
   JOB DONE.
=------------------------------------------------------------------------------=
