
     Program PWSCF v.7.2 starts on  3Nov2023 at 10:55:46 

     This program is part of the open-source Quantum ESPRESSO suite
     for quantum simulation of materials; please cite
         "P. Giannozzi et al., J. Phys.:Condens. Matter 21 395502 (2009);
         "P. Giannozzi et al., J. Phys.:Condens. Matter 29 465901 (2017);
         "P. Giannozzi et al., J. Chem. Phys. 152 154105 (2020);
          URL http://www.quantum-espresso.org", 
     in publications or presentations arising from this work. More details at
     http://www.quantum-espresso.org/quote

     Parallel version (MPI), running on     8 processors

     MPI processes distributed on     8 nodes
     185888 MiB available memory on the printing compute node when the environment starts

     Waiting for input...
     Reading input from standard input

     Current dimensions of program PWSCF are:
     Max number of different atomic species (ntypx) = 10
     Max number of k-points (npk) =  40000
     Max angular momentum in pseudopotentials (lmaxx) =  4
     file Cu.pz-d-rrkjus.UPF: wavefunction(s)  3D renormalized
     Message from routine setup:
     using ibrav=0 with symmetry is DISCOURAGED, use correct ibrav instead

     R & G space division:  proc/nbgrp/npool/nimage =       8
     Subspace diagonalization in iterative solution of the eigenvalue problem:
     a serial algorithm will be used


     Parallelization info
     --------------------
     sticks:   dense  smooth     PW     G-vecs:    dense   smooth      PW
     Min          59      30     10                  858      305      65
     Max          60      31     11                  861      308      68
     Sum         475     241     85                 6879     2445     531

     Using Slab Decomposition



     bravais-lattice index     =            0
     lattice parameter (alat)  =       4.6768  a.u.
     unit-cell volume          =      72.3337 (a.u.)^3
     number of atoms/cell      =            1
     number of atomic types    =            1
     number of electrons       =        11.00
     number of Kohn-Sham states=           10
     kinetic-energy cutoff     =      40.0000  Ry
     charge density cutoff     =     320.0000  Ry
     scf convergence threshold =      1.0E-07
     mixing beta               =       0.5000
     number of iterations used =            8  plain     mixing
     energy convergence thresh.=      1.0E-04
     force convergence thresh. =      1.0E-03
     press convergence thresh. =      5.0E-01
     Exchange-correlation=  SLA  PZ   NOGX NOGC
                           (   1   1   0   0   0   0   0)
     nstep                     =           50


     celldm(1)=   4.676834  celldm(2)=   0.000000  celldm(3)=   0.000000
     celldm(4)=   0.000000  celldm(5)=   0.000000  celldm(6)=   0.000000

     crystal axes: (cart. coord. in units of alat)
               a(1) = (   0.000000   0.707107   0.707107 )  
               a(2) = (   0.707107   0.000000   0.707107 )  
               a(3) = (   0.707107   0.707107   0.000000 )  

     reciprocal axes: (cart. coord. in units 2 pi/alat)
               b(1) = ( -0.707107  0.707107  0.707107 )  
               b(2) = (  0.707107 -0.707107  0.707107 )  
               b(3) = (  0.707107  0.707107 -0.707107 )  


     PseudoPot. # 1 for Cu read from file:
     /home/gridsan/epan1/labutil/lab3_samples/pseudopotentials/Cu.pz-d-rrkjus.UPF
     MD5 check sum: fd38ae683e239c95a66f426e1f8e5fc7
     Pseudo is Ultrasoft, Zval = 11.0
     Generated by new atomic code, or converted to UPF format
     Using radial grid of  899 points,  3 beta functions with: 
                l(1) =   2
                l(2) =   2
                l(3) =   1
     Q(r) pseudized with 0 coefficients 


     atomic species   valence    mass     pseudopotential
        Cu            11.00    63.54600     Cu( 1.00)

     Starting magnetic structure 
     atomic species   magnetization
        Cu           0.700

     48 Sym. Ops., with inversion, found



   Cartesian axes

     site n.     atom                  positions (alat units)
         1           Cu  tau(   1) = (   0.0000000   0.0000000   0.0000000  )

     number of k points=    56  Methfessel-Paxton smearing, width (Ry)=  0.0200
                       cart. coord. in units 2pi/alat
        k(    1) = (   0.0000000   0.0000000   0.0000000), wk =   0.0007513
        k(    2) = (   0.0642824   0.0642824  -0.0642824), wk =   0.0060105
        k(    3) = (   0.1285649   0.1285649  -0.1285649), wk =   0.0060105
        k(    4) = (   0.1928473   0.1928473  -0.1928473), wk =   0.0060105
        k(    5) = (   0.2571297   0.2571297  -0.2571297), wk =   0.0060105
        k(    6) = (   0.3214122   0.3214122  -0.3214122), wk =   0.0060105
        k(    7) = (   0.1285649   0.0000000   0.0000000), wk =   0.0045079
        k(    8) = (   0.1928473   0.0642824  -0.0642824), wk =   0.0180316
        k(    9) = (   0.2571297   0.1285649  -0.1285649), wk =   0.0180316
        k(   10) = (   0.3214122   0.1928473  -0.1928473), wk =   0.0180316
        k(   11) = (   0.3856946   0.2571297  -0.2571297), wk =   0.0180316
        k(   12) = (  -0.2571297  -0.3856946   0.3856946), wk =   0.0180316
        k(   13) = (  -0.1928473  -0.3214122   0.3214122), wk =   0.0180316
        k(   14) = (  -0.1285649  -0.2571297   0.2571297), wk =   0.0180316
        k(   15) = (  -0.0642824  -0.1928473   0.1928473), wk =   0.0180316
        k(   16) = (  -0.0000000  -0.1285649   0.1285649), wk =   0.0090158
        k(   17) = (   0.2571297   0.0000000   0.0000000), wk =   0.0045079
        k(   18) = (   0.3214122   0.0642824  -0.0642824), wk =   0.0180316
        k(   19) = (   0.3856946   0.1285649  -0.1285649), wk =   0.0180316
        k(   20) = (   0.4499770   0.1928473  -0.1928473), wk =   0.0180316
        k(   21) = (  -0.1928473  -0.4499770   0.4499770), wk =   0.0180316
        k(   22) = (  -0.1285649  -0.3856946   0.3856946), wk =   0.0180316
        k(   23) = (  -0.0642824  -0.3214122   0.3214122), wk =   0.0180316
        k(   24) = (   0.0000000  -0.2571297   0.2571297), wk =   0.0090158
        k(   25) = (   0.3856946   0.0000000   0.0000000), wk =   0.0045079
        k(   26) = (   0.4499770   0.0642824  -0.0642824), wk =   0.0180316
        k(   27) = (   0.5142595   0.1285649  -0.1285649), wk =   0.0180316
        k(   28) = (  -0.1285649  -0.5142595   0.5142595), wk =   0.0180316
        k(   29) = (  -0.0642824  -0.4499770   0.4499770), wk =   0.0180316
        k(   30) = (   0.0000000  -0.3856946   0.3856946), wk =   0.0090158
        k(   31) = (   0.5142595   0.0000000   0.0000000), wk =   0.0045079
        k(   32) = (   0.5785419   0.0642824  -0.0642824), wk =   0.0180316
        k(   33) = (  -0.0642824  -0.5785419   0.5785419), wk =   0.0180316
        k(   34) = (   0.0000000  -0.5142595   0.5142595), wk =   0.0090158
        k(   35) = (   0.6428243   0.0000000   0.0000000), wk =   0.0045079
        k(   36) = (  -0.0000000  -0.6428243   0.6428243), wk =   0.0090158
        k(   37) = (   0.2571297   0.1285649   0.0000000), wk =   0.0180316
        k(   38) = (   0.3214122   0.1928473  -0.0642824), wk =   0.0360631
        k(   39) = (   0.3856946   0.2571297  -0.1285649), wk =   0.0360631
        k(   40) = (  -0.2571297  -0.3856946   0.5142595), wk =   0.0360631
        k(   41) = (   0.3856946   0.1285649   0.0000000), wk =   0.0180316
        k(   42) = (   0.4499770   0.1928473  -0.0642824), wk =   0.0360631
        k(   43) = (  -0.1928473  -0.4499770   0.5785419), wk =   0.0360631
        k(   44) = (  -0.1285649  -0.3856946   0.5142595), wk =   0.0360631
        k(   45) = (  -0.0642824  -0.3214122   0.4499770), wk =   0.0360631
        k(   46) = (   0.0000000  -0.2571297   0.3856946), wk =   0.0180316
        k(   47) = (   0.5142595   0.1285649   0.0000000), wk =   0.0180316
        k(   48) = (  -0.1285649  -0.5142595   0.6428243), wk =   0.0360631
        k(   49) = (  -0.0642824  -0.4499770   0.5785419), wk =   0.0360631
        k(   50) = (   0.0000000  -0.3856946   0.5142595), wk =   0.0180316
        k(   51) = (  -0.0642824  -0.5785419   0.7071068), wk =   0.0180316
        k(   52) = (   0.0000000  -0.5142595   0.6428243), wk =   0.0180316
        k(   53) = (  -0.1928473  -0.4499770   0.7071068), wk =   0.0180316
        k(   54) = (  -0.1285649  -0.3856946   0.6428243), wk =   0.0360631
        k(   55) = (  -0.0642824  -0.4499770   0.7071068), wk =   0.0180316
        k(   56) = (   0.0000000  -0.3856946   0.6428243), wk =   0.0180316

     Dense  grid:     6879 G-vectors     FFT dimensions: (  27,  27,  27)

     Smooth grid:     2445 G-vectors     FFT dimensions: (  20,  20,  20)

     Estimated max dynamical RAM per process >       4.02 MB

     Estimated total dynamical RAM >      32.12 MB
     Generating pointlists ...
     new r_m :   0.4125 (alat units)  1.9292 (a.u.) for type    1

     Initial potential from superposition of free atoms

     starting charge      10.9997, renormalised to      11.0000
     Starting wfcs are    6 randomized atomic wfcs +    4 random wfcs

     total cpu time spent up to now is        0.4 secs

     Self-consistent Calculation

     iteration #  1     ecut=    40.00 Ry     beta= 0.50
     Davidson diagonalization with overlap
     ethr =  1.00E-02,  avg # of iterations =  6.0

     total cpu time spent up to now is        1.0 secs

     total energy              =     -86.96714942 Ry
     estimated scf accuracy    <       1.45741039 Ry

     total magnetization       =     1.75 Bohr mag/cell
     absolute magnetization    =     1.88 Bohr mag/cell

     iteration #  2     ecut=    40.00 Ry     beta= 0.50
     Davidson diagonalization with overlap
     ethr =  1.00E-02,  avg # of iterations =  1.5

     total cpu time spent up to now is        1.3 secs

     total energy              =     -87.61769544 Ry
     estimated scf accuracy    <       0.72357952 Ry

     total magnetization       =     0.34 Bohr mag/cell
     absolute magnetization    =     0.51 Bohr mag/cell

     iteration #  3     ecut=    40.00 Ry     beta= 0.50
     Davidson diagonalization with overlap
     ethr =  6.58E-03,  avg # of iterations =  1.0

     negative rho (up, down):  0.000E+00 2.098E-07

     total cpu time spent up to now is        1.5 secs

     total energy              =     -87.79631627 Ry
     estimated scf accuracy    <       0.21064853 Ry

     total magnetization       =     0.34 Bohr mag/cell
     absolute magnetization    =     0.52 Bohr mag/cell

     iteration #  4     ecut=    40.00 Ry     beta= 0.50
     Davidson diagonalization with overlap
     ethr =  1.91E-03,  avg # of iterations =  1.5

     total cpu time spent up to now is        1.8 secs

     total energy              =     -87.83165278 Ry
     estimated scf accuracy    <       0.03844955 Ry

     total magnetization       =    -0.02 Bohr mag/cell
     absolute magnetization    =     0.06 Bohr mag/cell

     iteration #  5     ecut=    40.00 Ry     beta= 0.50
     Davidson diagonalization with overlap
     ethr =  3.50E-04,  avg # of iterations =  1.3

     total cpu time spent up to now is        2.1 secs

     total energy              =     -87.84205546 Ry
     estimated scf accuracy    <       0.00184158 Ry

     total magnetization       =    -0.02 Bohr mag/cell
     absolute magnetization    =     0.02 Bohr mag/cell

     iteration #  6     ecut=    40.00 Ry     beta= 0.50
     Davidson diagonalization with overlap
     ethr =  1.67E-05,  avg # of iterations =  1.6

     total cpu time spent up to now is        2.4 secs

     total energy              =     -87.84291073 Ry
     estimated scf accuracy    <       0.00047608 Ry

     total magnetization       =     0.01 Bohr mag/cell
     absolute magnetization    =     0.04 Bohr mag/cell

     iteration #  7     ecut=    40.00 Ry     beta= 0.50
     Davidson diagonalization with overlap
     ethr =  4.33E-06,  avg # of iterations =  1.3

     total cpu time spent up to now is        2.7 secs

     total energy              =     -87.84300224 Ry
     estimated scf accuracy    <       0.00002305 Ry

     total magnetization       =    -0.00 Bohr mag/cell
     absolute magnetization    =     0.00 Bohr mag/cell

     iteration #  8     ecut=    40.00 Ry     beta= 0.50
     Davidson diagonalization with overlap
     ethr =  2.10E-07,  avg # of iterations =  1.4

     total cpu time spent up to now is        3.0 secs

     total energy              =     -87.84301091 Ry
     estimated scf accuracy    <       0.00000395 Ry

     total magnetization       =     0.00 Bohr mag/cell
     absolute magnetization    =     0.00 Bohr mag/cell

     iteration #  9     ecut=    40.00 Ry     beta= 0.50
     Davidson diagonalization with overlap
     ethr =  3.59E-08,  avg # of iterations =  1.1

     Magnetic moment per site  (integrated on atomic sphere of radius R)
     atom   1 (R=0.412)  charge=  9.7762  magn=  0.0001

     total cpu time spent up to now is        3.3 secs

     End of self-consistent calculation

     Number of k-points >= 100: set verbosity='high' to print the bands.

     the Fermi energy is    15.7035 ev

!    total energy              =     -87.84301180 Ry
     estimated scf accuracy    <       0.00000001 Ry
     smearing contrib. (-TS)   =       0.00012073 Ry
     internal energy E=F+TS    =     -87.84313253 Ry

     The total energy is F=E-TS. E is the sum of the following terms:
     one-electron contribution =      -8.04053411 Ry
     hartree contribution      =      18.16140853 Ry
     xc contribution           =     -14.08665052 Ry
     ewald contribution        =     -83.87735643 Ry

     total magnetization       =     0.00 Bohr mag/cell
     absolute magnetization    =     0.00 Bohr mag/cell

     convergence has been achieved in   9 iterations

     Forces acting on atoms (cartesian axes, Ry/au):

     atom    1 type  1   force =     0.00000000    0.00000000    0.00000000
     The non-local contrib.  to forces
     atom    1 type  1   force =    -0.00000000    0.00000000    0.00000000
     The ionic contribution  to forces
     atom    1 type  1   force =    -0.00000000   -0.00000000   -0.00000000
     The local contribution  to forces
     atom    1 type  1   force =     0.00000000    0.00000000   -0.00000000
     The core correction contribution to forces
     atom    1 type  1   force =     0.00000000    0.00000000    0.00000000
     The Hubbard contrib.    to forces
     atom    1 type  1   force =     0.00000000    0.00000000    0.00000000
     The SCF correction term to forces
     atom    1 type  1   force =    -0.00000000    0.00000000    0.00000000

     Total force =     0.000000     Total SCF correction =     0.000000


     Computing stress (Cartesian axis) and pressure

          total   stress  (Ry/bohr**3)                   (kbar)     P=       82.54
   0.00056106   0.00000000   0.00000000           82.54        0.00        0.00
   0.00000000   0.00056106   0.00000000            0.00       82.54        0.00
   0.00000000   0.00000000   0.00056106            0.00        0.00       82.54


     BFGS Geometry Optimization
     Energy error            =      0.0E+00 Ry
     Gradient error          =      0.0E+00 Ry/Bohr
     Cell gradient error     =      8.3E+01 kbar

     number of scf cycles    =   1
     number of bfgs steps    =   0

     enthalpy           new  =     -87.8430117995 Ry

     new trust radius        =       0.0238589304 bohr
     new conv_thr            =       0.0000001000 Ry

     new unit-cell volume =     75.42038 a.u.^3 (    11.17615 Ang^3 )
     density =      9.44159 g/cm^3

CELL_PARAMETERS (angstrom)
   0.000000000   1.774546448   1.774546448
   1.774546448   0.000000000   1.774546448
   1.774546448   1.774546448   0.000000000

ATOMIC_POSITIONS (angstrom)
Cu            0.0000000000        0.0000000000        0.0000000000



     Writing config-only to output data dir /home/gridsan/epan1/labutil/lab3_samples/problem3/Lab3/Cu_a_3.5_ecut_40_nk_11/pwscf.save/
     NEW-OLD atomic charge density approx. for the potential
     extrapolated charge   11.45018, renormalised to   11.00000
     Generating pointlists ...

     total cpu time spent up to now is        3.5 secs

     Self-consistent Calculation

     iteration #  1     ecut=    40.00 Ry     beta= 0.50
     Davidson diagonalization with overlap
     ethr =  1.00E-06,  avg # of iterations =  4.2

     total cpu time spent up to now is        4.1 secs

     total energy              =     -87.68724724 Ry
     estimated scf accuracy    <       0.14885502 Ry

     total magnetization       =     0.00 Bohr mag/cell
     absolute magnetization    =     0.00 Bohr mag/cell

     iteration #  2     ecut=    40.00 Ry     beta= 0.50
     Davidson diagonalization with overlap
     ethr =  1.35E-03,  avg # of iterations =  2.0

     total cpu time spent up to now is        4.5 secs

     total energy              =     -87.84667106 Ry
     estimated scf accuracy    <       0.22955915 Ry

     total magnetization       =    -0.00 Bohr mag/cell
     absolute magnetization    =     0.00 Bohr mag/cell

     iteration #  3     ecut=    40.00 Ry     beta= 0.50
     Davidson diagonalization with overlap
     ethr =  1.35E-03,  avg # of iterations =  1.0

     total cpu time spent up to now is        4.8 secs

     total energy              =     -87.84571641 Ry
     estimated scf accuracy    <       0.04952229 Ry

     total magnetization       =    -0.00 Bohr mag/cell
     absolute magnetization    =     0.00 Bohr mag/cell

     iteration #  4     ecut=    40.00 Ry     beta= 0.50
     Davidson diagonalization with overlap
     ethr =  4.50E-04,  avg # of iterations =  1.0

     total cpu time spent up to now is        5.1 secs

     total energy              =     -87.84423559 Ry
     estimated scf accuracy    <       0.01336169 Ry

     total magnetization       =    -0.00 Bohr mag/cell
     absolute magnetization    =     0.00 Bohr mag/cell

     iteration #  5     ecut=    40.00 Ry     beta= 0.50
     Davidson diagonalization with overlap
     ethr =  1.21E-04,  avg # of iterations =  1.0

     total cpu time spent up to now is        5.4 secs

     total energy              =     -87.84355409 Ry
     estimated scf accuracy    <       0.00340995 Ry

     total magnetization       =    -0.00 Bohr mag/cell
     absolute magnetization    =     0.00 Bohr mag/cell

     iteration #  6     ecut=    40.00 Ry     beta= 0.50
     Davidson diagonalization with overlap
     ethr =  3.10E-05,  avg # of iterations =  1.0

     total cpu time spent up to now is        5.7 secs

     total energy              =     -87.84372754 Ry
     estimated scf accuracy    <       0.00025460 Ry

     total magnetization       =    -0.00 Bohr mag/cell
     absolute magnetization    =     0.00 Bohr mag/cell

     iteration #  7     ecut=    40.00 Ry     beta= 0.50
     Davidson diagonalization with overlap
     ethr =  2.31E-06,  avg # of iterations =  1.9

     total cpu time spent up to now is        6.0 secs

     total energy              =     -87.84381957 Ry
     estimated scf accuracy    <       0.00008003 Ry

     total magnetization       =    -0.00 Bohr mag/cell
     absolute magnetization    =     0.00 Bohr mag/cell

     iteration #  8     ecut=    40.00 Ry     beta= 0.50
     Davidson diagonalization with overlap
     ethr =  7.28E-07,  avg # of iterations =  1.0

     total cpu time spent up to now is        6.3 secs

     total energy              =     -87.84382168 Ry
     estimated scf accuracy    <       0.00001047 Ry

     total magnetization       =    -0.00 Bohr mag/cell
     absolute magnetization    =     0.00 Bohr mag/cell

     iteration #  9     ecut=    40.00 Ry     beta= 0.50
     Davidson diagonalization with overlap
     ethr =  9.52E-08,  avg # of iterations =  1.0

     total cpu time spent up to now is        6.6 secs

     total energy              =     -87.84382319 Ry
     estimated scf accuracy    <       0.00000040 Ry

     total magnetization       =    -0.00 Bohr mag/cell
     absolute magnetization    =     0.00 Bohr mag/cell

     iteration # 10     ecut=    40.00 Ry     beta= 0.50
     Davidson diagonalization with overlap
     ethr =  3.66E-09,  avg # of iterations =  1.0

     total cpu time spent up to now is        6.9 secs

     total energy              =     -87.84382268 Ry
     estimated scf accuracy    <       0.00000117 Ry

     total magnetization       =    -0.00 Bohr mag/cell
     absolute magnetization    =     0.00 Bohr mag/cell

     iteration # 11     ecut=    40.00 Ry     beta= 0.50
     Davidson diagonalization with overlap
     ethr =  3.66E-09,  avg # of iterations =  2.0

     Magnetic moment per site  (integrated on atomic sphere of radius R)
     atom   1 (R=0.412)  charge=  9.7325  magn= -0.0000

     total cpu time spent up to now is        7.2 secs

     End of self-consistent calculation

     Number of k-points >= 100: set verbosity='high' to print the bands.

     the Fermi energy is    14.8612 ev

!    total energy              =     -87.84382288 Ry
     estimated scf accuracy    <          2.2E-09 Ry
     smearing contrib. (-TS)   =       0.00014462 Ry
     internal energy E=F+TS    =     -87.84396750 Ry

     The total energy is F=E-TS. E is the sum of the following terms:
     one-electron contribution =      -9.80702374 Ry
     hartree contribution      =      18.74119621 Ry
     xc contribution           =     -14.06101868 Ry
     ewald contribution        =     -82.71712129 Ry

     total magnetization       =    -0.00 Bohr mag/cell
     absolute magnetization    =     0.00 Bohr mag/cell

     convergence has been achieved in  11 iterations

     Forces acting on atoms (cartesian axes, Ry/au):

     atom    1 type  1   force =     0.00000000    0.00000000    0.00000000
     The non-local contrib.  to forces
     atom    1 type  1   force =     0.00000000    0.00000000   -0.00000000
     The ionic contribution  to forces
     atom    1 type  1   force =    -0.00000000   -0.00000000   -0.00000000
     The local contribution  to forces
     atom    1 type  1   force =    -0.00000000   -0.00000000   -0.00000000
     The core correction contribution to forces
     atom    1 type  1   force =     0.00000000    0.00000000    0.00000000
     The Hubbard contrib.    to forces
     atom    1 type  1   force =     0.00000000    0.00000000    0.00000000
     The SCF correction term to forces
     atom    1 type  1   force =    -0.00000000   -0.00000000    0.00000000

     Total force =     0.000000     Total SCF correction =     0.000000


     Computing stress (Cartesian axis) and pressure

          total   stress  (Ry/bohr**3)                   (kbar)     P=       -1.39
  -0.00000943  -0.00000000  -0.00000000           -1.39       -0.00       -0.00
  -0.00000000  -0.00000943  -0.00000000           -0.00       -1.39       -0.00
  -0.00000000  -0.00000000  -0.00000943           -0.00       -0.00       -1.39

     Energy error            =      8.1E-04 Ry
     Gradient error          =      0.0E+00 Ry/Bohr
     Cell gradient error     =      1.4E+00 kbar

     number of scf cycles    =   2
     number of bfgs steps    =   1

     enthalpy           old  =     -87.8430117995 Ry
     enthalpy           new  =     -87.8438228830 Ry

     CASE: enthalpy          _new < enthalpy          _old

     new trust radius        =       0.0004083704 bohr
     new conv_thr            =       0.0000000010 Ry

     new unit-cell volume =     75.36719 a.u.^3 (    11.16827 Ang^3 )
     density =      9.44825 g/cm^3

CELL_PARAMETERS (angstrom)
   0.000000000   1.774129226   1.774129226
   1.774129226   0.000000000   1.774129226
   1.774129226   1.774129226   0.000000000

ATOMIC_POSITIONS (angstrom)
Cu            0.0000000000        0.0000000000        0.0000000000



     Writing config-only to output data dir /home/gridsan/epan1/labutil/lab3_samples/problem3/Lab3/Cu_a_3.5_ecut_40_nk_11/pwscf.save/
     NEW-OLD atomic charge density approx. for the potential
     extrapolated charge   10.99224, renormalised to   11.00000
     Generating pointlists ...

     total cpu time spent up to now is        7.5 secs

     Self-consistent Calculation

     iteration #  1     ecut=    40.00 Ry     beta= 0.50
     Davidson diagonalization with overlap
     ethr =  1.00E-06,  avg # of iterations =  2.0

     total cpu time spent up to now is        7.8 secs

     total energy              =     -87.84378217 Ry
     estimated scf accuracy    <       0.00003887 Ry

     total magnetization       =    -0.00 Bohr mag/cell
     absolute magnetization    =     0.00 Bohr mag/cell

     iteration #  2     ecut=    40.00 Ry     beta= 0.50
     Davidson diagonalization with overlap
     ethr =  3.53E-07,  avg # of iterations =  2.0

     total cpu time spent up to now is        8.2 secs

     total energy              =     -87.84382192 Ry
     estimated scf accuracy    <       0.00006521 Ry

     total magnetization       =    -0.00 Bohr mag/cell
     absolute magnetization    =     0.00 Bohr mag/cell

     iteration #  3     ecut=    40.00 Ry     beta= 0.50
     Davidson diagonalization with overlap
     ethr =  3.53E-07,  avg # of iterations =  1.0

     total cpu time spent up to now is        8.5 secs

     total energy              =     -87.84382486 Ry
     estimated scf accuracy    <       0.00001126 Ry

     total magnetization       =    -0.00 Bohr mag/cell
     absolute magnetization    =     0.00 Bohr mag/cell

     iteration #  4     ecut=    40.00 Ry     beta= 0.50
     Davidson diagonalization with overlap
     ethr =  1.02E-07,  avg # of iterations =  1.0

     total cpu time spent up to now is        8.8 secs

     total energy              =     -87.84382167 Ry
     estimated scf accuracy    <       0.00000720 Ry

     total magnetization       =    -0.00 Bohr mag/cell
     absolute magnetization    =     0.00 Bohr mag/cell

     iteration #  5     ecut=    40.00 Ry     beta= 0.50
     Davidson diagonalization with overlap
     ethr =  6.55E-08,  avg # of iterations =  1.0

     total cpu time spent up to now is        9.1 secs

     total energy              =     -87.84382274 Ry
     estimated scf accuracy    <       0.00000007 Ry

     total magnetization       =    -0.00 Bohr mag/cell
     absolute magnetization    =     0.00 Bohr mag/cell

     iteration #  6     ecut=    40.00 Ry     beta= 0.50
     Davidson diagonalization with overlap
     ethr =  6.24E-10,  avg # of iterations =  2.0

     total cpu time spent up to now is        9.5 secs

     total energy              =     -87.84382273 Ry
     estimated scf accuracy    <       0.00000023 Ry

     total magnetization       =     0.00 Bohr mag/cell
     absolute magnetization    =     0.00 Bohr mag/cell

     iteration #  7     ecut=    40.00 Ry     beta= 0.50
     Davidson diagonalization with overlap
     ethr =  6.24E-10,  avg # of iterations =  2.0

     Magnetic moment per site  (integrated on atomic sphere of radius R)
     atom   1 (R=0.412)  charge=  9.7333  magn=  0.0000

     total cpu time spent up to now is        9.8 secs

     End of self-consistent calculation

     Number of k-points >= 100: set verbosity='high' to print the bands.

     the Fermi energy is    14.8750 ev

!    total energy              =     -87.84382278 Ry
     estimated scf accuracy    <          8.8E-13 Ry
     smearing contrib. (-TS)   =       0.00014432 Ry
     internal energy E=F+TS    =     -87.84396710 Ry

     The total energy is F=E-TS. E is the sum of the following terms:
     one-electron contribution =      -9.77751103 Ry
     hartree contribution      =      18.73160168 Ry
     xc contribution           =     -14.06148388 Ry
     ewald contribution        =     -82.73657388 Ry

     total magnetization       =     0.00 Bohr mag/cell
     absolute magnetization    =     0.00 Bohr mag/cell

     convergence has been achieved in   7 iterations

     Forces acting on atoms (cartesian axes, Ry/au):

     atom    1 type  1   force =     0.00000000    0.00000000    0.00000000
     The non-local contrib.  to forces
     atom    1 type  1   force =    -0.00000000   -0.00000000    0.00000000
     The ionic contribution  to forces
     atom    1 type  1   force =    -0.00000000   -0.00000000   -0.00000000
     The local contribution  to forces
     atom    1 type  1   force =    -0.00000000   -0.00000000   -0.00000000
     The core correction contribution to forces
     atom    1 type  1   force =     0.00000000    0.00000000    0.00000000
     The Hubbard contrib.    to forces
     atom    1 type  1   force =     0.00000000    0.00000000    0.00000000
     The SCF correction term to forces
     atom    1 type  1   force =    -0.00000000   -0.00000000    0.00000000

     Total force =     0.000000     Total SCF correction =     0.000000


     Computing stress (Cartesian axis) and pressure

          total   stress  (Ry/bohr**3)                   (kbar)     P=        0.92
   0.00000627   0.00000000  -0.00000000            0.92        0.00       -0.00
   0.00000000   0.00000627  -0.00000000            0.00        0.92       -0.00
   0.00000000  -0.00000000   0.00000627            0.00       -0.00        0.92

     Energy error            =      1.1E-07 Ry
     Gradient error          =      0.0E+00 Ry/Bohr
     Cell gradient error     =      9.2E-01 kbar

     number of scf cycles    =   3
     number of bfgs steps    =   2

     enthalpy           old  =     -87.8438228830 Ry
     enthalpy           new  =     -87.8438227770 Ry

     CASE: enthalpy          _new > enthalpy          _old

     new trust radius        =       0.0001685421 bohr
     new conv_thr            =       0.0000000010 Ry

     new unit-cell volume =     75.39842 a.u.^3 (    11.17289 Ang^3 )
     density =      9.44434 g/cm^3

CELL_PARAMETERS (angstrom)
   0.000000000   1.774374232   1.774374232
   1.774374232   0.000000000   1.774374232
   1.774374232   1.774374232   0.000000000

ATOMIC_POSITIONS (angstrom)
Cu            0.0000000000        0.0000000000        0.0000000000



     Writing config-only to output data dir /home/gridsan/epan1/labutil/lab3_samples/problem3/Lab3/Cu_a_3.5_ecut_40_nk_11/pwscf.save/
     NEW-OLD atomic charge density approx. for the potential
     extrapolated charge   11.00456, renormalised to   11.00000
     Generating pointlists ...

     total cpu time spent up to now is       10.2 secs

     Self-consistent Calculation

     iteration #  1     ecut=    40.00 Ry     beta= 0.50
     Davidson diagonalization with overlap
     ethr =  1.00E-06,  avg # of iterations =  2.0

     total cpu time spent up to now is       10.7 secs

     total energy              =     -87.84380902 Ry
     estimated scf accuracy    <       0.00001314 Ry

     total magnetization       =    -0.00 Bohr mag/cell
     absolute magnetization    =     0.00 Bohr mag/cell

     iteration #  2     ecut=    40.00 Ry     beta= 0.50
     Davidson diagonalization with overlap
     ethr =  1.19E-07,  avg # of iterations =  2.0

     total cpu time spent up to now is       11.1 secs

     total energy              =     -87.84382264 Ry
     estimated scf accuracy    <       0.00002242 Ry

     total magnetization       =     0.00 Bohr mag/cell
     absolute magnetization    =     0.00 Bohr mag/cell

     iteration #  3     ecut=    40.00 Ry     beta= 0.50
     Davidson diagonalization with overlap
     ethr =  1.19E-07,  avg # of iterations =  1.0

     total cpu time spent up to now is       11.4 secs

     total energy              =     -87.84382363 Ry
     estimated scf accuracy    <       0.00000395 Ry

     total magnetization       =     0.00 Bohr mag/cell
     absolute magnetization    =     0.00 Bohr mag/cell

     iteration #  4     ecut=    40.00 Ry     beta= 0.50
     Davidson diagonalization with overlap
     ethr =  3.59E-08,  avg # of iterations =  1.0

     total cpu time spent up to now is       11.7 secs

     total energy              =     -87.84382249 Ry
     estimated scf accuracy    <       0.00000254 Ry

     total magnetization       =     0.00 Bohr mag/cell
     absolute magnetization    =     0.00 Bohr mag/cell

     iteration #  5     ecut=    40.00 Ry     beta= 0.50
     Davidson diagonalization with overlap
     ethr =  2.31E-08,  avg # of iterations =  1.0

     total cpu time spent up to now is       12.0 secs

     total energy              =     -87.84382288 Ry
     estimated scf accuracy    <       0.00000002 Ry

     total magnetization       =     0.00 Bohr mag/cell
     absolute magnetization    =     0.00 Bohr mag/cell

     iteration #  6     ecut=    40.00 Ry     beta= 0.50
     Davidson diagonalization with overlap
     ethr =  1.74E-10,  avg # of iterations =  2.0

     total cpu time spent up to now is       12.4 secs

     total energy              =     -87.84382288 Ry
     estimated scf accuracy    <       0.00000008 Ry

     total magnetization       =    -0.00 Bohr mag/cell
     absolute magnetization    =     0.00 Bohr mag/cell

     iteration #  7     ecut=    40.00 Ry     beta= 0.50
     Davidson diagonalization with overlap
     ethr =  1.74E-10,  avg # of iterations =  2.0

     Magnetic moment per site  (integrated on atomic sphere of radius R)
     atom   1 (R=0.412)  charge=  9.7329  magn=  0.0000

     total cpu time spent up to now is       12.7 secs

     End of self-consistent calculation

     Number of k-points >= 100: set verbosity='high' to print the bands.

     the Fermi energy is    14.8668 ev

!    total energy              =     -87.84382289 Ry
     estimated scf accuracy    <          4.4E-11 Ry
     smearing contrib. (-TS)   =       0.00014452 Ry
     internal energy E=F+TS    =     -87.84396741 Ry

     The total energy is F=E-TS. E is the sum of the following terms:
     one-electron contribution =      -9.79498710 Ry
     hartree contribution      =      18.73741674 Ry
     xc contribution           =     -14.06124749 Ry
     ewald contribution        =     -82.72514957 Ry

     total magnetization       =    -0.00 Bohr mag/cell
     absolute magnetization    =     0.00 Bohr mag/cell

     convergence has been achieved in   7 iterations

     Forces acting on atoms (cartesian axes, Ry/au):

     atom    1 type  1   force =     0.00000000    0.00000000    0.00000000
     The non-local contrib.  to forces
     atom    1 type  1   force =    -0.00000000    0.00000000    0.00000000
     The ionic contribution  to forces
     atom    1 type  1   force =    -0.00000000   -0.00000000   -0.00000000
     The local contribution  to forces
     atom    1 type  1   force =     0.00000000   -0.00000000   -0.00000000
     The core correction contribution to forces
     atom    1 type  1   force =     0.00000000    0.00000000    0.00000000
     The Hubbard contrib.    to forces
     atom    1 type  1   force =     0.00000000    0.00000000    0.00000000
     The SCF correction term to forces
     atom    1 type  1   force =    -0.00000000   -0.00000000    0.00000000

     Total force =     0.000000     Total SCF correction =     0.000000


     Computing stress (Cartesian axis) and pressure

          total   stress  (Ry/bohr**3)                   (kbar)     P=        0.33
   0.00000228   0.00000000   0.00000000            0.33        0.00        0.00
   0.00000000   0.00000228   0.00000000            0.00        0.33        0.00
   0.00000000   0.00000000   0.00000228            0.00        0.00        0.33

     Energy error            =      1.1E-08 Ry
     Gradient error          =      0.0E+00 Ry/Bohr
     Cell gradient error     =      3.3E-01 kbar
Begin final coordinates
     new unit-cell volume =     75.39842 a.u.^3 (    11.17289 Ang^3 )
     density =      9.44434 g/cm^3

CELL_PARAMETERS (angstrom)
   0.000000000   1.774374232   1.774374232
   1.774374232   0.000000000   1.774374232
   1.774374232   1.774374232   0.000000000

ATOMIC_POSITIONS (angstrom)
Cu            0.0000000000        0.0000000000        0.0000000000
End final coordinates



     Writing config-only to output data dir /home/gridsan/epan1/labutil/lab3_samples/problem3/Lab3/Cu_a_3.5_ecut_40_nk_11/pwscf.save/

     lsda relaxation :  a final configuration with zero
                        absolute magnetization has been found

     the program is checking if it is really the minimum energy structure
     by performing a new scf iteration without any "electronic" history

     Initial potential from superposition of free atoms

     starting charge      10.9997, renormalised to      11.0000

     total cpu time spent up to now is       13.2 secs

     Self-consistent Calculation

     iteration #  1     ecut=    40.00 Ry     beta= 0.50
     Davidson diagonalization with overlap
     ethr =  1.00E-06,  avg # of iterations =  4.2

     total cpu time spent up to now is       13.8 secs

     total energy              =     -86.94102599 Ry
     estimated scf accuracy    <       1.49096376 Ry

     total magnetization       =     1.79 Bohr mag/cell
     absolute magnetization    =     1.92 Bohr mag/cell

     iteration #  2     ecut=    40.00 Ry     beta= 0.50
     Davidson diagonalization with overlap
     ethr =  1.00E-02,  avg # of iterations =  1.5

     total cpu time spent up to now is       14.1 secs

     total energy              =     -87.61205189 Ry
     estimated scf accuracy    <       0.77866378 Ry

     total magnetization       =     0.34 Bohr mag/cell
     absolute magnetization    =     0.49 Bohr mag/cell

     iteration #  3     ecut=    40.00 Ry     beta= 0.50
     Davidson diagonalization with overlap
     ethr =  7.08E-03,  avg # of iterations =  1.0

     negative rho (up, down):  0.000E+00 8.551E-07

     total cpu time spent up to now is       14.4 secs

     total energy              =     -87.79413759 Ry
     estimated scf accuracy    <       0.22268150 Ry

     total magnetization       =     0.34 Bohr mag/cell
     absolute magnetization    =     0.52 Bohr mag/cell

     iteration #  4     ecut=    40.00 Ry     beta= 0.50
     Davidson diagonalization with overlap
     ethr =  2.02E-03,  avg # of iterations =  1.5

     negative rho (up, down):  0.000E+00 1.897E-07

     total cpu time spent up to now is       14.7 secs

     total energy              =     -87.83052830 Ry
     estimated scf accuracy    <       0.04858891 Ry

     total magnetization       =    -0.02 Bohr mag/cell
     absolute magnetization    =     0.06 Bohr mag/cell

     iteration #  5     ecut=    40.00 Ry     beta= 0.50
     Davidson diagonalization with overlap
     ethr =  4.42E-04,  avg # of iterations =  1.2

     total cpu time spent up to now is       15.0 secs

     total energy              =     -87.84287512 Ry
     estimated scf accuracy    <       0.00157120 Ry

     total magnetization       =    -0.02 Bohr mag/cell
     absolute magnetization    =     0.02 Bohr mag/cell

     iteration #  6     ecut=    40.00 Ry     beta= 0.50
     Davidson diagonalization with overlap
     ethr =  1.43E-05,  avg # of iterations =  1.4

     total cpu time spent up to now is       15.3 secs

     total energy              =     -87.84371488 Ry
     estimated scf accuracy    <       0.00049547 Ry

     total magnetization       =     0.01 Bohr mag/cell
     absolute magnetization    =     0.04 Bohr mag/cell

     iteration #  7     ecut=    40.00 Ry     beta= 0.50
     Davidson diagonalization with overlap
     ethr =  4.50E-06,  avg # of iterations =  1.1

     total cpu time spent up to now is       15.6 secs

     total energy              =     -87.84381103 Ry
     estimated scf accuracy    <       0.00002082 Ry

     total magnetization       =    -0.00 Bohr mag/cell
     absolute magnetization    =     0.00 Bohr mag/cell

     iteration #  8     ecut=    40.00 Ry     beta= 0.50
     Davidson diagonalization with overlap
     ethr =  1.89E-07,  avg # of iterations =  1.6

     total cpu time spent up to now is       16.0 secs

     total energy              =     -87.84382168 Ry
     estimated scf accuracy    <       0.00000579 Ry

     total magnetization       =     0.00 Bohr mag/cell
     absolute magnetization    =     0.00 Bohr mag/cell

     iteration #  9     ecut=    40.00 Ry     beta= 0.50
     Davidson diagonalization with overlap
     ethr =  5.27E-08,  avg # of iterations =  1.1

     total cpu time spent up to now is       16.3 secs

     total energy              =     -87.84382288 Ry
     estimated scf accuracy    <       0.00000002 Ry

     total magnetization       =     0.00 Bohr mag/cell
     absolute magnetization    =     0.00 Bohr mag/cell

     iteration # 10     ecut=    40.00 Ry     beta= 0.50
     Davidson diagonalization with overlap
     ethr =  2.22E-10,  avg # of iterations =  2.3

     total cpu time spent up to now is       16.7 secs

     total energy              =     -87.84382289 Ry
     estimated scf accuracy    <          1.9E-09 Ry

     total magnetization       =     0.00 Bohr mag/cell
     absolute magnetization    =     0.00 Bohr mag/cell

     iteration # 11     ecut=    40.00 Ry     beta= 0.50
     Davidson diagonalization with overlap
     ethr =  1.70E-11,  avg # of iterations =  1.4

     total cpu time spent up to now is       17.1 secs

     total energy              =     -87.84382289 Ry
     estimated scf accuracy    <          1.4E-09 Ry

     total magnetization       =     0.00 Bohr mag/cell
     absolute magnetization    =     0.00 Bohr mag/cell

     iteration # 12     ecut=    40.00 Ry     beta= 0.50
     Davidson diagonalization with overlap
     ethr =  1.30E-11,  avg # of iterations =  1.1

     Magnetic moment per site  (integrated on atomic sphere of radius R)
     atom   1 (R=0.412)  charge=  9.7329  magn=  0.0000

     total cpu time spent up to now is       17.4 secs

     End of self-consistent calculation

     Number of k-points >= 100: set verbosity='high' to print the bands.

     the Fermi energy is    14.8669 ev

!    total energy              =     -87.84382289 Ry
     estimated scf accuracy    <          4.9E-12 Ry
     smearing contrib. (-TS)   =       0.00014451 Ry
     internal energy E=F+TS    =     -87.84396741 Ry

     The total energy is F=E-TS. E is the sum of the following terms:
     one-electron contribution =      -9.79495161 Ry
     hartree contribution      =      18.73737197 Ry
     xc contribution           =     -14.06123819 Ry
     ewald contribution        =     -82.72514957 Ry

     total magnetization       =    -0.00 Bohr mag/cell
     absolute magnetization    =     0.00 Bohr mag/cell

     convergence has been achieved in  12 iterations

     Forces acting on atoms (cartesian axes, Ry/au):

     atom    1 type  1   force =     0.00000000    0.00000000    0.00000000
     The non-local contrib.  to forces
     atom    1 type  1   force =    -0.00000000   -0.00000000   -0.00000000
     The ionic contribution  to forces
     atom    1 type  1   force =    -0.00000000   -0.00000000   -0.00000000
     The local contribution  to forces
     atom    1 type  1   force =    -0.00000000   -0.00000000   -0.00000000
     The core correction contribution to forces
     atom    1 type  1   force =     0.00000000    0.00000000    0.00000000
     The Hubbard contrib.    to forces
     atom    1 type  1   force =     0.00000000    0.00000000    0.00000000
     The SCF correction term to forces
     atom    1 type  1   force =    -0.00000000   -0.00000000    0.00000000

     Total force =     0.000000     Total SCF correction =     0.000000


     Computing stress (Cartesian axis) and pressure

          total   stress  (Ry/bohr**3)                   (kbar)     P=        0.14
   0.00000095  -0.00000000   0.00000000            0.14       -0.00        0.00
  -0.00000000   0.00000095   0.00000000           -0.00        0.14        0.00
   0.00000000   0.00000000   0.00000095            0.00        0.00        0.14

     Energy error            =      1.1E-08 Ry
     Gradient error          =      0.0E+00 Ry/Bohr
     Cell gradient error     =      1.4E-01 kbar

     bfgs converged in   4 scf cycles and   2 bfgs steps
     (criteria: energy <  1.0E-04 Ry, force <  1.0E-03 Ry/Bohr, cell <  5.0E-01 kbar)

     End of BFGS Geometry Optimization

     Final enthalpy           =     -87.8438228940 Ry

     File /home/gridsan/epan1/labutil/lab3_samples/problem3/Lab3/Cu_a_3.5_ecut_40_nk_11/pwscf.bfgs deleted, as requested
Begin final coordinates
     new unit-cell volume =     75.39842 a.u.^3 (    11.17289 Ang^3 )
     density =      9.44434 g/cm^3

CELL_PARAMETERS (angstrom)
   0.000000000   1.774374232   1.774374232
   1.774374232   0.000000000   1.774374232
   1.774374232   1.774374232   0.000000000

ATOMIC_POSITIONS (angstrom)
Cu            0.0000000000        0.0000000000        0.0000000000
End final coordinates



     Writing config-only to output data dir /home/gridsan/epan1/labutil/lab3_samples/problem3/Lab3/Cu_a_3.5_ecut_40_nk_11/pwscf.save/

     Final scf calculation at the relaxed structure.
     The G-vectors are recalculated for the final unit cell
     Results may differ from those at the preceding step.

     Parallelization info
     --------------------
     sticks:   dense  smooth     PW     G-vecs:    dense   smooth      PW
     Min          62      31     10                  922      329      66
     Max          63      32     11                  926      331      69
     Sum         499     253     85                 7391     2637     537

     Using Slab Decomposition



     bravais-lattice index     =            0
     lattice parameter (alat)  =       4.6768  a.u.
     unit-cell volume          =      75.3984 (a.u.)^3
     number of atoms/cell      =            1
     number of atomic types    =            1
     number of electrons       =        11.00
     number of Kohn-Sham states=           10
     kinetic-energy cutoff     =      40.0000  Ry
     charge density cutoff     =     320.0000  Ry
     scf convergence threshold =      1.0E-09
     mixing beta               =       0.5000
     number of iterations used =            8  plain     mixing
     press convergence thresh. =      5.0E-01
     Exchange-correlation=  SLA  PZ   NOGX NOGC
                           (   1   1   0   0   0   0   0)

     celldm(1)=   4.676834  celldm(2)=   0.000000  celldm(3)=   0.000000
     celldm(4)=   0.000000  celldm(5)=   0.000000  celldm(6)=   0.000000

     crystal axes: (cart. coord. in units of alat)
               a(1) = (   0.000000   0.716955   0.716955 )  
               a(2) = (   0.716955   0.000000   0.716955 )  
               a(3) = (   0.716955   0.716955   0.000000 )  

     reciprocal axes: (cart. coord. in units 2 pi/alat)
               b(1) = ( -0.697393  0.697393  0.697393 )  
               b(2) = (  0.697393 -0.697393  0.697393 )  
               b(3) = (  0.697393  0.697393 -0.697393 )  


     PseudoPot. # 1 for Cu read from file:
     /home/gridsan/epan1/labutil/lab3_samples/pseudopotentials/Cu.pz-d-rrkjus.UPF
     MD5 check sum: fd38ae683e239c95a66f426e1f8e5fc7
     Pseudo is Ultrasoft, Zval = 11.0
     Generated by new atomic code, or converted to UPF format
     Using radial grid of  899 points,  3 beta functions with: 
                l(1) =   2
                l(2) =   2
                l(3) =   1
     Q(r) pseudized with 0 coefficients 


     atomic species   valence    mass     pseudopotential
        Cu            11.00    63.54600     Cu( 1.00)

     Starting magnetic structure 
     atomic species   magnetization
        Cu           0.000

     48 Sym. Ops., with inversion, found



   Cartesian axes

     site n.     atom                  positions (alat units)
         1           Cu  tau(   1) = (   0.0000000   0.0000000   0.0000000  )

     number of k points=    56  Methfessel-Paxton smearing, width (Ry)=  0.0200
                       cart. coord. in units 2pi/alat
        k(    1) = (   0.0000000   0.0000000   0.0000000), wk =   0.0007513
        k(    2) = (   0.0633994   0.0633994  -0.0633994), wk =   0.0060105
        k(    3) = (   0.1267988   0.1267988  -0.1267988), wk =   0.0060105
        k(    4) = (   0.1901982   0.1901982  -0.1901982), wk =   0.0060105
        k(    5) = (   0.2535976   0.2535976  -0.2535976), wk =   0.0060105
        k(    6) = (   0.3169970   0.3169970  -0.3169970), wk =   0.0060105
        k(    7) = (   0.1267988   0.0000000   0.0000000), wk =   0.0045079
        k(    8) = (   0.1901982   0.0633994  -0.0633994), wk =   0.0180316
        k(    9) = (   0.2535976   0.1267988  -0.1267988), wk =   0.0180316
        k(   10) = (   0.3169970   0.1901982  -0.1901982), wk =   0.0180316
        k(   11) = (   0.3803964   0.2535976  -0.2535976), wk =   0.0180316
        k(   12) = (  -0.2535976  -0.3803964   0.3803964), wk =   0.0180316
        k(   13) = (  -0.1901982  -0.3169970   0.3169970), wk =   0.0180316
        k(   14) = (  -0.1267988  -0.2535976   0.2535976), wk =   0.0180316
        k(   15) = (  -0.0633994  -0.1901982   0.1901982), wk =   0.0180316
        k(   16) = (  -0.0000000  -0.1267988   0.1267988), wk =   0.0090158
        k(   17) = (   0.2535976   0.0000000   0.0000000), wk =   0.0045079
        k(   18) = (   0.3169970   0.0633994  -0.0633994), wk =   0.0180316
        k(   19) = (   0.3803964   0.1267988  -0.1267988), wk =   0.0180316
        k(   20) = (   0.4437958   0.1901982  -0.1901982), wk =   0.0180316
        k(   21) = (  -0.1901982  -0.4437958   0.4437958), wk =   0.0180316
        k(   22) = (  -0.1267988  -0.3803964   0.3803964), wk =   0.0180316
        k(   23) = (  -0.0633994  -0.3169970   0.3169970), wk =   0.0180316
        k(   24) = (   0.0000000  -0.2535976   0.2535976), wk =   0.0090158
        k(   25) = (   0.3803964   0.0000000   0.0000000), wk =   0.0045079
        k(   26) = (   0.4437958   0.0633994  -0.0633994), wk =   0.0180316
        k(   27) = (   0.5071952   0.1267988  -0.1267988), wk =   0.0180316
        k(   28) = (  -0.1267988  -0.5071952   0.5071952), wk =   0.0180316
        k(   29) = (  -0.0633994  -0.4437958   0.4437958), wk =   0.0180316
        k(   30) = (   0.0000000  -0.3803964   0.3803964), wk =   0.0090158
        k(   31) = (   0.5071952   0.0000000   0.0000000), wk =   0.0045079
        k(   32) = (   0.5705946   0.0633994  -0.0633994), wk =   0.0180316
        k(   33) = (  -0.0633994  -0.5705946   0.5705946), wk =   0.0180316
        k(   34) = (   0.0000000  -0.5071952   0.5071952), wk =   0.0090158
        k(   35) = (   0.6339940   0.0000000   0.0000000), wk =   0.0045079
        k(   36) = (  -0.0000000  -0.6339940   0.6339940), wk =   0.0090158
        k(   37) = (   0.2535976   0.1267988   0.0000000), wk =   0.0180316
        k(   38) = (   0.3169970   0.1901982  -0.0633994), wk =   0.0360631
        k(   39) = (   0.3803964   0.2535976  -0.1267988), wk =   0.0360631
        k(   40) = (  -0.2535976  -0.3803964   0.5071952), wk =   0.0360631
        k(   41) = (   0.3803964   0.1267988  -0.0000000), wk =   0.0180316
        k(   42) = (   0.4437958   0.1901982  -0.0633994), wk =   0.0360631
        k(   43) = (  -0.1901982  -0.4437958   0.5705946), wk =   0.0360631
        k(   44) = (  -0.1267988  -0.3803964   0.5071952), wk =   0.0360631
        k(   45) = (  -0.0633994  -0.3169970   0.4437958), wk =   0.0360631
        k(   46) = (  -0.0000000  -0.2535976   0.3803964), wk =   0.0180316
        k(   47) = (   0.5071952   0.1267988   0.0000000), wk =   0.0180316
        k(   48) = (  -0.1267988  -0.5071952   0.6339940), wk =   0.0360631
        k(   49) = (  -0.0633994  -0.4437958   0.5705946), wk =   0.0360631
        k(   50) = (   0.0000000  -0.3803964   0.5071952), wk =   0.0180316
        k(   51) = (  -0.0633994  -0.5705946   0.6973934), wk =   0.0180316
        k(   52) = (   0.0000000  -0.5071952   0.6339940), wk =   0.0180316
        k(   53) = (  -0.1901982  -0.4437958   0.6973934), wk =   0.0180316
        k(   54) = (  -0.1267988  -0.3803964   0.6339940), wk =   0.0360631
        k(   55) = (  -0.0633994  -0.4437958   0.6973934), wk =   0.0180316
        k(   56) = (   0.0000000  -0.3803964   0.6339940), wk =   0.0180316

     Dense  grid:     7391 G-vectors     FFT dimensions: (  27,  27,  27)

     Smooth grid:     2637 G-vectors     FFT dimensions: (  20,  20,  20)

     Estimated max dynamical RAM per process >       4.22 MB

     Estimated total dynamical RAM >      33.78 MB
     Generating pointlists ...

     Initial potential from superposition of free atoms

     starting charge      10.9997, renormalised to      11.0000
     Starting wfcs are    6 randomized atomic wfcs +    4 random wfcs

     total cpu time spent up to now is       17.8 secs

     Self-consistent Calculation

     iteration #  1     ecut=    40.00 Ry     beta= 0.50
     Davidson diagonalization with overlap
     c_bands:  1 eigenvalues not converged
     c_bands:  1 eigenvalues not converged
     ethr =  1.00E-06,  avg # of iterations = 13.0

     total cpu time spent up to now is       18.9 secs

     total energy              =     -87.76338326 Ry
     estimated scf accuracy    <       0.24421970 Ry

     total magnetization       =     0.00 Bohr mag/cell
     absolute magnetization    =     0.00 Bohr mag/cell

     iteration #  2     ecut=    40.00 Ry     beta= 0.50
     Davidson diagonalization with overlap
     ethr =  2.22E-03,  avg # of iterations =  1.6

     total cpu time spent up to now is       19.2 secs

     total energy              =     -87.83735238 Ry
     estimated scf accuracy    <       0.03744559 Ry

     total magnetization       =    -0.00 Bohr mag/cell
     absolute magnetization    =     0.00 Bohr mag/cell

     iteration #  3     ecut=    40.00 Ry     beta= 0.50
     Davidson diagonalization with overlap
     ethr =  3.40E-04,  avg # of iterations =  1.0

     total cpu time spent up to now is       19.5 secs

     total energy              =     -87.84375762 Ry
     estimated scf accuracy    <       0.00019706 Ry

     total magnetization       =     0.00 Bohr mag/cell
     absolute magnetization    =     0.00 Bohr mag/cell

     iteration #  4     ecut=    40.00 Ry     beta= 0.50
     Davidson diagonalization with overlap
     ethr =  1.79E-06,  avg # of iterations =  2.3

     total cpu time spent up to now is       19.9 secs

     total energy              =     -87.84382453 Ry
     estimated scf accuracy    <       0.00006808 Ry

     total magnetization       =     0.00 Bohr mag/cell
     absolute magnetization    =     0.00 Bohr mag/cell

     iteration #  5     ecut=    40.00 Ry     beta= 0.50
     Davidson diagonalization with overlap
     ethr =  6.19E-07,  avg # of iterations =  1.0

     total cpu time spent up to now is       20.2 secs

     total energy              =     -87.84383611 Ry
     estimated scf accuracy    <       0.00000004 Ry

     total magnetization       =     0.00 Bohr mag/cell
     absolute magnetization    =     0.00 Bohr mag/cell

     iteration #  6     ecut=    40.00 Ry     beta= 0.50
     Davidson diagonalization with overlap
     ethr =  3.22E-10,  avg # of iterations =  3.1

     total cpu time spent up to now is       20.6 secs

     total energy              =     -87.84383617 Ry
     estimated scf accuracy    <       0.00000007 Ry

     total magnetization       =     0.00 Bohr mag/cell
     absolute magnetization    =     0.00 Bohr mag/cell

     iteration #  7     ecut=    40.00 Ry     beta= 0.50
     Davidson diagonalization with overlap
     ethr =  3.22E-10,  avg # of iterations =  1.0

     total cpu time spent up to now is       20.9 secs

     total energy              =     -87.84383618 Ry
     estimated scf accuracy    <          2.5E-09 Ry

     total magnetization       =    -0.00 Bohr mag/cell
     absolute magnetization    =     0.00 Bohr mag/cell

     iteration #  8     ecut=    40.00 Ry     beta= 0.50
     Davidson diagonalization with overlap
     ethr =  2.31E-11,  avg # of iterations =  1.3

     Magnetic moment per site  (integrated on atomic sphere of radius R)
     atom   1 (R=0.412)  charge=  9.7329  magn=  0.0000

     total cpu time spent up to now is       21.3 secs

     End of self-consistent calculation

     Number of k-points >= 100: set verbosity='high' to print the bands.

     the Fermi energy is    14.8668 ev

!    total energy              =     -87.84383618 Ry
     estimated scf accuracy    <          2.4E-12 Ry
     smearing contrib. (-TS)   =       0.00014453 Ry
     internal energy E=F+TS    =     -87.84398071 Ry

     The total energy is F=E-TS. E is the sum of the following terms:
     one-electron contribution =      -9.79492318 Ry
     hartree contribution      =      18.73730397 Ry
     xc contribution           =     -14.06121193 Ry
     ewald contribution        =     -82.72514957 Ry

     total magnetization       =    -0.00 Bohr mag/cell
     absolute magnetization    =     0.00 Bohr mag/cell

     convergence has been achieved in   8 iterations

     Forces acting on atoms (cartesian axes, Ry/au):

     atom    1 type  1   force =     0.00000000    0.00000000    0.00000000
     The non-local contrib.  to forces
     atom    1 type  1   force =     0.00000000    0.00000000    0.00000000
     The ionic contribution  to forces
     atom    1 type  1   force =    -0.00000000   -0.00000000   -0.00000000
     The local contribution  to forces
     atom    1 type  1   force =    -0.00000000   -0.00000000    0.00000000
     The core correction contribution to forces
     atom    1 type  1   force =     0.00000000    0.00000000    0.00000000
     The Hubbard contrib.    to forces
     atom    1 type  1   force =     0.00000000    0.00000000    0.00000000
     The SCF correction term to forces
     atom    1 type  1   force =     0.00000000    0.00000000   -0.00000000

     Total force =     0.000000     Total SCF correction =     0.000000


     Computing stress (Cartesian axis) and pressure

          total   stress  (Ry/bohr**3)                   (kbar)     P=        0.28
   0.00000190  -0.00000000  -0.00000000            0.28       -0.00       -0.00
  -0.00000000   0.00000190  -0.00000000           -0.00        0.28       -0.00
  -0.00000000  -0.00000000   0.00000190           -0.00       -0.00        0.28


     init_run     :      0.42s CPU      0.50s WALL (       2 calls)
     electrons    :     18.30s CPU     19.25s WALL (       6 calls)
     update_pot   :      0.23s CPU      0.21s WALL (       3 calls)
     forces       :      0.37s CPU      0.31s WALL (       6 calls)
     stress       :      0.79s CPU      0.72s WALL (       6 calls)

     Called by init_run:
     wfcinit      :      0.12s CPU      0.15s WALL (       2 calls)
     potinit      :      0.14s CPU      0.15s WALL (       3 calls)
     hinit0       :      0.16s CPU      0.18s WALL (       2 calls)

     Called by electrons:
     c_bands      :     15.66s CPU     16.88s WALL (      54 calls)
     sum_band     :      2.20s CPU      1.98s WALL (      54 calls)
     v_of_rho     :      0.13s CPU      0.13s WALL (      60 calls)
     newd         :      0.14s CPU      0.12s WALL (      60 calls)
     mix_rho      :      0.13s CPU      0.10s WALL (      54 calls)

     Called by c_bands:
     init_us_2    :      0.31s CPU      0.30s WALL (   13664 calls)
     init_us_2:cp :      0.29s CPU      0.28s WALL (   13664 calls)
     cegterg      :     12.86s CPU     12.56s WALL (    6048 calls)

     Called by *egterg:
     cdiaghg      :      3.17s CPU      3.06s WALL (   16738 calls)
     h_psi        :      7.29s CPU      7.19s WALL (   17410 calls)
     s_psi        :      0.12s CPU      0.12s WALL (   17410 calls)
     g_psi        :      0.04s CPU      0.04s WALL (   11138 calls)

     Called by h_psi:
     h_psi:calbec :      0.72s CPU      0.71s WALL (   17410 calls)
     vloc_psi     :      6.33s CPU      6.25s WALL (   17410 calls)
     add_vuspsi   :      0.13s CPU      0.13s WALL (   17410 calls)

     General routines
     calbec       :      1.26s CPU      1.20s WALL (   26818 calls)
     fft          :      0.24s CPU      0.22s WALL (     668 calls)
     ffts         :      0.13s CPU      0.13s WALL (     228 calls)
     fftw         :      6.38s CPU      6.20s WALL (  353716 calls)
     interpolate  :      0.15s CPU      0.15s WALL (     120 calls)

     Parallel routines

     PWSCF        :     20.37s CPU     21.44s WALL


   This run was terminated on:  10:56: 8   3Nov2023            

=------------------------------------------------------------------------------=
   JOB DONE.
=------------------------------------------------------------------------------=
