
     Program PWSCF v.7.2 starts on 31Oct2023 at 10:20:31 

     This program is part of the open-source Quantum ESPRESSO suite
     for quantum simulation of materials; please cite
         "P. Giannozzi et al., J. Phys.:Condens. Matter 21 395502 (2009);
         "P. Giannozzi et al., J. Phys.:Condens. Matter 29 465901 (2017);
         "P. Giannozzi et al., J. Chem. Phys. 152 154105 (2020);
          URL http://www.quantum-espresso.org", 
     in publications or presentations arising from this work. More details at
     http://www.quantum-espresso.org/quote

     Parallel version (MPI), running on     4 processors

     MPI processes distributed on     4 nodes
     186360 MiB available memory on the printing compute node when the environment starts

     Waiting for input...
     Reading input from standard input

     Current dimensions of program PWSCF are:
     Max number of different atomic species (ntypx) = 10
     Max number of k-points (npk) =  40000
     Max angular momentum in pseudopotentials (lmaxx) =  4
     file Fe.pbe-nd-rrkjus.UPF: wavefunction(s)  4S renormalized
     Message from routine setup:
     using ibrav=0 with symmetry is DISCOURAGED, use correct ibrav instead

     R & G space division:  proc/nbgrp/npool/nimage =       4
     Subspace diagonalization in iterative solution of the eigenvalue problem:
     a serial algorithm will be used


     Parallelization info
     --------------------
     sticks:   dense  smooth     PW     G-vecs:    dense   smooth      PW
     Min          95      45     22                 1181      400     138
     Max          96      46     23                 1183      401     139
     Sum         383     181     91                 4729     1601     555

     Using Slab Decomposition



     bravais-lattice index     =            0
     lattice parameter (alat)  =       4.5899  a.u.
     unit-cell volume          =      74.4385 (a.u.)^3
     number of atoms/cell      =            1
     number of atomic types    =            1
     number of electrons       =         8.00
     number of Kohn-Sham states=            8
     kinetic-energy cutoff     =      30.0000  Ry
     charge density cutoff     =     240.0000  Ry
     scf convergence threshold =      1.0E-07
     mixing beta               =       0.5000
     number of iterations used =            8  plain     mixing
     energy convergence thresh.=      1.0E-04
     force convergence thresh. =      1.0E-03
     press convergence thresh. =      5.0E-01
     Exchange-correlation=  SLA  PW   PBE  PBE
                           (   1   4   3   4   0   0   0)
     nstep                     =           50


     celldm(1)=   4.589935  celldm(2)=   0.000000  celldm(3)=   0.000000
     celldm(4)=   0.000000  celldm(5)=   0.000000  celldm(6)=   0.000000

     crystal axes: (cart. coord. in units of alat)
               a(1) = (  -0.577350   0.577350   0.577350 )  
               a(2) = (   0.577350  -0.577350   0.577350 )  
               a(3) = (   0.577350   0.577350  -0.577350 )  

     reciprocal axes: (cart. coord. in units 2 pi/alat)
               b(1) = (  0.000000  0.866025  0.866025 )  
               b(2) = (  0.866025  0.000000  0.866025 )  
               b(3) = (  0.866025  0.866025  0.000000 )  


     PseudoPot. # 1 for Fe read from file:
     /home/gridsan/epan1/labutil/lab3_samples/pseudopotentials/Fe.pbe-nd-rrkjus.UPF
     MD5 check sum: 398036227a04b607635f6f5e8dfd8242
     Pseudo is Ultrasoft + core correction, Zval =  8.0
     Generated by new atomic code, or converted to UPF format
     Using radial grid of  957 points,  6 beta functions with: 
                l(1) =   0
                l(2) =   0
                l(3) =   1
                l(4) =   1
                l(5) =   2
                l(6) =   2
     Q(r) pseudized with 0 coefficients 


     atomic species   valence    mass     pseudopotential
        Fe             8.00    55.84500     Fe( 1.00)

     Starting magnetic structure 
     atomic species   magnetization
        Fe           0.700

     48 Sym. Ops., with inversion, found



   Cartesian axes

     site n.     atom                  positions (alat units)
         1           Fe  tau(   1) = (   0.0000000   0.0000000   0.0000000  )

     number of k points=    16  Methfessel-Paxton smearing, width (Ry)=  0.0200
                       cart. coord. in units 2pi/alat
        k(    1) = (   0.0000000   0.0000000   0.0000000), wk =   0.0046296
        k(    2) = (   0.1443376   0.1443376   0.0000000), wk =   0.0555556
        k(    3) = (   0.2886751   0.2886751   0.0000000), wk =   0.0555556
        k(    4) = (  -0.4330127  -0.4330127   0.0000000), wk =   0.0277778
        k(    5) = (   0.2886751   0.1443376   0.1443376), wk =   0.1111111
        k(    6) = (   0.4330127   0.2886751   0.1443376), wk =   0.2222222
        k(    7) = (   0.5773503   0.2886751   0.2886751), wk =   0.0370370
        k(    8) = (   0.2886751   0.2886751   0.2886751), wk =   0.0370370
        k(    9) = (   0.4330127   0.4330127   0.2886751), wk =   0.0555556
        k(   10) = (   0.0000000   0.0000000   0.2886751), wk =   0.0277778
        k(   11) = (  -0.0000000  -0.1443376   0.4330127), wk =   0.1111111
        k(   12) = (  -0.8660254  -0.2886751  -0.2886751), wk =   0.0555556
        k(   13) = (  -0.7216878  -0.1443376  -0.2886751), wk =   0.1111111
        k(   14) = (  -0.0000000  -0.0000000   0.5773503), wk =   0.0277778
        k(   15) = (  -0.8660254  -0.1443376  -0.1443376), wk =   0.0555556
        k(   16) = (  -0.8660254  -0.8660254  -0.8660254), wk =   0.0046296

     Dense  grid:     4729 G-vectors     FFT dimensions: (  24,  24,  24)

     Smooth grid:     1601 G-vectors     FFT dimensions: (  15,  15,  15)

     Estimated max dynamical RAM per process >       7.58 MB

     Estimated total dynamical RAM >      30.32 MB
     Generating pointlists ...
     new r_m :   0.4125 (alat units)  1.8933 (a.u.) for type    1

     Initial potential from superposition of free atoms

     starting charge       7.9994, renormalised to       8.0000
     Starting wfcs are    6 randomized atomic wfcs +    2 random wfcs

     total cpu time spent up to now is        0.5 secs

     Self-consistent Calculation

     iteration #  1     ecut=    30.00 Ry     beta= 0.50
     Davidson diagonalization with overlap
     ethr =  1.00E-02,  avg # of iterations =  4.8

     total cpu time spent up to now is        0.6 secs

     total energy              =     -55.68059604 Ry
     estimated scf accuracy    <       0.33276252 Ry

     total magnetization       =     2.83 Bohr mag/cell
     absolute magnetization    =     2.83 Bohr mag/cell

     iteration #  2     ecut=    30.00 Ry     beta= 0.50
     Davidson diagonalization with overlap
     ethr =  4.16E-03,  avg # of iterations =  1.7

     total cpu time spent up to now is        0.6 secs

     total energy              =     -55.77172824 Ry
     estimated scf accuracy    <       0.04431488 Ry

     total magnetization       =     2.76 Bohr mag/cell
     absolute magnetization    =     2.77 Bohr mag/cell

     iteration #  3     ecut=    30.00 Ry     beta= 0.50
     Davidson diagonalization with overlap
     ethr =  5.54E-04,  avg # of iterations =  1.6

     total cpu time spent up to now is        0.7 secs

     total energy              =     -55.79411935 Ry
     estimated scf accuracy    <       0.00741359 Ry

     total magnetization       =     2.69 Bohr mag/cell
     absolute magnetization    =     2.73 Bohr mag/cell

     iteration #  4     ecut=    30.00 Ry     beta= 0.50
     Davidson diagonalization with overlap
     ethr =  9.27E-05,  avg # of iterations =  2.7

     total cpu time spent up to now is        0.8 secs

     total energy              =     -55.80228291 Ry
     estimated scf accuracy    <       0.00222407 Ry

     total magnetization       =     2.32 Bohr mag/cell
     absolute magnetization    =     2.47 Bohr mag/cell

     iteration #  5     ecut=    30.00 Ry     beta= 0.50
     Davidson diagonalization with overlap
     ethr =  2.78E-05,  avg # of iterations =  3.1

     total cpu time spent up to now is        0.9 secs

     total energy              =     -55.80285593 Ry
     estimated scf accuracy    <       0.00119841 Ry

     total magnetization       =     2.28 Bohr mag/cell
     absolute magnetization    =     2.43 Bohr mag/cell

     iteration #  6     ecut=    30.00 Ry     beta= 0.50
     Davidson diagonalization with overlap
     ethr =  1.50E-05,  avg # of iterations =  1.6

     total cpu time spent up to now is        1.0 secs

     total energy              =     -55.80351615 Ry
     estimated scf accuracy    <       0.00093570 Ry

     total magnetization       =     2.26 Bohr mag/cell
     absolute magnetization    =     2.41 Bohr mag/cell

     iteration #  7     ecut=    30.00 Ry     beta= 0.50
     Davidson diagonalization with overlap
     ethr =  1.17E-05,  avg # of iterations =  1.1

     total cpu time spent up to now is        1.0 secs

     total energy              =     -55.80379433 Ry
     estimated scf accuracy    <       0.00006150 Ry

     total magnetization       =     2.22 Bohr mag/cell
     absolute magnetization    =     2.37 Bohr mag/cell

     iteration #  8     ecut=    30.00 Ry     beta= 0.50
     Davidson diagonalization with overlap
     ethr =  7.69E-07,  avg # of iterations =  4.1

     total cpu time spent up to now is        1.2 secs

     total energy              =     -55.80383956 Ry
     estimated scf accuracy    <       0.00002132 Ry

     total magnetization       =     2.22 Bohr mag/cell
     absolute magnetization    =     2.36 Bohr mag/cell

     iteration #  9     ecut=    30.00 Ry     beta= 0.50
     Davidson diagonalization with overlap
     ethr =  2.67E-07,  avg # of iterations =  1.7

     total cpu time spent up to now is        1.2 secs

     total energy              =     -55.80384220 Ry
     estimated scf accuracy    <       0.00000108 Ry

     total magnetization       =     2.22 Bohr mag/cell
     absolute magnetization    =     2.36 Bohr mag/cell

     iteration # 10     ecut=    30.00 Ry     beta= 0.50
     Davidson diagonalization with overlap
     ethr =  1.35E-08,  avg # of iterations =  4.6

     total cpu time spent up to now is        1.4 secs

     total energy              =     -55.80384413 Ry
     estimated scf accuracy    <       0.00000070 Ry

     total magnetization       =     2.22 Bohr mag/cell
     absolute magnetization    =     2.36 Bohr mag/cell

     iteration # 11     ecut=    30.00 Ry     beta= 0.50
     Davidson diagonalization with overlap
     ethr =  8.74E-09,  avg # of iterations =  1.1

     Magnetic moment per site  (integrated on atomic sphere of radius R)
     atom   1 (R=0.413)  charge=  6.4401  magn=  2.2810

     total cpu time spent up to now is        1.5 secs

     End of self-consistent calculation

 ------ SPIN UP ------------


          k = 0.0000 0.0000 0.0000 (   201 PWs)   bands (ev):

     5.5454  11.6637  11.6637  11.6637  12.9361  12.9361  39.1162  39.1163

          k = 0.1443 0.1443 0.0000 (   201 PWs)   bands (ev):

     6.6790  11.3656  11.5908  12.2777  12.7424  12.9662  34.1421  37.3539

          k = 0.2887 0.2887 0.0000 (   194 PWs)   bands (ev):

     8.7573  10.8031  12.1082  12.9298  13.0657  13.6666  26.5017  34.0155

          k =-0.4330-0.4330 0.0000 (   194 PWs)   bands (ev):

     8.9785  10.5371  13.0085  13.1368  14.4721  14.7515  21.7410  32.6499

          k = 0.2887 0.1443 0.1443 (   204 PWs)   bands (ev):

     8.5154  11.0447  11.1644  12.6509  13.1456  13.6299  30.3447  31.4270

          k = 0.4330 0.2887 0.1443 (   203 PWs)   bands (ev):

     9.5433  10.6612  11.7992  12.9356  13.4470  16.3319  23.6460  28.7836

          k = 0.5774 0.2887 0.2887 (   210 PWs)   bands (ev):

    10.2437  10.8669  10.8669  13.2529  13.2529  21.1564  21.1565  23.8788

          k = 0.2887 0.2887 0.2887 (   204 PWs)   bands (ev):

    10.3587  10.5923  10.5923  13.0738  13.0738  16.2677  27.5413  27.5413

          k = 0.4330 0.4330 0.2887 (   210 PWs)   bands (ev):

    10.2389  10.4796  11.4593  13.1424  13.1644  19.8130  22.2808  26.5411

          k = 0.0000 0.0000 0.2887 (   205 PWs)   bands (ev):

     7.6969  11.7645  11.7645  11.9382  12.2703  13.3590  33.8061  35.5455

          k =-0.0000-0.1443 0.4330 (   210 PWs)   bands (ev):

     9.4329  10.9930  11.4695  12.4937  13.5526  14.5188  27.2633  32.1992

          k =-0.8660-0.2887-0.2887 (   208 PWs)   bands (ev):

     9.5144  11.1732  11.2578  12.6188  14.4002  17.5483  21.9302  30.6998

          k =-0.7217-0.1443-0.2887 (   209 PWs)   bands (ev):

    10.1496  10.1834  11.4766  13.0400  13.8553  18.3918  24.5460  25.4903

          k =-0.0000-0.0000 0.5774 (   212 PWs)   bands (ev):

     9.7291   9.9682  12.8507  12.8507  13.5332  17.1740  28.1373  28.1373

          k =-0.8660-0.1443-0.1443 (   212 PWs)   bands (ev):

     9.4524   9.5688  13.0160  13.3124  14.2584  21.5065  22.9361  26.3649

          k =-0.8660-0.8660-0.8660 (   236 PWs)   bands (ev):

     9.0209   9.0209  14.1878  14.1878  14.1878  24.3782  24.3782  24.3782

 ------ SPIN DOWN ----------


          k = 0.0000 0.0000 0.0000 (   201 PWs)   bands (ev):

     5.6312  13.8293  13.8293  13.8293  15.9551  15.9551  38.8340  38.8340

          k = 0.1443 0.1443 0.0000 (   201 PWs)   bands (ev):

     6.7830  13.4629  13.6938  14.5061  15.6548  15.9916  34.5052  37.3350

          k = 0.2887 0.2887 0.0000 (   194 PWs)   bands (ev):

     9.3927  12.7831  13.4807  15.6859  16.0677  16.1306  27.4129  34.0355

          k =-0.4330-0.4330 0.0000 (   194 PWs)   bands (ev):

    10.3692  12.4662  14.7736  15.8182  16.2373  17.0009  23.2235  32.6175

          k = 0.2887 0.1443 0.1443 (   204 PWs)   bands (ev):

     8.7779  13.0612  13.1112  15.4391  15.8210  16.2323  30.9762  31.9526

          k = 0.4330 0.2887 0.1443 (   203 PWs)   bands (ev):

    10.8317  12.5468  13.2368  15.6933  16.2917  18.1062  24.7501  29.3546

          k = 0.5774 0.2887 0.2887 (   210 PWs)   bands (ev):

    11.9450  12.5060  12.5060  16.0253  16.0253  22.3157  22.3157  24.7913

          k = 0.2887 0.2887 0.2887 (   204 PWs)   bands (ev):

    11.0177  12.4001  12.4001  16.0904  16.0904  18.1790  28.2425  28.2426

          k = 0.4330 0.4330 0.2887 (   210 PWs)   bands (ev):

    11.7436  12.2023  12.8192  16.1493  16.2747  20.9841  23.4393  27.2447

          k = 0.0000 0.0000 0.2887 (   205 PWs)   bands (ev):

     7.8489  13.8612  13.8612  14.5073  14.6332  16.3956  34.1591  36.0575

          k =-0.0000-0.1443 0.4330 (   210 PWs)   bands (ev):

    10.2011  13.0596  13.5019  14.8580  15.9347  16.9452  28.1166  32.8007

          k =-0.8660-0.2887-0.2887 (   208 PWs)   bands (ev):

    11.1091  12.9495  13.2503  15.1137  16.9191  18.8067  23.2721  31.2360

          k =-0.7217-0.1443-0.2887 (   209 PWs)   bands (ev):

    11.7055  12.1739  13.4595  15.3958  16.3257  19.7987  25.5352  26.2251

          k =-0.0000-0.0000 0.5774 (   212 PWs)   bands (ev):

    11.2157  12.1335  15.0071  15.0071  15.9322  18.6138  28.6828  28.6829

          k =-0.8660-0.1443-0.1443 (   212 PWs)   bands (ev):

    11.4244  11.4785  15.2334  15.5399  16.7581  22.3019  23.7388  26.7832

          k =-0.8660-0.8660-0.8660 (   236 PWs)   bands (ev):

    10.9816  10.9816  16.6779  16.6779  16.6779  24.5705  24.5705  24.5705

     the Fermi energy is    14.1006 ev

!    total energy              =     -55.80384430 Ry
     estimated scf accuracy    <       0.00000007 Ry
     smearing contrib. (-TS)   =       0.00069592 Ry
     internal energy E=F+TS    =     -55.80454022 Ry

     The total energy is F=E-TS. E is the sum of the following terms:
     one-electron contribution =       8.26425608 Ry
     hartree contribution      =       6.34832164 Ry
     xc contribution           =     -26.47166057 Ry
     ewald contribution        =     -43.94545736 Ry

     total magnetization       =     2.22 Bohr mag/cell
     absolute magnetization    =     2.36 Bohr mag/cell

     convergence has been achieved in  11 iterations

     Forces acting on atoms (cartesian axes, Ry/au):

     atom    1 type  1   force =     0.00000000    0.00000000    0.00000000
     The non-local contrib.  to forces
     atom    1 type  1   force =     0.00000000    0.00000000    0.00000000
     The ionic contribution  to forces
     atom    1 type  1   force =    -0.00000000   -0.00000000   -0.00000000
     The local contribution  to forces
     atom    1 type  1   force =    -0.00000000    0.00000000   -0.00000000
     The core correction contribution to forces
     atom    1 type  1   force =     0.00000000    0.00000000    0.00000000
     The Hubbard contrib.    to forces
     atom    1 type  1   force =     0.00000000    0.00000000    0.00000000
     The SCF correction term to forces
     atom    1 type  1   force =    -0.00000000   -0.00000000    0.00000000

     Total force =     0.000000     Total SCF correction =     0.000000


     Computing stress (Cartesian axis) and pressure

          total   stress  (Ry/bohr**3)                   (kbar)     P=       66.86
   0.00045453   0.00000000  -0.00000000           66.86        0.00       -0.00
   0.00000000   0.00045453  -0.00000000            0.00       66.86       -0.00
   0.00000000   0.00000000   0.00045453            0.00        0.00       66.86


     BFGS Geometry Optimization
     Energy error            =      0.0E+00 Ry
     Gradient error          =      0.0E+00 Ry/Bohr
     Cell gradient error     =      6.7E+01 kbar

     number of scf cycles    =   1
     number of bfgs steps    =   0

     enthalpy           new  =     -55.8038443011 Ry

     new trust radius        =       0.0196080691 bohr
     new conv_thr            =       0.0000001000 Ry

     new unit-cell volume =     77.00507 a.u.^3 (    11.41097 Ang^3 )
     density =      8.12663 g/cm^3

CELL_PARAMETERS (angstrom)
  -1.418254745   1.418254745   1.418254745
   1.418254745  -1.418254745   1.418254745
   1.418254745   1.418254745  -1.418254745

ATOMIC_POSITIONS (angstrom)
Fe            0.0000000000        0.0000000000        0.0000000000



     Writing config-only to output data dir /home/gridsan/epan1/labutil/lab3_samples/problem1/Lab3/Fe_bcc_a_2.8046394196999995_ecut_30_nk_6/pwscf.save/
     NEW-OLD atomic charge density approx. for the potential
     extrapolated charge    8.26662, renormalised to    8.00000
     Generating pointlists ...

     total cpu time spent up to now is        1.7 secs

     Self-consistent Calculation

     iteration #  1     ecut=    30.00 Ry     beta= 0.50
     Davidson diagonalization with overlap
     ethr =  1.00E-06,  avg # of iterations =  5.2

     total cpu time spent up to now is        1.9 secs

     total energy              =     -55.74956516 Ry
     estimated scf accuracy    <       0.05682475 Ry

     total magnetization       =     2.18 Bohr mag/cell
     absolute magnetization    =     2.30 Bohr mag/cell

     iteration #  2     ecut=    30.00 Ry     beta= 0.50
     Davidson diagonalization with overlap
     ethr =  7.10E-04,  avg # of iterations =  2.4

     total cpu time spent up to now is        2.0 secs

     total energy              =     -55.80034896 Ry
     estimated scf accuracy    <       0.11869279 Ry

     total magnetization       =     2.35 Bohr mag/cell
     absolute magnetization    =     2.47 Bohr mag/cell

     iteration #  3     ecut=    30.00 Ry     beta= 0.50
     Davidson diagonalization with overlap
     ethr =  7.10E-04,  avg # of iterations =  1.1

     total cpu time spent up to now is        2.0 secs

     total energy              =     -55.80272325 Ry
     estimated scf accuracy    <       0.01705168 Ry

     total magnetization       =     2.24 Bohr mag/cell
     absolute magnetization    =     2.40 Bohr mag/cell

     iteration #  4     ecut=    30.00 Ry     beta= 0.50
     Davidson diagonalization with overlap
     ethr =  2.13E-04,  avg # of iterations =  1.3

     total cpu time spent up to now is        2.1 secs

     total energy              =     -55.80384621 Ry
     estimated scf accuracy    <       0.00129282 Ry

     total magnetization       =     2.23 Bohr mag/cell
     absolute magnetization    =     2.38 Bohr mag/cell

     iteration #  5     ecut=    30.00 Ry     beta= 0.50
     Davidson diagonalization with overlap
     ethr =  1.62E-05,  avg # of iterations =  2.2

     total cpu time spent up to now is        2.2 secs

     total energy              =     -55.80448820 Ry
     estimated scf accuracy    <       0.00012101 Ry

     total magnetization       =     2.23 Bohr mag/cell
     absolute magnetization    =     2.38 Bohr mag/cell

     iteration #  6     ecut=    30.00 Ry     beta= 0.50
     Davidson diagonalization with overlap
     ethr =  1.51E-06,  avg # of iterations =  2.3

     total cpu time spent up to now is        2.3 secs

     total energy              =     -55.80429711 Ry
     estimated scf accuracy    <       0.00081486 Ry

     total magnetization       =     2.23 Bohr mag/cell
     absolute magnetization    =     2.38 Bohr mag/cell

     iteration #  7     ecut=    30.00 Ry     beta= 0.50
     Davidson diagonalization with overlap
     ethr =  1.51E-06,  avg # of iterations =  1.9

     total cpu time spent up to now is        2.4 secs

     total energy              =     -55.80428298 Ry
     estimated scf accuracy    <       0.00012018 Ry

     total magnetization       =     2.23 Bohr mag/cell
     absolute magnetization    =     2.38 Bohr mag/cell

     iteration #  8     ecut=    30.00 Ry     beta= 0.50
     Davidson diagonalization with overlap
     ethr =  1.50E-06,  avg # of iterations =  1.9

     total cpu time spent up to now is        2.5 secs

     total energy              =     -55.80431965 Ry
     estimated scf accuracy    <       0.00001831 Ry

     total magnetization       =     2.23 Bohr mag/cell
     absolute magnetization    =     2.39 Bohr mag/cell

     iteration #  9     ecut=    30.00 Ry     beta= 0.50
     Davidson diagonalization with overlap
     ethr =  2.29E-07,  avg # of iterations =  1.2

     total cpu time spent up to now is        2.6 secs

     total energy              =     -55.80432420 Ry
     estimated scf accuracy    <       0.00000055 Ry

     total magnetization       =     2.23 Bohr mag/cell
     absolute magnetization    =     2.39 Bohr mag/cell

     iteration # 10     ecut=    30.00 Ry     beta= 0.50
     Davidson diagonalization with overlap
     ethr =  6.93E-09,  avg # of iterations =  4.6

     total cpu time spent up to now is        2.7 secs

     total energy              =     -55.80432478 Ry
     estimated scf accuracy    <       0.00000019 Ry

     total magnetization       =     2.23 Bohr mag/cell
     absolute magnetization    =     2.39 Bohr mag/cell

     iteration # 11     ecut=    30.00 Ry     beta= 0.50
     Davidson diagonalization with overlap
     ethr =  2.37E-09,  avg # of iterations =  2.2

     Magnetic moment per site  (integrated on atomic sphere of radius R)
     atom   1 (R=0.413)  charge=  6.3991  magn=  2.2985

     total cpu time spent up to now is        2.8 secs

     End of self-consistent calculation

 ------ SPIN UP ------------


          k = 0.0000 0.0000 0.0000 (   201 PWs)   bands (ev):

     5.1370  11.1218  11.1218  11.1218  12.3186  12.3186  38.1979  38.1979

          k = 0.1427 0.1427 0.0000 (   201 PWs)   bands (ev):

     6.2428  10.8399  11.0538  11.7058  12.1369  12.3468  33.1521  36.3950

          k = 0.2854 0.2854 0.0000 (   194 PWs)   bands (ev):

     8.3085  10.3068  11.5451  12.3180  12.4393  13.0251  25.5471  33.0979

          k =-0.4281-0.4281 0.0000 (   194 PWs)   bands (ev):

     8.5536  10.0541  12.3883  12.5053  13.7887  14.1493  20.8192  31.7652

          k = 0.2854 0.1427 0.1427 (   204 PWs)   bands (ev):

     8.0464  10.5362  10.6490  12.0521  12.5161  12.9917  29.3880  30.4026

          k = 0.4281 0.2854 0.1427 (   203 PWs)   bands (ev):

     9.0917  10.1717  11.2515  12.3217  12.8074  15.6116  22.7294  27.8188

          k = 0.5709 0.2854 0.2854 (   210 PWs)   bands (ev):

     9.7713  10.3639  10.3639  12.6237  12.6237  20.3372  20.3372  22.9191

          k = 0.2854 0.2854 0.2854 (   204 PWs)   bands (ev):

     9.8559  10.1058  10.1058  12.4476  12.4476  15.5343  26.6233  26.6233

          k = 0.4281 0.4281 0.2854 (   210 PWs)   bands (ev):

     9.7636   9.9983  10.9312  12.5126  12.5312  19.0286  21.3890  25.6415

          k = 0.0000 0.0000 0.2854 (   205 PWs)   bands (ev):

     7.2391  11.2197  11.2197  11.3794  11.6997  12.7163  32.8838  34.4500

          k =-0.0000-0.1427 0.4281 (   210 PWs)   bands (ev):

     8.9660  10.4836  10.9406  11.9094  12.9175  13.8370  26.3013  31.1329

          k =-0.8563-0.2854-0.2854 (   208 PWs)   bands (ev):

     9.0711  10.6538  10.7397  12.0251  13.7207  16.8286  21.0190  29.6676

          k =-0.7136-0.1427-0.2854 (   209 PWs)   bands (ev):

     9.6755   9.7153  10.9465  12.4301  13.2030  17.6180  23.6512  24.5347

          k =-0.0000-0.0000 0.5709 (   212 PWs)   bands (ev):

     9.2720   9.5130  12.2534  12.2534  12.8994  16.4270  27.1658  27.1658

          k =-0.8563-0.1427-0.1427 (   212 PWs)   bands (ev):

     9.0201   9.1291  12.4103  12.6910  13.5864  20.6925  22.0536  25.4465

          k =-0.8563-0.8563-0.8563 (   236 PWs)   bands (ev):

     8.6101   8.6101  13.5195  13.5195  13.5195  23.5261  23.5261  23.5261

 ------ SPIN DOWN ----------


          k = 0.0000 0.0000 0.0000 (   201 PWs)   bands (ev):

     5.2001  13.3000  13.3000  13.3000  15.3513  15.3513  37.8822  37.8822

          k = 0.1427 0.1427 0.0000 (   201 PWs)   bands (ev):

     6.3230  12.9504  13.1707  13.9469  15.0646  15.3860  33.4933  36.3515

          k = 0.2854 0.2854 0.0000 (   194 PWs)   bands (ev):

     8.9105  12.3003  12.9411  15.0875  15.4389  15.5172  26.4339  33.0939

          k =-0.4281-0.4281 0.0000 (   194 PWs)   bands (ev):

     9.9447  11.9966  14.1427  15.2116  15.6177  16.3296  22.2930  31.7102

          k = 0.2854 0.1427 0.1427 (   204 PWs)   bands (ev):

     8.2814  12.5668  12.6111  14.8562  15.2020  15.6109  29.9919  30.9135

          k = 0.4281 0.2854 0.1427 (   203 PWs)   bands (ev):

    10.3692  12.0700  12.6975  15.0941  15.6643  17.3856  23.8119  28.3715

          k = 0.5709 0.2854 0.2854 (   210 PWs)   bands (ev):

    11.4823  12.0100  12.0100  15.4097  15.4097  21.4736  21.4736  23.8188

          k = 0.2854 0.2854 0.2854 (   204 PWs)   bands (ev):

    10.4963  11.9262  11.9262  15.4770  15.4770  17.4524  27.2996  27.2996

          k = 0.4281 0.4281 0.2854 (   210 PWs)   bands (ev):

    11.2739  11.7325  12.2949  15.5319  15.6532  20.1807  22.5314  26.3221

          k = 0.0000 0.0000 0.2854 (   205 PWs)   bands (ev):

     7.3661  13.3297  13.3297  13.9497  14.0938  15.7664  33.1992  34.9463

          k =-0.0000-0.1427 0.4281 (   210 PWs)   bands (ev):

     9.7057  12.5683  12.9865  14.2909  15.3125  16.2766  27.1283  31.7120

          k =-0.8563-0.2854-0.2854 (   208 PWs)   bands (ev):

    10.6699  12.4350  12.7457  14.5366  16.2518  18.0670  22.3485  30.1813

          k =-0.7136-0.1427-0.2854 (   209 PWs)   bands (ev):

    11.2312  11.7204  12.9427  14.8008  15.6866  19.0125  24.6119  25.2513

          k =-0.0000-0.0000 0.5709 (   212 PWs)   bands (ev):

    10.7543  11.6984  14.4237  14.4237  15.3115  17.8610  27.6872  27.6872

          k =-0.8563-0.1427-0.1427 (   212 PWs)   bands (ev):

    11.0081  11.0525  14.6415  14.9322  16.0984  21.4641  22.8358  25.8407

          k =-0.8563-0.8563-0.8563 (   236 PWs)   bands (ev):

    10.5884  10.5884  16.0220  16.0220  16.0220  23.6949  23.6949  23.6949

     the Fermi energy is    13.4588 ev

!    total energy              =     -55.80432484 Ry
     estimated scf accuracy    <          1.1E-09 Ry
     smearing contrib. (-TS)   =       0.00065270 Ry
     internal energy E=F+TS    =     -55.80497754 Ry

     The total energy is F=E-TS. E is the sum of the following terms:
     one-electron contribution =       7.56837280 Ry
     hartree contribution      =       6.52636926 Ry
     xc contribution           =     -26.44801866 Ry
     ewald contribution        =     -43.45170094 Ry

     total magnetization       =     2.23 Bohr mag/cell
     absolute magnetization    =     2.39 Bohr mag/cell

     convergence has been achieved in  11 iterations

     Forces acting on atoms (cartesian axes, Ry/au):

     atom    1 type  1   force =     0.00000000    0.00000000    0.00000000
     The non-local contrib.  to forces
     atom    1 type  1   force =     0.00000000    0.00000000    0.00000000
     The ionic contribution  to forces
     atom    1 type  1   force =    -0.00000000   -0.00000000   -0.00000000
     The local contribution  to forces
     atom    1 type  1   force =    -0.00000000    0.00000000   -0.00000000
     The core correction contribution to forces
     atom    1 type  1   force =    -0.00000000   -0.00000000   -0.00000000
     The Hubbard contrib.    to forces
     atom    1 type  1   force =     0.00000000    0.00000000    0.00000000
     The SCF correction term to forces
     atom    1 type  1   force =     0.00000000    0.00000000    0.00000000

     Total force =     0.000000     Total SCF correction =     0.000000


     Computing stress (Cartesian axis) and pressure

          total   stress  (Ry/bohr**3)                   (kbar)     P=       -7.46
  -0.00005071   0.00000000   0.00000000           -7.46        0.00        0.00
   0.00000000  -0.00005071   0.00000000            0.00       -7.46        0.00
   0.00000000   0.00000000  -0.00005071            0.00        0.00       -7.46

     Energy error            =      4.8E-04 Ry
     Gradient error          =      0.0E+00 Ry/Bohr
     Cell gradient error     =      7.5E+00 kbar

     number of scf cycles    =   2
     number of bfgs steps    =   1

     enthalpy           old  =     -55.8038443011 Ry
     enthalpy           new  =     -55.8043248367 Ry

     CASE: enthalpy          _new < enthalpy          _old

     new trust radius        =       0.0020198107 bohr
     new conv_thr            =       0.0000000010 Ry

     new unit-cell volume =     76.73951 a.u.^3 (    11.37162 Ang^3 )
     density =      8.15476 g/cm^3

CELL_PARAMETERS (angstrom)
  -1.416622538   1.416622538   1.416622538
   1.416622538  -1.416622538   1.416622538
   1.416622538   1.416622538  -1.416622538

ATOMIC_POSITIONS (angstrom)
Fe            0.0000000000        0.0000000000        0.0000000000



     Writing config-only to output data dir /home/gridsan/epan1/labutil/lab3_samples/problem1/Lab3/Fe_bcc_a_2.8046394196999995_ecut_30_nk_6/pwscf.save/
     NEW-OLD atomic charge density approx. for the potential
     extrapolated charge    7.97232, renormalised to    8.00000
     Generating pointlists ...

     total cpu time spent up to now is        3.0 secs

     Self-consistent Calculation

     iteration #  1     ecut=    30.00 Ry     beta= 0.50
     Davidson diagonalization with overlap
     ethr =  1.00E-06,  avg # of iterations =  2.5

     total cpu time spent up to now is        3.1 secs

     total energy              =     -55.80386265 Ry
     estimated scf accuracy    <       0.00047688 Ry

     total magnetization       =     2.23 Bohr mag/cell
     absolute magnetization    =     2.39 Bohr mag/cell

     iteration #  2     ecut=    30.00 Ry     beta= 0.50
     Davidson diagonalization with overlap
     ethr =  5.96E-06,  avg # of iterations =  2.4

     total cpu time spent up to now is        3.2 secs

     total energy              =     -55.80431790 Ry
     estimated scf accuracy    <       0.00082320 Ry

     total magnetization       =     2.23 Bohr mag/cell
     absolute magnetization    =     2.38 Bohr mag/cell

     iteration #  3     ecut=    30.00 Ry     beta= 0.50
     Davidson diagonalization with overlap
     ethr =  5.96E-06,  avg # of iterations =  1.1

     total cpu time spent up to now is        3.3 secs

     total energy              =     -55.80426227 Ry
     estimated scf accuracy    <       0.00014319 Ry

     total magnetization       =     2.23 Bohr mag/cell
     absolute magnetization    =     2.38 Bohr mag/cell

     iteration #  4     ecut=    30.00 Ry     beta= 0.50
     Davidson diagonalization with overlap
     ethr =  1.79E-06,  avg # of iterations =  2.3

     total cpu time spent up to now is        3.4 secs

     total energy              =     -55.80433655 Ry
     estimated scf accuracy    <       0.00014979 Ry

     total magnetization       =     2.23 Bohr mag/cell
     absolute magnetization    =     2.38 Bohr mag/cell

     iteration #  5     ecut=    30.00 Ry     beta= 0.50
     Davidson diagonalization with overlap
     ethr =  1.79E-06,  avg # of iterations =  1.0

     total cpu time spent up to now is        3.5 secs

     total energy              =     -55.80432822 Ry
     estimated scf accuracy    <       0.00003889 Ry

     total magnetization       =     2.23 Bohr mag/cell
     absolute magnetization    =     2.38 Bohr mag/cell

     iteration #  6     ecut=    30.00 Ry     beta= 0.50
     Davidson diagonalization with overlap
     ethr =  4.86E-07,  avg # of iterations =  1.3

     total cpu time spent up to now is        3.5 secs

     total energy              =     -55.80433117 Ry
     estimated scf accuracy    <       0.00000201 Ry

     total magnetization       =     2.23 Bohr mag/cell
     absolute magnetization    =     2.38 Bohr mag/cell

     iteration #  7     ecut=    30.00 Ry     beta= 0.50
     Davidson diagonalization with overlap
     ethr =  2.52E-08,  avg # of iterations =  2.8

     total cpu time spent up to now is        3.6 secs

     total energy              =     -55.80433299 Ry
     estimated scf accuracy    <       0.00000371 Ry

     total magnetization       =     2.23 Bohr mag/cell
     absolute magnetization    =     2.38 Bohr mag/cell

     iteration #  8     ecut=    30.00 Ry     beta= 0.50
     Davidson diagonalization with overlap
     ethr =  2.52E-08,  avg # of iterations =  1.0

     total cpu time spent up to now is        3.7 secs

     total energy              =     -55.80433262 Ry
     estimated scf accuracy    <       0.00000210 Ry

     total magnetization       =     2.23 Bohr mag/cell
     absolute magnetization    =     2.38 Bohr mag/cell

     iteration #  9     ecut=    30.00 Ry     beta= 0.50
     Davidson diagonalization with overlap
     ethr =  2.52E-08,  avg # of iterations =  1.0

     total cpu time spent up to now is        3.8 secs

     total energy              =     -55.80433246 Ry
     estimated scf accuracy    <       0.00000084 Ry

     total magnetization       =     2.23 Bohr mag/cell
     absolute magnetization    =     2.38 Bohr mag/cell

     iteration # 10     ecut=    30.00 Ry     beta= 0.50
     Davidson diagonalization with overlap
     ethr =  1.05E-08,  avg # of iterations =  1.0

     total cpu time spent up to now is        3.9 secs

     total energy              =     -55.80433240 Ry
     estimated scf accuracy    <       0.00000021 Ry

     total magnetization       =     2.23 Bohr mag/cell
     absolute magnetization    =     2.38 Bohr mag/cell

     iteration # 11     ecut=    30.00 Ry     beta= 0.50
     Davidson diagonalization with overlap
     ethr =  2.57E-09,  avg # of iterations =  1.6

     Magnetic moment per site  (integrated on atomic sphere of radius R)
     atom   1 (R=0.413)  charge=  6.4030  magn=  2.2958

     total cpu time spent up to now is        4.0 secs

     End of self-consistent calculation

 ------ SPIN UP ------------


          k = 0.0000 0.0000 0.0000 (   201 PWs)   bands (ev):

     5.1778  11.1766  11.1766  11.1766  12.3806  12.3806  38.2906  38.2906

          k = 0.1429 0.1429 0.0000 (   201 PWs)   bands (ev):

     6.2864  10.8931  11.1081  11.7636  12.1977  12.4089  33.2519  36.4917

          k = 0.2858 0.2858 0.0000 (   194 PWs)   bands (ev):

     8.3536  10.3570  11.6017  12.3796  12.5022  13.0899  25.6430  33.1904

          k =-0.4286-0.4286 0.0000 (   194 PWs)   bands (ev):

     8.5965  10.1030  12.4506  12.5687  13.8577  14.2096  20.9118  31.8544

          k = 0.2858 0.1429 0.1429 (   204 PWs)   bands (ev):

     8.0934  10.5876  10.7011  12.1124  12.5793  13.0561  29.4842  30.5058

          k = 0.4286 0.2858 0.1429 (   203 PWs)   bands (ev):

     9.1372  10.2212  11.3066  12.3835  12.8717  15.6839  22.8215  27.9159

          k = 0.5715 0.2858 0.2858 (   210 PWs)   bands (ev):

     9.8191  10.4145  10.4145  12.6870  12.6870  20.4195  20.4195  23.0156

          k = 0.2858 0.2858 0.2858 (   204 PWs)   bands (ev):

     9.9064  10.1550  10.1550  12.5105  12.5105  15.6081  26.7156  26.7156

          k = 0.4286 0.4286 0.2858 (   210 PWs)   bands (ev):

     9.8116  10.0470  10.9845  12.5759  12.5948  19.1074  21.4786  25.7319

          k = 0.0000 0.0000 0.2858 (   205 PWs)   bands (ev):

     7.2849  11.2748  11.2748  11.4356  11.7573  12.7808  32.9766  34.5603

          k =-0.0000-0.1429 0.4286 (   210 PWs)   bands (ev):

     9.0129  10.5348  10.9941  11.9683  12.9816  13.9054  26.3980  31.2402

          k =-0.8573-0.2858-0.2858 (   208 PWs)   bands (ev):

     9.1158  10.7060  10.7921  12.0849  13.7893  16.9007  21.1106  29.7714

          k =-0.7144-0.1429-0.2858 (   209 PWs)   bands (ev):

     9.7232   9.7625  11.0001  12.4916  13.2688  17.6956  23.7410  24.6308

          k =-0.0000-0.0000 0.5715 (   212 PWs)   bands (ev):

     9.3179   9.5589  12.3137  12.3137  12.9634  16.5019  27.2635  27.2635

          k =-0.8573-0.1429-0.1429 (   212 PWs)   bands (ev):

     9.0636   9.1734  12.4715  12.7537  13.6542  20.7741  22.1423  25.5388

          k =-0.8573-0.8573-0.8573 (   236 PWs)   bands (ev):

     8.6514   8.6514  13.5869  13.5869  13.5869  23.6118  23.6118  23.6118

 ------ SPIN DOWN ----------


          k = 0.0000 0.0000 0.0000 (   201 PWs)   bands (ev):

     5.2431  13.3521  13.3521  13.3521  15.4113  15.4113  37.9782  37.9782

          k = 0.1429 0.1429 0.0000 (   201 PWs)   bands (ev):

     6.3689  13.0009  13.2222  14.0020  15.1232  15.4462  33.5951  36.4507

          k = 0.2858 0.2858 0.0000 (   194 PWs)   bands (ev):

     8.9587  12.3478  12.9946  15.1468  15.5008  15.5781  26.5318  33.1889

          k =-0.4286-0.4286 0.0000 (   194 PWs)   bands (ev):

     9.9868  12.0429  14.2058  15.2717  15.6792  16.3957  22.3857  31.8017

          k = 0.2858 0.1429 0.1429 (   204 PWs)   bands (ev):

     8.3309  12.6157  12.6604  14.9140  15.2630  15.6726  30.0906  31.0179

          k = 0.4286 0.2858 0.1429 (   203 PWs)   bands (ev):

    10.4152  12.1171  12.7511  15.1535  15.7265  17.4570  23.9056  28.4701

          k = 0.5715 0.2858 0.2858 (   210 PWs)   bands (ev):

    11.5280  12.0593  12.0593  15.4707  15.4707  21.5575  21.5575  23.9160

          k = 0.2858 0.2858 0.2858 (   204 PWs)   bands (ev):

    10.5483  11.9730  11.9730  15.5378  15.5378  17.5242  27.3940  27.3940

          k = 0.4286 0.4286 0.2858 (   210 PWs)   bands (ev):

    11.3204  11.7789  12.3469  15.5931  15.7149  20.2606  22.6220  26.4145

          k = 0.0000 0.0000 0.2858 (   205 PWs)   bands (ev):

     7.4142  13.3821  13.3821  14.0046  14.1475  15.8289  33.2957  35.0578

          k =-0.0000-0.1429 0.4286 (   210 PWs)   bands (ev):

     9.7551  12.6171  13.0373  14.3470  15.3738  16.3430  27.2272  31.8210

          k =-0.8573-0.2858-0.2858 (   208 PWs)   bands (ev):

    10.7135  12.4863  12.7954  14.5938  16.3175  18.1407  22.4405  30.2869

          k =-0.7144-0.1429-0.2858 (   209 PWs)   bands (ev):

    11.2784  11.7655  12.9938  14.8596  15.7497  19.0908  24.7041  25.3487

          k =-0.0000-0.0000 0.5715 (   212 PWs)   bands (ev):

    10.8004  11.7417  14.4812  14.4812  15.3726  17.9360  27.7868  27.7868

          k =-0.8573-0.1429-0.1429 (   212 PWs)   bands (ev):

    11.0496  11.0950  14.6998  14.9921  16.1634  21.5478  22.9260  25.9350

          k =-0.8573-0.8573-0.8573 (   236 PWs)   bands (ev):

    10.6276  10.6276  16.0866  16.0866  16.0866  23.7826  23.7826  23.7826

     the Fermi energy is    13.5216 ev

!    total energy              =     -55.80433244 Ry
     estimated scf accuracy    <          4.8E-10 Ry
     smearing contrib. (-TS)   =       0.00066115 Ry
     internal energy E=F+TS    =     -55.80499359 Ry

     The total energy is F=E-TS. E is the sum of the following terms:
     one-electron contribution =       7.63898078 Ry
     hartree contribution      =       6.50802011 Ry
     xc contribution           =     -26.45022927 Ry
     ewald contribution        =     -43.50176521 Ry

     total magnetization       =     2.23 Bohr mag/cell
     absolute magnetization    =     2.38 Bohr mag/cell

     convergence has been achieved in  11 iterations

     Forces acting on atoms (cartesian axes, Ry/au):

     atom    1 type  1   force =     0.00000000    0.00000000    0.00000000
     The non-local contrib.  to forces
     atom    1 type  1   force =     0.00000000    0.00000000    0.00000000
     The ionic contribution  to forces
     atom    1 type  1   force =    -0.00000000   -0.00000000   -0.00000000
     The local contribution  to forces
     atom    1 type  1   force =    -0.00000000   -0.00000000   -0.00000000
     The core correction contribution to forces
     atom    1 type  1   force =    -0.00000000   -0.00000000   -0.00000000
     The Hubbard contrib.    to forces
     atom    1 type  1   force =     0.00000000    0.00000000    0.00000000
     The SCF correction term to forces
     atom    1 type  1   force =     0.00000000    0.00000000   -0.00000000

     Total force =     0.000000     Total SCF correction =     0.000000


     Computing stress (Cartesian axis) and pressure

          total   stress  (Ry/bohr**3)                   (kbar)     P=       -0.38
  -0.00000259   0.00000000   0.00000000           -0.38        0.00        0.00
   0.00000000  -0.00000259   0.00000000            0.00       -0.38        0.00
   0.00000000   0.00000000  -0.00000259            0.00        0.00       -0.38

     Energy error            =      7.6E-06 Ry
     Gradient error          =      0.0E+00 Ry/Bohr
     Cell gradient error     =      3.8E-01 kbar

     bfgs converged in   3 scf cycles and   2 bfgs steps
     (criteria: energy <  1.0E-04 Ry, force <  1.0E-03 Ry/Bohr, cell <  5.0E-01 kbar)

     End of BFGS Geometry Optimization

     Final enthalpy           =     -55.8043324421 Ry

     File /home/gridsan/epan1/labutil/lab3_samples/problem1/Lab3/Fe_bcc_a_2.8046394196999995_ecut_30_nk_6/pwscf.bfgs deleted, as requested
Begin final coordinates
     new unit-cell volume =     76.73951 a.u.^3 (    11.37162 Ang^3 )
     density =      8.15476 g/cm^3

CELL_PARAMETERS (angstrom)
  -1.416622538   1.416622538   1.416622538
   1.416622538  -1.416622538   1.416622538
   1.416622538   1.416622538  -1.416622538

ATOMIC_POSITIONS (angstrom)
Fe            0.0000000000        0.0000000000        0.0000000000
End final coordinates



     Writing config-only to output data dir /home/gridsan/epan1/labutil/lab3_samples/problem1/Lab3/Fe_bcc_a_2.8046394196999995_ecut_30_nk_6/pwscf.save/

     Final scf calculation at the relaxed structure.
     The G-vectors are recalculated for the final unit cell
     Results may differ from those at the preceding step.

     Parallelization info
     --------------------
     sticks:   dense  smooth     PW     G-vecs:    dense   smooth      PW
     Min          97      49     22                 1223      430     138
     Max          98      50     23                 1225      431     139
     Sum         391     197     91                 4897     1721     555

     Using Slab Decomposition



     bravais-lattice index     =            0
     lattice parameter (alat)  =       4.5899  a.u.
     unit-cell volume          =      76.7395 (a.u.)^3
     number of atoms/cell      =            1
     number of atomic types    =            1
     number of electrons       =         8.00
     number of Kohn-Sham states=            8
     kinetic-energy cutoff     =      30.0000  Ry
     charge density cutoff     =     240.0000  Ry
     scf convergence threshold =      1.0E-09
     mixing beta               =       0.5000
     number of iterations used =            8  plain     mixing
     press convergence thresh. =      5.0E-01
     Exchange-correlation=  SLA  PW   PBE  PBE
                           (   1   4   3   4   0   0   0)

     celldm(1)=   4.589935  celldm(2)=   0.000000  celldm(3)=   0.000000
     celldm(4)=   0.000000  celldm(5)=   0.000000  celldm(6)=   0.000000

     crystal axes: (cart. coord. in units of alat)
               a(1) = (  -0.583239   0.583239   0.583239 )  
               a(2) = (   0.583239  -0.583239   0.583239 )  
               a(3) = (   0.583239   0.583239  -0.583239 )  

     reciprocal axes: (cart. coord. in units 2 pi/alat)
               b(1) = (  0.000000  0.857282  0.857282 )  
               b(2) = (  0.857282  0.000000  0.857282 )  
               b(3) = (  0.857282  0.857282  0.000000 )  


     PseudoPot. # 1 for Fe read from file:
     /home/gridsan/epan1/labutil/lab3_samples/pseudopotentials/Fe.pbe-nd-rrkjus.UPF
     MD5 check sum: 398036227a04b607635f6f5e8dfd8242
     Pseudo is Ultrasoft + core correction, Zval =  8.0
     Generated by new atomic code, or converted to UPF format
     Using radial grid of  957 points,  6 beta functions with: 
                l(1) =   0
                l(2) =   0
                l(3) =   1
                l(4) =   1
                l(5) =   2
                l(6) =   2
     Q(r) pseudized with 0 coefficients 


     atomic species   valence    mass     pseudopotential
        Fe             8.00    55.84500     Fe( 1.00)

     Starting magnetic structure 
     atomic species   magnetization
        Fe           0.359

     48 Sym. Ops., with inversion, found



   Cartesian axes

     site n.     atom                  positions (alat units)
         1           Fe  tau(   1) = (   0.0000000   0.0000000   0.0000000  )

     number of k points=    16  Methfessel-Paxton smearing, width (Ry)=  0.0200
                       cart. coord. in units 2pi/alat
        k(    1) = (   0.0000000   0.0000000   0.0000000), wk =   0.0046296
        k(    2) = (   0.1428803   0.1428803   0.0000000), wk =   0.0555556
        k(    3) = (   0.2857605   0.2857605   0.0000000), wk =   0.0555556
        k(    4) = (  -0.4286408  -0.4286408   0.0000000), wk =   0.0277778
        k(    5) = (   0.2857605   0.1428803   0.1428803), wk =   0.1111111
        k(    6) = (   0.4286408   0.2857605   0.1428803), wk =   0.2222222
        k(    7) = (   0.5715211   0.2857605   0.2857605), wk =   0.0370370
        k(    8) = (   0.2857605   0.2857605   0.2857605), wk =   0.0370370
        k(    9) = (   0.4286408   0.4286408   0.2857605), wk =   0.0555556
        k(   10) = (   0.0000000   0.0000000   0.2857605), wk =   0.0277778
        k(   11) = (  -0.0000000  -0.1428803   0.4286408), wk =   0.1111111
        k(   12) = (  -0.8572816  -0.2857605  -0.2857605), wk =   0.0555556
        k(   13) = (  -0.7144014  -0.1428803  -0.2857605), wk =   0.1111111
        k(   14) = (  -0.0000000  -0.0000000   0.5715211), wk =   0.0277778
        k(   15) = (  -0.8572816  -0.1428803  -0.1428803), wk =   0.0555556
        k(   16) = (  -0.8572816  -0.8572816  -0.8572816), wk =   0.0046296

     Dense  grid:     4897 G-vectors     FFT dimensions: (  24,  24,  24)

     Smooth grid:     1721 G-vectors     FFT dimensions: (  18,  18,  18)

     Estimated max dynamical RAM per process >       7.76 MB

     Estimated total dynamical RAM >      31.03 MB
     Generating pointlists ...

     Initial potential from superposition of free atoms

     starting charge       7.9994, renormalised to       8.0000
     Starting wfcs are    6 randomized atomic wfcs +    2 random wfcs

     total cpu time spent up to now is        4.5 secs

     Self-consistent Calculation

     iteration #  1     ecut=    30.00 Ry     beta= 0.50
     Davidson diagonalization with overlap
     c_bands:  1 eigenvalues not converged
     c_bands:  1 eigenvalues not converged
     c_bands:  1 eigenvalues not converged
     c_bands:  1 eigenvalues not converged
     c_bands:  3 eigenvalues not converged
     c_bands:  1 eigenvalues not converged
     c_bands:  1 eigenvalues not converged
     c_bands:  1 eigenvalues not converged
     c_bands:  1 eigenvalues not converged
     ethr =  1.00E-06,  avg # of iterations = 17.8

     total cpu time spent up to now is        4.9 secs

     total energy              =     -55.67459414 Ry
     estimated scf accuracy    <       0.36023475 Ry

     total magnetization       =     2.19 Bohr mag/cell
     absolute magnetization    =     2.19 Bohr mag/cell

     iteration #  2     ecut=    30.00 Ry     beta= 0.50
     Davidson diagonalization with overlap
     ethr =  4.50E-03,  avg # of iterations =  1.9

     total cpu time spent up to now is        5.0 secs

     total energy              =     -55.78104888 Ry
     estimated scf accuracy    <       0.09018045 Ry

     total magnetization       =     2.36 Bohr mag/cell
     absolute magnetization    =     2.38 Bohr mag/cell

     iteration #  3     ecut=    30.00 Ry     beta= 0.50
     Davidson diagonalization with overlap
     ethr =  1.13E-03,  avg # of iterations =  1.0

     total cpu time spent up to now is        5.1 secs

     total energy              =     -55.80250144 Ry
     estimated scf accuracy    <       0.00170250 Ry

     total magnetization       =     2.22 Bohr mag/cell
     absolute magnetization    =     2.28 Bohr mag/cell

     iteration #  4     ecut=    30.00 Ry     beta= 0.50
     Davidson diagonalization with overlap
     ethr =  2.13E-05,  avg # of iterations =  2.4

     total cpu time spent up to now is        5.2 secs

     total energy              =     -55.80434295 Ry
     estimated scf accuracy    <       0.00011332 Ry

     total magnetization       =     2.22 Bohr mag/cell
     absolute magnetization    =     2.36 Bohr mag/cell

     iteration #  5     ecut=    30.00 Ry     beta= 0.50
     Davidson diagonalization with overlap
     ethr =  1.42E-06,  avg # of iterations =  3.0

     total cpu time spent up to now is        5.3 secs

     total energy              =     -55.80442629 Ry
     estimated scf accuracy    <       0.00005126 Ry

     total magnetization       =     2.22 Bohr mag/cell
     absolute magnetization    =     2.37 Bohr mag/cell

     iteration #  6     ecut=    30.00 Ry     beta= 0.50
     Davidson diagonalization with overlap
     ethr =  6.41E-07,  avg # of iterations =  1.9

     total cpu time spent up to now is        5.4 secs

     total energy              =     -55.80444616 Ry
     estimated scf accuracy    <       0.00000153 Ry

     total magnetization       =     2.23 Bohr mag/cell
     absolute magnetization    =     2.38 Bohr mag/cell

     iteration #  7     ecut=    30.00 Ry     beta= 0.50
     Davidson diagonalization with overlap
     ethr =  1.92E-08,  avg # of iterations =  5.1

     total cpu time spent up to now is        5.6 secs

     total energy              =     -55.80444997 Ry
     estimated scf accuracy    <       0.00000025 Ry

     total magnetization       =     2.23 Bohr mag/cell
     absolute magnetization    =     2.38 Bohr mag/cell

     iteration #  8     ecut=    30.00 Ry     beta= 0.50
     Davidson diagonalization with overlap
     ethr =  3.12E-09,  avg # of iterations =  3.4

     total cpu time spent up to now is        5.7 secs

     total energy              =     -55.80445041 Ry
     estimated scf accuracy    <       0.00000010 Ry

     total magnetization       =     2.23 Bohr mag/cell
     absolute magnetization    =     2.38 Bohr mag/cell

     iteration #  9     ecut=    30.00 Ry     beta= 0.50
     Davidson diagonalization with overlap
     ethr =  1.28E-09,  avg # of iterations =  2.1

     total cpu time spent up to now is        5.8 secs

     total energy              =     -55.80445046 Ry
     estimated scf accuracy    <          4.3E-09 Ry

     total magnetization       =     2.23 Bohr mag/cell
     absolute magnetization    =     2.38 Bohr mag/cell

     iteration # 10     ecut=    30.00 Ry     beta= 0.50
     Davidson diagonalization with overlap
     ethr =  5.42E-11,  avg # of iterations =  4.7

     Magnetic moment per site  (integrated on atomic sphere of radius R)
     atom   1 (R=0.413)  charge=  6.4031  magn=  2.2958

     total cpu time spent up to now is        6.0 secs

     End of self-consistent calculation

 ------ SPIN UP ------------


          k = 0.0000 0.0000 0.0000 (   201 PWs)   bands (ev):

     5.1780  11.1762  11.1762  11.1762  12.3801  12.3801  38.2906  38.2906

          k = 0.1429 0.1429 0.0000 (   209 PWs)   bands (ev):

     6.2865  10.8921  11.1075  11.7630  12.1972  12.4082  33.2518  36.4911

          k = 0.2858 0.2858 0.0000 (   214 PWs)   bands (ev):

     8.3531  10.3560  11.6010  12.3787  12.5013  13.0889  25.6427  33.1901

          k =-0.4286-0.4286 0.0000 (   214 PWs)   bands (ev):

     8.5962  10.1017  12.4499  12.5673  13.8566  14.2095  20.9116  31.8542

          k = 0.2858 0.1429 0.1429 (   208 PWs)   bands (ev):

     8.0934  10.5871  10.7006  12.1118  12.5787  13.0556  29.4841  30.5058

          k = 0.4286 0.2858 0.1429 (   213 PWs)   bands (ev):

     9.1369  10.2204  11.3061  12.3829  12.8709  15.6836  22.8214  27.9158

          k = 0.5715 0.2858 0.2858 (   210 PWs)   bands (ev):

     9.8189  10.4142  10.4142  12.6865  12.6865  20.4193  20.4193  23.0157

          k = 0.2858 0.2858 0.2858 (   216 PWs)   bands (ev):

     9.9063  10.1542  10.1542  12.5096  12.5096  15.6076  26.7153  26.7153

          k = 0.4286 0.4286 0.2858 (   214 PWs)   bands (ev):

     9.8113  10.0463  10.9842  12.5753  12.5942  19.1072  21.4785  25.7317

          k = 0.0000 0.0000 0.2858 (   213 PWs)   bands (ev):

     7.2850  11.2740  11.2740  11.4349  11.7568  12.7802  32.9754  34.5596

          k =-0.0000-0.1429 0.4286 (   215 PWs)   bands (ev):

     9.0128  10.5344  10.9936  11.9678  12.9808  13.9050  26.3979  31.2403

          k =-0.8573-0.2858-0.2858 (   208 PWs)   bands (ev):

     9.1156  10.7057  10.7917  12.0845  13.7887  16.9007  21.1105  29.7716

          k =-0.7144-0.1429-0.2858 (   215 PWs)   bands (ev):

     9.7230   9.7619  10.9996  12.4910  13.2681  17.6955  23.7409  24.6309

          k =-0.0000-0.0000 0.5715 (   221 PWs)   bands (ev):

     9.3174   9.5583  12.3131  12.3131  12.9623  16.5018  27.2636  27.2636

          k =-0.8573-0.1429-0.1429 (   220 PWs)   bands (ev):

     9.0629   9.1730  12.4709  12.7530  13.6534  20.7741  22.1423  25.5390

          k =-0.8573-0.8573-0.8573 (   236 PWs)   bands (ev):

     8.6512   8.6512  13.5864  13.5864  13.5864  23.6121  23.6121  23.6121

 ------ SPIN DOWN ----------


          k = 0.0000 0.0000 0.0000 (   201 PWs)   bands (ev):

     5.2434  13.3519  13.3519  13.3519  15.4107  15.4107  37.9784  37.9784

          k = 0.1429 0.1429 0.0000 (   209 PWs)   bands (ev):

     6.3692  12.9999  13.2218  14.0015  15.1227  15.4452  33.5950  36.4504

          k = 0.2858 0.2858 0.0000 (   214 PWs)   bands (ev):

     8.9585  12.3468  12.9935  15.1456  15.4997  15.5770  26.5317  33.1888

          k =-0.4286-0.4286 0.0000 (   214 PWs)   bands (ev):

     9.9867  12.0415  14.2059  15.2708  15.6772  16.3946  22.3855  31.8016

          k = 0.2858 0.1429 0.1429 (   208 PWs)   bands (ev):

     8.3311  12.6152  12.6600  14.9134  15.2625  15.6719  30.0905  31.0180

          k = 0.4286 0.2858 0.1429 (   213 PWs)   bands (ev):

    10.4151  12.1164  12.7507  15.1529  15.7253  17.4565  23.9055  28.4702

          k = 0.5715 0.2858 0.2858 (   210 PWs)   bands (ev):

    11.5279  12.0592  12.0592  15.4702  15.4702  21.5573  21.5573  23.9163

          k = 0.2858 0.2858 0.2858 (   216 PWs)   bands (ev):

    10.5484  11.9722  11.9722  15.5367  15.5367  17.5237  27.3938  27.3938

          k = 0.4286 0.4286 0.2858 (   214 PWs)   bands (ev):

    11.3202  11.7782  12.3468  15.5926  15.7142  20.2603  22.6219  26.4143

          k = 0.0000 0.0000 0.2858 (   213 PWs)   bands (ev):

     7.4145  13.3813  13.3813  14.0042  14.1466  15.8282  33.2948  35.0573

          k =-0.0000-0.1429 0.4286 (   215 PWs)   bands (ev):

     9.7553  12.6167  13.0370  14.3464  15.3730  16.3424  27.2271  31.8212

          k =-0.8573-0.2858-0.2858 (   208 PWs)   bands (ev):

    10.7135  12.4862  12.7952  14.5934  16.3170  18.1405  22.4404  30.2873

          k =-0.7144-0.1429-0.2858 (   215 PWs)   bands (ev):

    11.2784  11.7648  12.9934  14.8589  15.7489  19.0906  24.7040  25.3489

          k =-0.0000-0.0000 0.5715 (   221 PWs)   bands (ev):

    10.8000  11.7412  14.4807  14.4807  15.3715  17.9359  27.7870  27.7870

          k =-0.8573-0.1429-0.1429 (   220 PWs)   bands (ev):

    11.0488  11.0946  14.6994  14.9915  16.1625  21.5478  22.9262  25.9353

          k =-0.8573-0.8573-0.8573 (   236 PWs)   bands (ev):

    10.6274  10.6274  16.0861  16.0861  16.0861  23.7831  23.7831  23.7831

     the Fermi energy is    13.5208 ev

!    total energy              =     -55.80445048 Ry
     estimated scf accuracy    <          7.3E-11 Ry
     smearing contrib. (-TS)   =       0.00066100 Ry
     internal energy E=F+TS    =     -55.80511147 Ry

     The total energy is F=E-TS. E is the sum of the following terms:
     one-electron contribution =       7.63883036 Ry
     hartree contribution      =       6.50776239 Ry
     xc contribution           =     -26.44993901 Ry
     ewald contribution        =     -43.50176521 Ry

     total magnetization       =     2.23 Bohr mag/cell
     absolute magnetization    =     2.38 Bohr mag/cell

     convergence has been achieved in  10 iterations

     Forces acting on atoms (cartesian axes, Ry/au):

     atom    1 type  1   force =     0.00000000    0.00000000    0.00000000
     The non-local contrib.  to forces
     atom    1 type  1   force =    -0.00000000    0.00000000   -0.00000000
     The ionic contribution  to forces
     atom    1 type  1   force =    -0.00000000   -0.00000000   -0.00000000
     The local contribution  to forces
     atom    1 type  1   force =    -0.00000000   -0.00000000   -0.00000000
     The core correction contribution to forces
     atom    1 type  1   force =    -0.00000000   -0.00000000    0.00000000
     The Hubbard contrib.    to forces
     atom    1 type  1   force =     0.00000000    0.00000000    0.00000000
     The SCF correction term to forces
     atom    1 type  1   force =     0.00000000   -0.00000000   -0.00000000

     Total force =     0.000000     Total SCF correction =     0.000000


     Computing stress (Cartesian axis) and pressure

          total   stress  (Ry/bohr**3)                   (kbar)     P=       -3.07
  -0.00002087  -0.00000000  -0.00000000           -3.07       -0.00       -0.00
  -0.00000000  -0.00002087  -0.00000000           -0.00       -3.07       -0.00
  -0.00000000  -0.00000000  -0.00002087           -0.00       -0.00       -3.07


     init_run     :      0.56s CPU      0.57s WALL (       2 calls)
     electrons    :      3.86s CPU      4.54s WALL (       4 calls)
     update_pot   :      0.15s CPU      0.14s WALL (       2 calls)
     forces       :      0.14s CPU      0.15s WALL (       4 calls)
     stress       :      0.45s CPU      0.45s WALL (       4 calls)

     Called by init_run:
     wfcinit      :      0.04s CPU      0.04s WALL (       2 calls)
     potinit      :      0.13s CPU      0.13s WALL (       2 calls)
     hinit0       :      0.38s CPU      0.39s WALL (       2 calls)

     Called by electrons:
     c_bands      :      2.94s CPU      3.60s WALL (      43 calls)
     sum_band     :      0.54s CPU      0.56s WALL (      43 calls)
     v_of_rho     :      0.22s CPU      0.21s WALL (      47 calls)
     newd         :      0.12s CPU      0.12s WALL (      47 calls)
     mix_rho      :      0.03s CPU      0.03s WALL (      43 calls)

     Called by c_bands:
     init_us_2    :      0.07s CPU      0.08s WALL (    3072 calls)
     init_us_2:cp :      0.07s CPU      0.07s WALL (    3072 calls)
     cegterg      :      2.54s CPU      2.62s WALL (    1376 calls)

     Called by *egterg:
     cdiaghg      :      0.48s CPU      0.49s WALL (    5009 calls)
     h_psi        :      1.60s CPU      1.65s WALL (    5137 calls)
     s_psi        :      0.03s CPU      0.03s WALL (    5137 calls)
     g_psi        :      0.01s CPU      0.01s WALL (    3697 calls)

     Called by h_psi:
     h_psi:calbec :      0.15s CPU      0.16s WALL (    5137 calls)
     vloc_psi     :      1.39s CPU      1.44s WALL (    5137 calls)
     add_vuspsi   :      0.03s CPU      0.04s WALL (    5137 calls)

     General routines
     calbec       :      0.22s CPU      0.22s WALL (    7153 calls)
     fft          :      0.22s CPU      0.21s WALL (    1329 calls)
     ffts         :      0.10s CPU      0.10s WALL (     180 calls)
     fftw         :      1.42s CPU      1.46s WALL (   70124 calls)
     interpolate  :      0.11s CPU      0.11s WALL (      94 calls)

     Parallel routines

     PWSCF        :      5.93s CPU      6.71s WALL


   This run was terminated on:  10:20:38  31Oct2023            

=------------------------------------------------------------------------------=
   JOB DONE.
=------------------------------------------------------------------------------=
