LAMMPS (29 Oct 2020)
Reading data file ...
  orthogonal box = (0.0000000 0.0000000 0.0000000) to (12.300000 12.300000 12.300000)
  1 by 1 by 1 MPI processor grid
  reading atoms ...
  108 atoms
  read_data CPU = 0.001 seconds
Reading eam potential file /home/gridsan/epan1/3320_atomistic_shared/lammps/potentials/Ag_u3.eam with DATE: 2007-06-11
Neighbor list info ...
  update every 1 steps, delay 10 steps, check yes
  max neighbors/atom: 2000, page size: 100000
  master list distance cutoff = 7.55
  ghost atom cutoff = 7.55
  binsize = 3.775, bins = 4 4 4
  2 neighbor lists, perpetual/occasional/extra = 1 1 0
  (1) pair eam, perpetual
      attributes: half, newton on
      pair build: half/bin/atomonly/newton
      stencil: half/bin/3d/newton
      bin: standard
  (2) compute rdf, occasional, copy from (1)
      attributes: half, newton on
      pair build: copy
      stencil: none
      bin: none
Setting up Verlet run ...
  Unit style    : metal
  Current step  : 0
  Time step     : 0.001
Per MPI rank memory allocation (min/avg/max) = 3.723 | 3.723 | 3.723 Mbytes
Step PotEng KinEng TotEng Temp Press Density c_msdall[4] 
       0   -307.76813    4.1492507   -303.61888          300   -5083.4882    10.395806            0 
     100   -305.53997     1.921268    -303.6187    138.91193    1305.8712    10.395806  0.013764377 
     200   -306.02079    2.4021228   -303.61867    173.67879    244.36495    10.395806 0.0089386046 
     300   -305.97697    2.3583124   -303.61866     170.5112    342.80054    10.395806 0.0081593803 
     400   -305.56738    1.9487782    -303.6186    140.90098    1639.0915    10.395806  0.011540433 
     500    -305.4755    1.8569313   -303.61857    134.26024    2010.8974    10.395806  0.010236553 
     600   -305.27838    1.6598294   -303.61855    120.00934    2553.5143    10.395806  0.010905456 
     700   -305.83156    2.2129296   -303.61863     159.9997    907.26639    10.395806 0.0099108259 
     800    -305.7794    2.1607751   -303.61863    156.22882     981.0066    10.395806 0.0095525654 
     900   -305.48992    1.8713098   -303.61861    135.29983    1812.2855    10.395806  0.011364616 
    1000   -305.95941    2.3407672   -303.61865    169.24265    503.33491    10.395806 0.0094472387 
    1100   -305.92935    2.3107169   -303.61863    167.06995    552.23792    10.395806 0.0090509813 
    1200   -305.24039    1.6218204   -303.61857    117.26121    2497.8273    10.395806   0.01243502 
    1300   -305.69788     2.079291   -303.61859    150.33734    1463.4369    10.395806 0.0093250488 
    1400    -305.5705    1.9519069   -303.61859    141.12718    1657.6195    10.395806 0.0099702412 
    1500   -305.67757    2.0589503   -303.61862    148.86666    1342.5219    10.395806  0.010649581 
    1600   -305.54004    1.9214492    -303.6186    138.92503    1809.4666    10.395806  0.010636975 
    1700   -305.66112    2.0425187    -303.6186    147.67862    1413.5391    10.395806 0.0091102659 
    1800   -305.82402     2.205385   -303.61864    159.45421     860.9786    10.395806  0.010501652 
    1900   -305.55796    1.9393453   -303.61861    140.21895    1650.4782    10.395806  0.010529024 
    2000   -305.84733    2.2286927   -303.61864    161.13941    829.89597    10.395806 0.0083941382 
    2100   -305.73612    2.1174916   -303.61863    153.09933    1065.4908    10.395806  0.011372435 
    2200   -305.53402    1.9154232    -303.6186    138.48933    1725.8791    10.395806  0.010298952 
    2300   -305.92599    2.3073536   -303.61864    166.82677    660.81635    10.395806 0.0080442796 
    2400   -305.48684    1.8682326   -303.61861    135.07735    1831.1836    10.395806  0.011858879 
    2500   -305.91871    2.3000842   -303.61863    166.30117    680.00216    10.395806 0.0079609966 
    2600   -305.61551    1.9969016   -303.61861    144.38041    1570.9427    10.395806 0.0099693596 
    2700   -305.42515    1.8065679   -303.61858    130.61886    2129.9027    10.395806  0.010346897 
    2800    -305.6547    2.0361128   -303.61858    147.21546    1534.1861    10.395806 0.0089029516 
    2900   -305.48499    1.8664138   -303.61858    134.94584    1916.9724    10.395806  0.010213494 
    3000   -305.48097    1.8624013   -303.61857    134.65573    2090.7778    10.395806  0.009627844 
    3100   -305.57692    1.9583112   -303.61861    141.59023    1508.8354    10.395806  0.010812425 
    3200   -305.92303    2.3043954   -303.61864    166.61289    647.95223    10.395806 0.0085384485 
    3300    -305.5362    1.9175945    -303.6186    138.64633    1633.9536    10.395806  0.010370678 
    3400    -305.8779    2.2592603   -303.61864    163.34952    738.18354    10.395806 0.0096003892 
    3500   -305.69798    2.0793428   -303.61864    150.34109    1192.1412    10.395806  0.010479682 
    3600   -306.01931     2.400657   -303.61866    173.57281    312.21771    10.395806 0.0082800818 
    3700   -305.49259     1.873998   -303.61859     135.4942    1844.1459    10.395806  0.010196543 
    3800   -305.50639    1.8877915    -303.6186     136.4915    1906.9687    10.395806  0.010472954 
    3900   -305.99742    2.3787671   -303.61865    171.99012    412.84279    10.395806 0.0083339631 
    4000   -305.60544    1.9868219   -303.61861    143.65162    1508.6633    10.395806 0.0097989043 
    4100   -305.71583    2.0972109   -303.61861    151.63299    1197.9769    10.395806 0.0095294083 
    4200   -305.72428    2.1056537   -303.61862    152.24342    1232.7518    10.395806 0.0092284309 
    4300   -305.91309    2.2944466   -303.61865    165.89357    637.93771    10.395806 0.0086874658 
    4400   -305.64084    2.0222158   -303.61863    146.21068    1360.5203    10.395806  0.010515451 
    4500   -305.78977     2.171148   -303.61862     156.9788    1073.7781    10.395806 0.0086906939 
    4600   -305.68433     2.065692   -303.61863     149.3541    1229.2086    10.395806  0.010817566 
    4700   -305.81985    2.2012298   -303.61862    159.15378    916.49907    10.395806  0.008573773 
    4800   -305.27238    1.6538285   -303.61855    119.57546    2545.9477    10.395806  0.011210793 
    4900   -305.74729    2.1286745   -303.61861    153.90788    1094.6253    10.395806  0.010001854 
    5000   -305.77163    2.1530052   -303.61863    155.66704    1012.6739    10.395806 0.0098904308 
    5100   -305.61543    1.9968263   -303.61861    144.37496    1405.9213    10.395806  0.010974638 
    5200   -305.73773    2.1191076   -303.61862    153.21617    1153.3939    10.395806 0.0096880133 
    5300   -305.72307    2.1044663   -303.61861    152.15757    1164.9902    10.395806 0.0095355306 
    5400    -305.5518    1.9331952    -303.6186    139.77429    1710.0036    10.395806  0.011474577 
    5500   -305.88059    2.2619634   -303.61862    163.54496    786.82876    10.395806 0.0085902699 
    5600   -305.38772    1.7691435   -303.61858    127.91299    2156.2091    10.395806  0.011526622 
    5700   -305.86539    2.2467689   -303.61863    162.44636     779.2042    10.395806 0.0087660962 
    5800   -305.58739    1.9687842   -303.61861    142.34745    1569.9356    10.395806  0.010435392 
    5900   -305.79688    2.1782512   -303.61863    157.49238    945.80348    10.395806  0.009848175 
    6000   -305.75524    2.1366121   -303.61863    154.48178    1078.5782    10.395806 0.0098241118 
    6100   -305.69486    2.0762426   -303.61862    150.11693    1164.4986    10.395806  0.010107601 
    6200   -305.78866    2.1700424   -303.61862    156.89887    1040.4879    10.395806 0.0094727256 
    6300    -305.5841    1.9655068    -303.6186    142.11049    1575.0834    10.395806  0.010743694 
    6400   -305.61645    1.9978391   -303.61861    144.44819    1489.7264    10.395806  0.010780077 
    6500   -305.93515    2.3165087   -303.61864     167.4887    594.73448    10.395806 0.0091154802 
    6600   -305.56488    1.9462719   -303.61861    140.71977    1548.7202    10.395806  0.011447564 
    6700   -305.76393    2.1453083   -303.61862    155.11053    1038.5216    10.395806 0.0088763805 
    6800   -305.83639    2.2177549   -303.61864    160.34859    801.59231    10.395806 0.0098701815 
    6900   -305.72578    2.1071528   -303.61863    152.35181    1053.6307    10.395806  0.010306606 
    7000   -305.77507    2.1564454   -303.61862    155.91578    1065.1797    10.395806 0.0084307664 
    7100   -305.63789    2.0192838   -303.61861    145.99868    1317.6776    10.395806  0.010623239 
    7200   -305.68025    2.0616421   -303.61861    149.06128       1324.6    10.395806 0.0099377118 
    7300   -305.66361    2.0450197   -303.61859    147.85945    1393.1232    10.395806 0.0092909179 
    7400   -305.44716    1.8285627   -303.61859    132.20913     1945.581    10.395806  0.012261726 
    7500   -306.15447    2.5358146   -303.61866    183.34501   -186.30279    10.395806 0.0080171947 
    7600   -305.59237    1.9737454   -303.61862    142.70616    1505.9931    10.395806  0.010900494 
    7700   -305.65444    2.0358306   -303.61861    147.19505    1403.8248    10.395806 0.0098245229 
    7800   -305.79781    2.1791764   -303.61863    157.55927    918.26699    10.395806 0.0095754736 
    7900   -305.79258    2.1739629   -303.61862    157.18233    992.40317    10.395806 0.0094338357 
    8000   -305.38447    1.7659063   -303.61856    127.67893    2266.6893    10.395806  0.010175048 
    8100   -305.56176    1.9431825   -303.61858    140.49639    1715.1635    10.395806 0.0098452101 
    8200   -305.71568    2.0970667   -303.61861    151.62256    1263.8375    10.395806  0.009910636 
    8300   -305.47056    1.8519889   -303.61857    133.90289    1921.6481    10.395806  0.010515035 
    8400   -305.66851    2.0499097    -303.6186    148.21301     1393.601    10.395806 0.0094661003 
    8500   -305.89776    2.2791001   -303.61866    164.78398    618.23544    10.395806 0.0097161545 
    8600   -305.88749    2.2688429   -303.61865    164.04236    697.52531    10.395806  0.009493549 
    8700   -305.76092    2.1422983   -303.61863     154.8929    1124.6881    10.395806  0.008496673 
    8800   -305.49581    1.8772167    -303.6186    135.72692    1837.4401    10.395806  0.011200041 
    8900   -305.84814    2.2295137   -303.61863    161.19877    830.79621    10.395806 0.0094590582 
    9000   -305.74014    2.1215326   -303.61861     153.3915    1168.4898    10.395806 0.0087144254 
    9100   -305.37641    1.7578353   -303.61858    127.09538    2251.0263    10.395806  0.012204943 
    9200   -305.72766    2.1090506   -303.61861    152.48902    1170.0251    10.395806 0.0097223647 
    9300   -305.93688    2.3182341   -303.61864    167.61345    511.36243    10.395806 0.0084833716 
    9400   -305.74679    2.1281533   -303.61864    153.87019    997.51104    10.395806  0.010665689 
    9500   -305.76894    2.1503179   -303.61862    155.47274    1063.9703    10.395806 0.0092013782 
    9600   -305.83907    2.2204299   -303.61864    160.54199    773.23426    10.395806 0.0093143358 
    9700   -305.72471    2.1060837   -303.61862    152.27451    1184.5219    10.395806  0.010262753 
    9800   -305.71035    2.0917383   -303.61861    151.23731    1245.0512    10.395806  0.009194337 
    9900   -305.50698    1.8883918   -303.61859    136.53491    1777.7298    10.395806  0.010801634 
   10000   -305.92299    2.3043647   -303.61863    166.61067    598.64851    10.395806  0.008776154 
Loop time of 2.36609 on 1 procs for 10000 steps with 108 atoms

Performance: 365.160 ns/day, 0.066 hours/ns, 4226.387 timesteps/s
99.2% CPU use with 1 MPI tasks x no OpenMP threads

MPI task timing breakdown:
Section |  min time  |  avg time  |  max time  |%varavg| %total
---------------------------------------------------------------
Pair    | 1.5956     | 1.5956     | 1.5956     |   0.0 | 67.43
Neigh   | 0          | 0          | 0          |   0.0 |  0.00
Comm    | 0.04999    | 0.04999    | 0.04999    |   0.0 |  2.11
Output  | 0.0019124  | 0.0019124  | 0.0019124  |   0.0 |  0.08
Modify  | 0.70815    | 0.70815    | 0.70815    |   0.0 | 29.93
Other   |            | 0.01046    |            |       |  0.44

Nlocal:        108.000 ave         108 max         108 min
Histogram: 1 0 0 0 0 0 0 0 0 0
Nghost:        990.000 ave         990 max         990 min
Histogram: 1 0 0 0 0 0 0 0 0 0
Neighs:        4644.00 ave        4644 max        4644 min
Histogram: 1 0 0 0 0 0 0 0 0 0

Total # of neighbors = 4644
Ave neighs/atom = 43.000000
Neighbor list builds = 0
Dangerous builds = 0
Total wall time: 0:00:02
