Header of the LAMMPS data file 

4 atoms 
1 atom types

0.0 4.198989898989899  xlo xhi
0.0 4.198989898989899  ylo yhi
0.0 4.198989898989899  zlo zhi

Masses 

1  107.8682

Atoms # atomic 

1 1 0.00000 0.00000 0.00000 
2 1 0.00000 2.09949 2.09949 
3 1 2.09949 0.00000 2.09949 
4 1 2.09949 2.09949 0.00000 
