
     Program PWSCF v.7.2 starts on  2Nov2023 at 18:15: 9 

     This program is part of the open-source Quantum ESPRESSO suite
     for quantum simulation of materials; please cite
         "P. Giannozzi et al., J. Phys.:Condens. Matter 21 395502 (2009);
         "P. Giannozzi et al., J. Phys.:Condens. Matter 29 465901 (2017);
         "P. Giannozzi et al., J. Chem. Phys. 152 154105 (2020);
          URL http://www.quantum-espresso.org", 
     in publications or presentations arising from this work. More details at
     http://www.quantum-espresso.org/quote

     Parallel version (MPI), running on     2 processors

     MPI processes distributed on     2 nodes
     187029 MiB available memory on the printing compute node when the environment starts

     Waiting for input...
     Reading input from standard input
Warning: card &CELL ignored
Warning: card / ignored

     Current dimensions of program PWSCF are:
     Max number of different atomic species (ntypx) = 10
     Max number of k-points (npk) =  40000
     Max angular momentum in pseudopotentials (lmaxx) =  4
     file O.pz-rrkjus.UPF: wavefunction(s)  2S renormalized
     Message from routine setup:
     using ibrav=0 with symmetry is DISCOURAGED, use correct ibrav instead

     R & G space division:  proc/nbgrp/npool/nimage =       2
     Subspace diagonalization in iterative solution of the eigenvalue problem:
     a serial algorithm will be used


     Parallelization info
     --------------------
     sticks:   dense  smooth     PW     G-vecs:    dense   smooth      PW
     Min         516     254     74                12418     4366     709
     Max         517     255     75                12419     4367     710
     Sum        1033     509    149                24837     8733    1419

     Using Slab Decomposition



     bravais-lattice index     =            0
     lattice parameter (alat)  =       7.3321  a.u.
     unit-cell volume          =     394.1775 (a.u.)^3
     number of atoms/cell      =            5
     number of atomic types    =            3
     number of electrons       =        44.00
     number of Kohn-Sham states=           22
     kinetic-energy cutoff     =      30.0000  Ry
     charge density cutoff     =     240.0000  Ry
     scf convergence threshold =      1.0E-07
     mixing beta               =       0.7000
     number of iterations used =            8  plain     mixing
     energy convergence thresh.=      1.0E-04
     force convergence thresh. =      1.0E-03
     Exchange-correlation= SLA  PZ   NOGX NOGC
                           (   1   1   0   0   0   0   0)
     nstep                     =           50


     celldm(1)=   7.332137  celldm(2)=   0.000000  celldm(3)=   0.000000
     celldm(4)=   0.000000  celldm(5)=   0.000000  celldm(6)=   0.000000

     crystal axes: (cart. coord. in units of alat)
               a(1) = (   1.000000   0.000000   0.000000 )  
               a(2) = (   0.000000   1.000000   0.000000 )  
               a(3) = (   0.000000   0.000000   1.000000 )  

     reciprocal axes: (cart. coord. in units 2 pi/alat)
               b(1) = (  1.000000  0.000000  0.000000 )  
               b(2) = (  0.000000  1.000000  0.000000 )  
               b(3) = (  0.000000  0.000000  1.000000 )  


     PseudoPot. # 1 for O  read from file:
     /home/gridsan/epan1/labutil/lab3_samples/pseudopotentials/O.pz-rrkjus.UPF
     MD5 check sum: 24fb942a68ef5d262e498166c462ef4a
     Pseudo is Ultrasoft, Zval =  6.0
     Generated by new atomic code, or converted to UPF format
     Using radial grid of 1269 points,  4 beta functions with: 
                l(1) =   0
                l(2) =   0
                l(3) =   1
                l(4) =   1
     Q(r) pseudized with 0 coefficients 


     PseudoPot. # 2 for Pb read from file:
     /home/gridsan/epan1/labutil/lab3_samples/pseudopotentials/Pb.pz-d-van.UPF
     MD5 check sum: 4e1e5920686a026ae26139ac417581ff
     Pseudo is Ultrasoft, Zval = 14.0
     Generated by new atomic code, or converted to UPF format
     Using radial grid of  899 points,  6 beta functions with: 
                l(1) =   0
                l(2) =   0
                l(3) =   1
                l(4) =   1
                l(5) =   2
                l(6) =   2
     Q(r) pseudized with  8 coefficients,  rinner =    1.000   1.000   1.000
                                                       1.000   1.000

     PseudoPot. # 3 for Ti read from file:
     /home/gridsan/epan1/labutil/lab3_samples/pseudopotentials/Ti.pz-sp-van_ak.UPF
     MD5 check sum: 545d0e6e05332b8871a8093f427cb0ca
     Pseudo is Ultrasoft, Zval = 12.0
     Generated by new atomic code, or converted to UPF format
     Using radial grid of  851 points,  6 beta functions with: 
                l(1) =   0
                l(2) =   0
                l(3) =   1
                l(4) =   1
                l(5) =   2
                l(6) =   2
     Q(r) pseudized with  8 coefficients,  rinner =    1.000   1.000   1.000
                                                       1.000   1.000

     atomic species   valence    mass     pseudopotential
        O              6.00    15.99900     O ( 1.00)
        Pb            14.00   207.20000     Pb( 1.00)
        Ti            12.00    47.86700     Ti( 1.00)

      8 Sym. Ops. (no inversion) found



   Cartesian axes

     site n.     atom                  positions (alat units)
         1           Pb  tau(   1) = (   0.0000000   0.0000000   0.0000000  )
         2           Ti  tau(   2) = (   0.5000000   0.5000000   0.6000000  )
         3           O   tau(   3) = (   0.0000000   0.5000000   0.5000000  )
         4           O   tau(   4) = (   0.5000000   0.0000000   0.5000000  )
         5           O   tau(   5) = (   0.5000000   0.5000000   0.0000000  )

     number of k points=     6
                       cart. coord. in units 2pi/alat
        k(    1) = (   0.1250000   0.1250000   0.1250000), wk =   0.2500000
        k(    2) = (   0.1250000   0.1250000   0.3750000), wk =   0.2500000
        k(    3) = (   0.1250000   0.3750000   0.3750000), wk =   0.5000000
        k(    4) = (   0.3750000   0.3750000   0.3750000), wk =   0.2500000
        k(    5) = (   0.3750000  -0.1250000   0.1250000), wk =   0.5000000
        k(    6) = (   0.3750000  -0.3750000   0.1250000), wk =   0.2500000

     Dense  grid:    24837 G-vectors     FFT dimensions: (  40,  40,  40)

     Smooth grid:     8733 G-vectors     FFT dimensions: (  25,  25,  25)

     Estimated max dynamical RAM per process >      51.66 MB

     Estimated total dynamical RAM >     103.32 MB

     Initial potential from superposition of free atoms

     starting charge      42.9982, renormalised to      44.0000
     Starting wfcs are   31 randomized atomic wfcs

     total cpu time spent up to now is        1.1 secs

     Self-consistent Calculation

     iteration #  1     ecut=    30.00 Ry     beta= 0.70
     Davidson diagonalization with overlap
     ethr =  1.00E-02,  avg # of iterations =  2.0

     total cpu time spent up to now is        1.3 secs

     total energy              =    -332.59520929 Ry
     estimated scf accuracy    <       1.05215918 Ry

     iteration #  2     ecut=    30.00 Ry     beta= 0.70
     Davidson diagonalization with overlap
     ethr =  2.39E-03,  avg # of iterations =  6.0

     total cpu time spent up to now is        1.7 secs

     total energy              =    -332.55646354 Ry
     estimated scf accuracy    <       2.42857493 Ry

     iteration #  3     ecut=    30.00 Ry     beta= 0.70
     Davidson diagonalization with overlap
     ethr =  2.39E-03,  avg # of iterations =  4.7

     total cpu time spent up to now is        2.0 secs

     total energy              =    -333.07664480 Ry
     estimated scf accuracy    <       0.18439746 Ry

     iteration #  4     ecut=    30.00 Ry     beta= 0.70
     Davidson diagonalization with overlap
     ethr =  4.19E-04,  avg # of iterations =  2.7

     total cpu time spent up to now is        2.3 secs

     total energy              =    -333.07646966 Ry
     estimated scf accuracy    <       0.03911129 Ry

     iteration #  5     ecut=    30.00 Ry     beta= 0.70
     Davidson diagonalization with overlap
     ethr =  8.89E-05,  avg # of iterations =  5.0

     total cpu time spent up to now is        2.7 secs

     total energy              =    -333.10186191 Ry
     estimated scf accuracy    <       0.04687293 Ry

     iteration #  6     ecut=    30.00 Ry     beta= 0.70
     Davidson diagonalization with overlap
     ethr =  8.89E-05,  avg # of iterations =  1.0

     total cpu time spent up to now is        2.9 secs

     total energy              =    -333.09467410 Ry
     estimated scf accuracy    <       0.02704896 Ry

     iteration #  7     ecut=    30.00 Ry     beta= 0.70
     Davidson diagonalization with overlap
     ethr =  6.15E-05,  avg # of iterations =  3.0

     total cpu time spent up to now is        3.2 secs

     total energy              =    -333.09969003 Ry
     estimated scf accuracy    <       0.00062074 Ry

     iteration #  8     ecut=    30.00 Ry     beta= 0.70
     Davidson diagonalization with overlap
     ethr =  1.41E-06,  avg # of iterations =  6.0

     total cpu time spent up to now is        3.6 secs

     total energy              =    -333.10033393 Ry
     estimated scf accuracy    <       0.00066542 Ry

     iteration #  9     ecut=    30.00 Ry     beta= 0.70
     Davidson diagonalization with overlap
     ethr =  1.41E-06,  avg # of iterations =  1.0

     total cpu time spent up to now is        3.9 secs

     total energy              =    -333.10023896 Ry
     estimated scf accuracy    <       0.00037402 Ry

     iteration # 10     ecut=    30.00 Ry     beta= 0.70
     Davidson diagonalization with overlap
     ethr =  8.50E-07,  avg # of iterations =  2.3

     total cpu time spent up to now is        4.1 secs

     total energy              =    -333.10027649 Ry
     estimated scf accuracy    <       0.00003515 Ry

     iteration # 11     ecut=    30.00 Ry     beta= 0.70
     Davidson diagonalization with overlap
     ethr =  7.99E-08,  avg # of iterations =  4.8

     total cpu time spent up to now is        4.5 secs

     total energy              =    -333.10029388 Ry
     estimated scf accuracy    <       0.00000838 Ry

     iteration # 12     ecut=    30.00 Ry     beta= 0.70
     Davidson diagonalization with overlap
     ethr =  1.91E-08,  avg # of iterations =  2.0

     total cpu time spent up to now is        4.7 secs

     total energy              =    -333.10029291 Ry
     estimated scf accuracy    <       0.00000289 Ry

     iteration # 13     ecut=    30.00 Ry     beta= 0.70
     Davidson diagonalization with overlap
     ethr =  6.57E-09,  avg # of iterations =  4.3

     total cpu time spent up to now is        5.1 secs

     total energy              =    -333.10029403 Ry
     estimated scf accuracy    <       0.00000110 Ry

     iteration # 14     ecut=    30.00 Ry     beta= 0.70
     Davidson diagonalization with overlap
     ethr =  2.51E-09,  avg # of iterations =  3.0

     total cpu time spent up to now is        5.4 secs

     total energy              =    -333.10029408 Ry
     estimated scf accuracy    <       0.00000016 Ry

     iteration # 15     ecut=    30.00 Ry     beta= 0.70
     Davidson diagonalization with overlap
     ethr =  3.59E-10,  avg # of iterations =  4.3

     total cpu time spent up to now is        5.7 secs

     End of self-consistent calculation

          k = 0.1250 0.1250 0.1250 (  1096 PWs)   bands (ev):

   -44.1102 -21.4951 -20.6313 -20.6304  -6.3336  -5.2688  -5.0537  -4.2342
    -4.1639  -4.1513  -3.9666  -3.9048   4.3630   6.8411   7.3187   7.8633
     8.2740   8.3442   9.2379   9.6670  10.0709  10.3358

          k = 0.1250 0.1250 0.3750 (  1095 PWs)   bands (ev):

   -44.1088 -21.5510 -20.6284 -20.6275  -5.7540  -5.2682  -4.8834  -4.2638
    -4.2308  -4.1336  -4.0117  -3.9526   3.4614   6.3845   6.5954   7.4814
     8.2597   8.5975   9.5864   9.5867  10.4544  11.0531

          k = 0.1250 0.3750 0.3750 (  1093 PWs)   bands (ev):

   -44.1075 -21.5472 -20.6824 -20.6261  -5.5647  -5.2065  -4.8398  -4.2440
    -4.2107  -4.1056  -3.9962  -3.7534   3.2445   6.1619   6.7678   7.3028
     7.8084   8.5859   9.0135   9.5106   9.8586  10.6242

          k = 0.3750 0.3750 0.3750 (  1082 PWs)   bands (ev):

   -44.1062 -21.5442 -20.6798 -20.6795  -5.4955  -5.1398  -5.0562  -4.1658
    -4.1023  -3.9069  -3.6957  -3.6423   3.9052   5.4554   5.9415   6.5673
     7.5098   7.8377   7.8391  10.1105  10.1803  10.9620

          k = 0.3750-0.1250 0.1250 (  1095 PWs)   bands (ev):

   -44.1088 -21.4922 -20.6863 -20.6286  -6.0144  -5.0760  -4.9538  -4.2502
    -4.2001  -4.1531  -4.0588  -3.9156   3.6409   7.0258   7.1488   7.5888
     8.2797   8.6404   9.1546   9.4975   9.7083  10.7786

          k = 0.3750-0.3750 0.1250 (  1093 PWs)   bands (ev):

   -44.1076 -21.4901 -20.6835 -20.6826  -5.9508  -4.8845  -4.8091  -4.1839
    -4.1778  -4.0723  -3.9782  -3.9545   3.4438   6.4061   6.5597   7.0504
     7.7395   8.7232   9.4402   9.6350  10.0313  10.9316

     highest occupied level (ev):    11.0531

!    total energy              =    -333.10029412 Ry
     estimated scf accuracy    <       0.00000007 Ry

     The total energy is the sum of the following terms:
     one-electron contribution =     -81.45665954 Ry
     hartree contribution      =      68.74220648 Ry
     xc contribution           =     -49.81070349 Ry
     ewald contribution        =    -270.57513757 Ry

     convergence has been achieved in  15 iterations

     Forces acting on atoms (cartesian axes, Ry/au):

     atom    1 type  2   force =     0.00000000    0.00000000    0.04351943
     atom    2 type  3   force =     0.00000000    0.00000000   -0.39515367
     atom    3 type  1   force =     0.00000000    0.00000000    0.01984108
     atom    4 type  1   force =     0.00000000    0.00000000    0.01984108
     atom    5 type  1   force =     0.00000000    0.00000000    0.31195208
     The non-local contrib.  to forces
     atom    1 type  2   force =     0.00000000    0.00000000   -0.02086847
     atom    2 type  3   force =     0.00000000    0.00000000    0.22081572
     atom    3 type  1   force =     0.00000000    0.00000000    0.30411309
     atom    4 type  1   force =     0.00000000    0.00000000    0.30411309
     atom    5 type  1   force =     0.00000000    0.00000000   -0.64016428
     The ionic contribution  to forces
     atom    1 type  2   force =     0.00000000    0.00000000    2.46446453
     atom    2 type  3   force =     0.00000000    0.00000000   -7.06207997
     atom    3 type  1   force =     0.00000000   -0.00000000   -2.65193316
     atom    4 type  1   force =    -0.00000000    0.00000000   -2.65193316
     atom    5 type  1   force =    -0.00000000   -0.00000000    9.90148176
     The local contribution  to forces
     atom    1 type  2   force =     0.00000000    0.00000000   -2.40017695
     atom    2 type  3   force =    -0.00000000   -0.00000000    6.44597187
     atom    3 type  1   force =     0.00000000   -0.00000000    2.36775882
     atom    4 type  1   force =    -0.00000000   -0.00000000    2.36775882
     atom    5 type  1   force =    -0.00000000   -0.00000000   -8.94964318
     The core correction contribution to forces
     atom    1 type  2   force =     0.00000000    0.00000000    0.00000000
     atom    2 type  3   force =     0.00000000    0.00000000    0.00000000
     atom    3 type  1   force =     0.00000000    0.00000000    0.00000000
     atom    4 type  1   force =     0.00000000    0.00000000    0.00000000
     atom    5 type  1   force =     0.00000000    0.00000000    0.00000000
     The Hubbard contrib.    to forces
     atom    1 type  2   force =     0.00000000    0.00000000    0.00000000
     atom    2 type  3   force =     0.00000000    0.00000000    0.00000000
     atom    3 type  1   force =     0.00000000    0.00000000    0.00000000
     atom    4 type  1   force =     0.00000000    0.00000000    0.00000000
     atom    5 type  1   force =     0.00000000    0.00000000    0.00000000
     The SCF correction term to forces
     atom    1 type  2   force =     0.00000000    0.00000000    0.00000000
     atom    2 type  3   force =     0.00000000   -0.00000000    0.00000000
     atom    3 type  1   force =    -0.00000000   -0.00000000   -0.00008933
     atom    4 type  1   force =    -0.00000000   -0.00000000   -0.00008933
     atom    5 type  1   force =    -0.00000000   -0.00000000    0.00028610

     Total force =     0.313211     Total SCF correction =     0.000313


     Computing stress (Cartesian axis) and pressure

          total   stress  (Ry/bohr**3)                   (kbar)     P=      109.83
   0.00003286   0.00000000   0.00000000            4.83        0.00        0.00
   0.00000000   0.00003286   0.00000000            0.00        4.83        0.00
   0.00000000   0.00000000   0.00217415            0.00        0.00      319.83


     BFGS Geometry Optimization
     Energy error            =      0.0E+00 Ry
     Gradient error          =      3.1E-01 Ry/Bohr

     number of scf cycles    =   1
     number of bfgs steps    =   0

     energy             new  =    -333.1002941176 Ry

     new trust radius        =       0.3119520763 bohr
     new conv_thr            =       0.0000001000 Ry


ATOMIC_POSITIONS (angstrom)
Pb            0.0000000000        0.0000000000        0.0000000000    0   0   0
Ti            1.9400000000        1.9400000000        2.3280000000    0   0   0
O             0.0000000000        1.9400000000        1.9504994479
O             1.9400000000        0.0000000000        1.9504994479
O             1.9400000000        1.9400000000        0.1650779297



     Writing config-only to output data dir /home/gridsan/epan1/labutil/lab3_samples/problem2/Lab3/PbTiO3_a_3.88_ecut_30_nk_4_displ_0.1/pwscf.save/
     NEW-OLD atomic charge density approx. for the potential

     total cpu time spent up to now is        6.9 secs

     Self-consistent Calculation

     iteration #  1     ecut=    30.00 Ry     beta= 0.70
     Davidson diagonalization with overlap
     ethr =  1.00E-06,  avg # of iterations = 11.5

     total cpu time spent up to now is        7.5 secs

     total energy              =    -333.12829741 Ry
     estimated scf accuracy    <       0.04074394 Ry

     iteration #  2     ecut=    30.00 Ry     beta= 0.70
     Davidson diagonalization with overlap
     ethr =  9.26E-05,  avg # of iterations =  6.0

     total cpu time spent up to now is        7.9 secs

     total energy              =    -333.11818563 Ry
     estimated scf accuracy    <       0.16711839 Ry

     iteration #  3     ecut=    30.00 Ry     beta= 0.70
     Davidson diagonalization with overlap
     ethr =  9.26E-05,  avg # of iterations =  5.0

     total cpu time spent up to now is        8.2 secs

     total energy              =    -333.14722795 Ry
     estimated scf accuracy    <       0.00254749 Ry

     iteration #  4     ecut=    30.00 Ry     beta= 0.70
     Davidson diagonalization with overlap
     ethr =  5.79E-06,  avg # of iterations =  3.5

     total cpu time spent up to now is        8.5 secs

     total energy              =    -333.14754450 Ry
     estimated scf accuracy    <       0.00074379 Ry

     iteration #  5     ecut=    30.00 Ry     beta= 0.70
     Davidson diagonalization with overlap
     ethr =  1.69E-06,  avg # of iterations =  3.7

     total cpu time spent up to now is        8.8 secs

     total energy              =    -333.14766283 Ry
     estimated scf accuracy    <       0.00007403 Ry

     iteration #  6     ecut=    30.00 Ry     beta= 0.70
     Davidson diagonalization with overlap
     ethr =  1.68E-07,  avg # of iterations =  4.5

     total cpu time spent up to now is        9.2 secs

     total energy              =    -333.14769368 Ry
     estimated scf accuracy    <       0.00000396 Ry

     iteration #  7     ecut=    30.00 Ry     beta= 0.70
     Davidson diagonalization with overlap
     ethr =  9.00E-09,  avg # of iterations =  4.0

     total cpu time spent up to now is        9.5 secs

     total energy              =    -333.14769424 Ry
     estimated scf accuracy    <       0.00000254 Ry

     iteration #  8     ecut=    30.00 Ry     beta= 0.70
     Davidson diagonalization with overlap
     ethr =  5.78E-09,  avg # of iterations =  2.3

     total cpu time spent up to now is        9.8 secs

     total energy              =    -333.14769413 Ry
     estimated scf accuracy    <       0.00000083 Ry

     iteration #  9     ecut=    30.00 Ry     beta= 0.70
     Davidson diagonalization with overlap
     ethr =  1.90E-09,  avg # of iterations =  4.5

     total cpu time spent up to now is       10.1 secs

     total energy              =    -333.14769445 Ry
     estimated scf accuracy    <       0.00000014 Ry

     iteration # 10     ecut=    30.00 Ry     beta= 0.70
     Davidson diagonalization with overlap
     ethr =  3.09E-10,  avg # of iterations =  2.0

     total cpu time spent up to now is       10.4 secs

     End of self-consistent calculation

          k = 0.1250 0.1250 0.1250 (  1096 PWs)   bands (ev):

   -44.5166 -21.3248 -21.0993 -21.0985  -6.4057  -5.2823  -5.1235  -4.1272
    -4.0858  -4.0757  -3.8990  -3.8639   4.4756   7.1354   7.2574   7.9802
     8.6459   8.8629   9.3921   9.6374  10.1594  10.2080

          k = 0.1250 0.1250 0.3750 (  1095 PWs)   bands (ev):

   -44.5153 -21.3833 -21.0968 -21.0958  -5.8689  -5.2367  -4.9757  -4.1691
    -4.1233  -4.0635  -3.9662  -3.8832   3.6737   6.6857   6.8028   7.5671
     8.5327   8.6496   9.5316   9.6416  10.3283  11.0458

          k = 0.1250 0.3750 0.3750 (  1093 PWs)   bands (ev):

   -44.5141 -21.3797 -21.1478 -21.0946  -5.6593  -5.1659  -4.9269  -4.1454
    -4.1064  -4.0348  -3.9355  -3.7227   3.4129   6.4313   6.9469   7.2006
     7.7241   8.7317   9.2433   9.6482   9.9487  10.6132

          k = 0.3750 0.3750 0.3750 (  1082 PWs)   bands (ev):

   -44.5127 -21.3769 -21.1454 -21.1452  -5.4762  -5.1861  -5.1176  -4.0634
    -4.0260  -3.8045  -3.6704  -3.6297   4.0397   5.8037   6.0061   6.5040
     7.4748   7.6415   8.0352  10.3973  10.4731  10.8526

          k = 0.3750-0.1250 0.1250 (  1095 PWs)   bands (ev):

   -44.5154 -21.3222 -21.1514 -21.0968  -6.0560  -5.1244  -5.0339  -4.1574
    -4.1078  -4.0760  -3.9877  -3.8645   3.7758   7.0432   7.4056   7.7432
     8.3710   8.8254   9.2543   9.6557   9.8153  10.8117

          k = 0.3750-0.3750 0.1250 (  1093 PWs)   bands (ev):

   -44.5141 -21.3202 -21.1487 -21.1479  -5.9390  -4.9724  -4.8979  -4.1101
    -4.0870  -4.0104  -3.9276  -3.8580   3.4863   6.8363   6.9034   7.1675
     7.6472   8.7148   9.5879   9.6088   9.9903  10.8393

     highest occupied level (ev):    11.0458

!    total energy              =    -333.14769440 Ry
     estimated scf accuracy    <       0.00000006 Ry

     The total energy is the sum of the following terms:
     one-electron contribution =     -77.22734651 Ry
     hartree contribution      =      66.53128080 Ry
     xc contribution           =     -49.65180018 Ry
     ewald contribution        =    -272.79982851 Ry

     convergence has been achieved in  10 iterations

     Forces acting on atoms (cartesian axes, Ry/au):

     atom    1 type  2   force =     0.00000000    0.00000000    0.04500448
     atom    2 type  3   force =     0.00000000    0.00000000   -0.14069697
     atom    3 type  1   force =     0.00000000    0.00000000    0.03720433
     atom    4 type  1   force =     0.00000000    0.00000000    0.03720433
     atom    5 type  1   force =     0.00000000    0.00000000    0.02128384
     The non-local contrib.  to forces
     atom    1 type  2   force =     0.00000000    0.00000000   -0.02758333
     atom    2 type  3   force =     0.00000000    0.00000000    0.08160457
     atom    3 type  1   force =     0.00000000    0.00000000    0.35759342
     atom    4 type  1   force =     0.00000000    0.00000000    0.35759342
     atom    5 type  1   force =     0.00000000    0.00000000   -0.54231600
     The ionic contribution  to forces
     atom    1 type  2   force =     0.00000000    0.00000000    2.02088613
     atom    2 type  3   force =     0.00000000    0.00000000   -2.68415627
     atom    3 type  1   force =     0.00000000    0.00000000   -2.21333438
     atom    4 type  1   force =    -0.00000000    0.00000000   -2.21333438
     atom    5 type  1   force =     0.00000000    0.00000000    5.08993889
     The local contribution  to forces
     atom    1 type  2   force =     0.00000000   -0.00000000   -1.94816944
     atom    2 type  3   force =    -0.00000000   -0.00000000    2.46183157
     atom    3 type  1   force =     0.00000000   -0.00000000    1.89282045
     atom    4 type  1   force =    -0.00000000    0.00000000    1.89282045
     atom    5 type  1   force =    -0.00000000   -0.00000000   -4.52615642
     The core correction contribution to forces
     atom    1 type  2   force =     0.00000000    0.00000000    0.00000000
     atom    2 type  3   force =     0.00000000    0.00000000    0.00000000
     atom    3 type  1   force =     0.00000000    0.00000000    0.00000000
     atom    4 type  1   force =     0.00000000    0.00000000    0.00000000
     atom    5 type  1   force =     0.00000000    0.00000000    0.00000000
     The Hubbard contrib.    to forces
     atom    1 type  2   force =     0.00000000    0.00000000    0.00000000
     atom    2 type  3   force =     0.00000000    0.00000000    0.00000000
     atom    3 type  1   force =     0.00000000    0.00000000    0.00000000
     atom    4 type  1   force =     0.00000000    0.00000000    0.00000000
     atom    5 type  1   force =     0.00000000    0.00000000    0.00000000
     The SCF correction term to forces
     atom    1 type  2   force =     0.00000000    0.00000000   -0.00000000
     atom    2 type  3   force =     0.00000000   -0.00000000    0.00000000
     atom    3 type  1   force =    -0.00000000   -0.00000000    0.00011019
     atom    4 type  1   force =    -0.00000000    0.00000000    0.00011019
     atom    5 type  1   force =     0.00000000    0.00000000   -0.00019728

     Total force =     0.056757     Total SCF correction =     0.000251


     Computing stress (Cartesian axis) and pressure

          total   stress  (Ry/bohr**3)                   (kbar)     P=       -1.22
  -0.00014984   0.00000000   0.00000000          -22.04        0.00        0.00
   0.00000000  -0.00014984   0.00000000            0.00      -22.04        0.00
   0.00000000   0.00000000   0.00027488            0.00        0.00       40.44

     Energy error            =      4.7E-02 Ry
     Gradient error          =      3.7E-02 Ry/Bohr

     number of scf cycles    =   2
     number of bfgs steps    =   1

     energy             old  =    -333.1002941176 Ry
     energy             new  =    -333.1476944046 Ry

     CASE: energy            _new < energy            _old

     new trust radius        =       0.0411727617 bohr
     new conv_thr            =       0.0000000372 Ry


ATOMIC_POSITIONS (angstrom)
Pb            0.0000000000        0.0000000000        0.0000000000    0   0   0
Ti            1.9400000000        1.9400000000        2.3280000000    0   0   0
O             0.0000000000        1.9400000000        1.9722871351
O             1.9400000000        0.0000000000        1.9722871351
O             1.9400000000        1.9400000000        0.1824563395



     Writing config-only to output data dir /home/gridsan/epan1/labutil/lab3_samples/problem2/Lab3/PbTiO3_a_3.88_ecut_30_nk_4_displ_0.1/pwscf.save/
     NEW-OLD atomic charge density approx. for the potential

     total cpu time spent up to now is       12.5 secs

     Self-consistent Calculation

     iteration #  1     ecut=    30.00 Ry     beta= 0.70
     Davidson diagonalization with overlap
     ethr =  1.00E-06,  avg # of iterations =  8.5

     total cpu time spent up to now is       13.0 secs

     total energy              =    -333.15104831 Ry
     estimated scf accuracy    <       0.00045516 Ry

     iteration #  2     ecut=    30.00 Ry     beta= 0.70
     Davidson diagonalization with overlap
     ethr =  1.03E-06,  avg # of iterations =  5.2

     total cpu time spent up to now is       13.4 secs

     total energy              =    -333.15099981 Ry
     estimated scf accuracy    <       0.00057718 Ry

     iteration #  3     ecut=    30.00 Ry     beta= 0.70
     Davidson diagonalization with overlap
     ethr =  1.03E-06,  avg # of iterations =  4.2

     total cpu time spent up to now is       13.7 secs

     total energy              =    -333.15114989 Ry
     estimated scf accuracy    <       0.00011850 Ry

     iteration #  4     ecut=    30.00 Ry     beta= 0.70
     Davidson diagonalization with overlap
     ethr =  2.69E-07,  avg # of iterations =  3.0

     total cpu time spent up to now is       14.0 secs

     total energy              =    -333.15115587 Ry
     estimated scf accuracy    <       0.00001934 Ry

     iteration #  5     ecut=    30.00 Ry     beta= 0.70
     Davidson diagonalization with overlap
     ethr =  4.40E-08,  avg # of iterations =  4.5

     total cpu time spent up to now is       14.3 secs

     total energy              =    -333.15116473 Ry
     estimated scf accuracy    <       0.00000369 Ry

     iteration #  6     ecut=    30.00 Ry     beta= 0.70
     Davidson diagonalization with overlap
     ethr =  8.39E-09,  avg # of iterations =  1.8

     total cpu time spent up to now is       14.6 secs

     total energy              =    -333.15116429 Ry
     estimated scf accuracy    <       0.00000185 Ry

     iteration #  7     ecut=    30.00 Ry     beta= 0.70
     Davidson diagonalization with overlap
     ethr =  4.20E-09,  avg # of iterations =  3.5

     total cpu time spent up to now is       14.9 secs

     End of self-consistent calculation

          k = 0.1250 0.1250 0.1250 (  1096 PWs)   bands (ev):

   -44.5509 -21.3238 -21.1385 -21.1377  -6.4028  -5.2921  -5.1511  -4.1174
    -4.0794  -4.0697  -3.8949  -3.8621   4.4856   7.1529   7.2497   7.9883
     8.6885   8.9164   9.4149   9.6519  10.1596  10.1777

          k = 0.1250 0.1250 0.3750 (  1095 PWs)   bands (ev):

   -44.5496 -21.3821 -21.1360 -21.1351  -5.8817  -5.2322  -5.0085  -4.1595
    -4.1135  -4.0580  -3.9626  -3.8774   3.6992   6.6991   6.8576   7.5834
     8.5425   8.6185   9.5122   9.6670  10.2963  11.0260

          k = 0.1250 0.3750 0.3750 (  1093 PWs)   bands (ev):

   -44.5483 -21.3786 -21.1876 -21.1339  -5.6725  -5.1570  -4.9446  -4.1364
    -4.0969  -4.0284  -3.9295  -3.7226   3.4240   6.4640   6.9733   7.1532
     7.6754   8.7291   9.2551   9.6242   9.9760  10.6085

          k = 0.3750 0.3750 0.3750 (  1082 PWs)   bands (ev):

   -44.5470 -21.3758 -21.1852 -21.1850  -5.4596  -5.1955  -5.1315  -4.0542
    -4.0198  -3.7927  -3.6685  -3.6289   4.0397   5.8204   5.9859   6.5199
     7.4292   7.5640   8.0397  10.4281  10.5033  10.8241

          k = 0.3750-0.1250 0.1250 (  1095 PWs)   bands (ev):

   -44.5496 -21.3212 -21.1912 -21.1360  -6.0456  -5.1420  -5.0545  -4.1497
    -4.0997  -4.0698  -3.9785  -3.8598   3.7843   7.0114   7.4056   7.7427
     8.3677   8.8354   9.2398   9.6929   9.8296  10.8090

          k = 0.3750-0.3750 0.1250 (  1093 PWs)   bands (ev):

   -44.5484 -21.3192 -21.1884 -21.1877  -5.9189  -4.9910  -4.9170  -4.1043
    -4.0787  -4.0036  -3.9212  -3.8471   3.4802   6.8284   6.9200   7.1720
     7.6033   8.7022   9.5692   9.6011   9.9809  10.8143

     highest occupied level (ev):    11.0260

!    total energy              =    -333.15116468 Ry
     estimated scf accuracy    <       0.00000001 Ry

     The total energy is the sum of the following terms:
     one-electron contribution =     -77.26785774 Ry
     hartree contribution      =      66.54086307 Ry
     xc contribution           =     -49.64680462 Ry
     ewald contribution        =    -272.77736538 Ry

     convergence has been achieved in   7 iterations

     Forces acting on atoms (cartesian axes, Ry/au):

     atom    1 type  2   force =     0.00000000    0.00000000    0.04319744
     atom    2 type  3   force =     0.00000000    0.00000000   -0.12219076
     atom    3 type  1   force =     0.00000000    0.00000000    0.03600581
     atom    4 type  1   force =     0.00000000    0.00000000    0.03600581
     atom    5 type  1   force =     0.00000000    0.00000000    0.00698169
     The non-local contrib.  to forces
     atom    1 type  2   force =     0.00000000    0.00000000   -0.04404135
     atom    2 type  3   force =     0.00000000    0.00000000    0.07223487
     atom    3 type  1   force =     0.00000000    0.00000000    0.35305496
     atom    4 type  1   force =     0.00000000    0.00000000    0.35305496
     atom    5 type  1   force =     0.00000000    0.00000000   -0.51568793
     The ionic contribution  to forces
     atom    1 type  2   force =     0.00000000    0.00000000    2.25989072
     atom    2 type  3   force =     0.00000000    0.00000000   -2.49586185
     atom    3 type  1   force =     0.00000000   -0.00000000   -2.24976145
     atom    4 type  1   force =    -0.00000000    0.00000000   -2.24976145
     atom    5 type  1   force =    -0.00000000   -0.00000000    4.73549402
     The local contribution  to forces
     atom    1 type  2   force =     0.00000000   -0.00000000   -2.17269743
     atom    2 type  3   force =    -0.00000000   -0.00000000    2.30134366
     atom    3 type  1   force =     0.00000000   -0.00000000    1.93267999
     atom    4 type  1   force =    -0.00000000    0.00000000    1.93267999
     atom    5 type  1   force =    -0.00000000   -0.00000000   -4.21284016
     The core correction contribution to forces
     atom    1 type  2   force =     0.00000000    0.00000000    0.00000000
     atom    2 type  3   force =     0.00000000    0.00000000    0.00000000
     atom    3 type  1   force =     0.00000000    0.00000000    0.00000000
     atom    4 type  1   force =     0.00000000    0.00000000    0.00000000
     atom    5 type  1   force =     0.00000000    0.00000000    0.00000000
     The Hubbard contrib.    to forces
     atom    1 type  2   force =     0.00000000    0.00000000    0.00000000
     atom    2 type  3   force =     0.00000000    0.00000000    0.00000000
     atom    3 type  1   force =     0.00000000    0.00000000    0.00000000
     atom    4 type  1   force =     0.00000000    0.00000000    0.00000000
     atom    5 type  1   force =     0.00000000    0.00000000    0.00000000
     The SCF correction term to forces
     atom    1 type  2   force =     0.00000000   -0.00000000    0.00000000
     atom    2 type  3   force =    -0.00000000   -0.00000000    0.00000000
     atom    3 type  1   force =     0.00000000   -0.00000000    0.00002374
     atom    4 type  1   force =    -0.00000000   -0.00000000    0.00002374
     atom    5 type  1   force =    -0.00000000   -0.00000000    0.00000718

     Total force =     0.051396     Total SCF correction =     0.000034


     Computing stress (Cartesian axis) and pressure

          total   stress  (Ry/bohr**3)                   (kbar)     P=       -4.52
  -0.00013744   0.00000000   0.00000000          -20.22        0.00        0.00
   0.00000000  -0.00013744   0.00000000            0.00      -20.22        0.00
   0.00000000   0.00000000   0.00018275            0.00        0.00       26.88

     Energy error            =      3.5E-03 Ry
     Gradient error          =      3.6E-02 Ry/Bohr

     number of scf cycles    =   3
     number of bfgs steps    =   2

     energy             old  =    -333.1476944046 Ry
     energy             new  =    -333.1511646780 Ry

     CASE: energy            _new < energy            _old


     WARNING: bfgs curvature condition failed, Theta= 0.942
     new trust radius        =       0.0452900379 bohr
     new conv_thr            =       0.0000000347 Ry


ATOMIC_POSITIONS (angstrom)
Pb            0.0000000000        0.0000000000        0.0000000000    0   0   0
Ti            1.9400000000        1.9400000000        2.3280000000    0   0   0
O             0.0000000000        1.9400000000        1.9962535911
O             1.9400000000        0.0000000000        1.9962535911
O             1.9400000000        1.9400000000        0.1952205198



     Writing config-only to output data dir /home/gridsan/epan1/labutil/lab3_samples/problem2/Lab3/PbTiO3_a_3.88_ecut_30_nk_4_displ_0.1/pwscf.save/
     NEW-OLD atomic charge density approx. for the potential

     total cpu time spent up to now is       17.0 secs

     Self-consistent Calculation

     iteration #  1     ecut=    30.00 Ry     beta= 0.70
     Davidson diagonalization with overlap
     ethr =  1.00E-06,  avg # of iterations =  8.3

     total cpu time spent up to now is       17.4 secs

     total energy              =    -333.15431076 Ry
     estimated scf accuracy    <       0.00041481 Ry

     iteration #  2     ecut=    30.00 Ry     beta= 0.70
     Davidson diagonalization with overlap
     ethr =  9.43E-07,  avg # of iterations =  4.0

     total cpu time spent up to now is       17.8 secs

     total energy              =    -333.15430534 Ry
     estimated scf accuracy    <       0.00032950 Ry

     iteration #  3     ecut=    30.00 Ry     beta= 0.70
     Davidson diagonalization with overlap
     ethr =  7.49E-07,  avg # of iterations =  4.0

     total cpu time spent up to now is       18.1 secs

     total energy              =    -333.15438782 Ry
     estimated scf accuracy    <       0.00013921 Ry

     iteration #  4     ecut=    30.00 Ry     beta= 0.70
     Davidson diagonalization with overlap
     ethr =  3.16E-07,  avg # of iterations =  3.3

     total cpu time spent up to now is       18.4 secs

     total energy              =    -333.15439883 Ry
     estimated scf accuracy    <       0.00001595 Ry

     iteration #  5     ecut=    30.00 Ry     beta= 0.70
     Davidson diagonalization with overlap
     ethr =  3.63E-08,  avg # of iterations =  4.8

     total cpu time spent up to now is       18.7 secs

     total energy              =    -333.15441038 Ry
     estimated scf accuracy    <       0.00001645 Ry

     iteration #  6     ecut=    30.00 Ry     beta= 0.70
     Davidson diagonalization with overlap
     ethr =  3.63E-08,  avg # of iterations =  1.0

     total cpu time spent up to now is       19.0 secs

     total energy              =    -333.15440827 Ry
     estimated scf accuracy    <       0.00000942 Ry

     iteration #  7     ecut=    30.00 Ry     beta= 0.70
     Davidson diagonalization with overlap
     ethr =  2.14E-08,  avg # of iterations =  2.5

     total cpu time spent up to now is       19.3 secs

     total energy              =    -333.15440977 Ry
     estimated scf accuracy    <       0.00000047 Ry

     iteration #  8     ecut=    30.00 Ry     beta= 0.70
     Davidson diagonalization with overlap
     ethr =  1.08E-09,  avg # of iterations =  4.8

     total cpu time spent up to now is       19.6 secs

     total energy              =    -333.15441002 Ry
     estimated scf accuracy    <       0.00000004 Ry

     iteration #  9     ecut=    30.00 Ry     beta= 0.70
     Davidson diagonalization with overlap
     ethr =  9.89E-11,  avg # of iterations =  4.8

     total cpu time spent up to now is       19.9 secs

     total energy              =    -333.15441000 Ry
     estimated scf accuracy    <       0.00000013 Ry

     iteration # 10     ecut=    30.00 Ry     beta= 0.70
     Davidson diagonalization with overlap
     ethr =  9.89E-11,  avg # of iterations =  4.2

     total cpu time spent up to now is       20.3 secs

     End of self-consistent calculation

          k = 0.1250 0.1250 0.1250 (  1096 PWs)   bands (ev):

   -44.5756 -21.3247 -21.1676 -21.1668  -6.4009  -5.3039  -5.1808  -4.1087
    -4.0736  -4.0644  -3.8916  -3.8589   4.4944   7.1676   7.2454   7.9985
     8.7176   8.9488   9.4378   9.6672  10.1467  10.1524

          k = 0.1250 0.1250 0.3750 (  1095 PWs)   bands (ev):

   -44.5743 -21.3829 -21.1652 -21.1643  -5.8954  -5.2303  -5.0435  -4.1503
    -4.1046  -4.0528  -3.9576  -3.8723   3.7219   6.7115   6.9088   7.6026
     8.5418   8.5787   9.4890   9.6911  10.2633  11.0036

          k = 0.1250 0.3750 0.3750 (  1093 PWs)   bands (ev):

   -44.5731 -21.3794 -21.2174 -21.1630  -5.6870  -5.1511  -4.9632  -4.1282
    -4.0885  -4.0223  -3.9234  -3.7213   3.4319   6.4928   6.9955   7.1068
     7.6257   8.7232   9.2562   9.5961   9.9964  10.6023

          k = 0.3750 0.3750 0.3750 (  1082 PWs)   bands (ev):

   -44.5717 -21.3767 -21.2150 -21.2147  -5.4454  -5.2059  -5.1464  -4.0460
    -4.0140  -3.7822  -3.6659  -3.6267   4.0346   5.8294   5.9624   6.5377
     7.3783   7.4854   8.0441  10.4496  10.5245  10.7944

          k = 0.3750-0.1250 0.1250 (  1095 PWs)   bands (ev):

   -44.5743 -21.3222 -21.2210 -21.1651  -6.0367  -5.1622  -5.0758  -4.1428
    -4.0922  -4.0642  -3.9685  -3.8545   3.7896   6.9775   7.3985   7.7434
     8.3627   8.8303   9.2266   9.7194   9.8410  10.8042

          k = 0.3750-0.3750 0.1250 (  1093 PWs)   bands (ev):

   -44.5731 -21.3202 -21.2182 -21.2174  -5.9007  -5.0112  -4.9377  -4.0989
    -4.0707  -3.9956  -3.9132  -3.8373   3.4710   6.8161   6.9229   7.1670
     7.5570   8.6895   9.5498   9.5844   9.9749  10.7880

     highest occupied level (ev):    11.0036

!    total energy              =    -333.15441000 Ry
     estimated scf accuracy    <       0.00000001 Ry

     The total energy is the sum of the following terms:
     one-electron contribution =     -77.44537096 Ry
     hartree contribution      =      66.62029095 Ry
     xc contribution           =     -49.64654520 Ry
     ewald contribution        =    -272.68278480 Ry

     convergence has been achieved in  10 iterations

     Forces acting on atoms (cartesian axes, Ry/au):

     atom    1 type  2   force =     0.00000000    0.00000000    0.04105726
     atom    2 type  3   force =     0.00000000    0.00000000   -0.10880595
     atom    3 type  1   force =     0.00000000    0.00000000    0.03393844
     atom    4 type  1   force =     0.00000000    0.00000000    0.03393844
     atom    5 type  1   force =     0.00000000    0.00000000   -0.00012820
     The non-local contrib.  to forces
     atom    1 type  2   force =     0.00000000    0.00000000   -0.06233487
     atom    2 type  3   force =     0.00000000    0.00000000    0.06531611
     atom    3 type  1   force =     0.00000000    0.00000000    0.34530215
     atom    4 type  1   force =     0.00000000    0.00000000    0.34530215
     atom    5 type  1   force =     0.00000000    0.00000000   -0.49047911
     The ionic contribution  to forces
     atom    1 type  2   force =     0.00000000    0.00000000    2.54463767
     atom    2 type  3   force =     0.00000000    0.00000000   -2.46178979
     atom    3 type  1   force =     0.00000000   -0.00000000   -2.30331296
     atom    4 type  1   force =    -0.00000000    0.00000000   -2.30331296
     atom    5 type  1   force =    -0.00000000   -0.00000000    4.52377804
     The local contribution  to forces
     atom    1 type  2   force =     0.00000000   -0.00000000   -2.44118487
     atom    2 type  3   force =    -0.00000000   -0.00000000    2.28760854
     atom    3 type  1   force =     0.00000000   -0.00000000    1.99190215
     atom    4 type  1   force =    -0.00000000    0.00000000    1.99190215
     atom    5 type  1   force =    -0.00000000   -0.00000000   -4.03333588
     The core correction contribution to forces
     atom    1 type  2   force =     0.00000000    0.00000000    0.00000000
     atom    2 type  3   force =     0.00000000    0.00000000    0.00000000
     atom    3 type  1   force =     0.00000000    0.00000000    0.00000000
     atom    4 type  1   force =     0.00000000    0.00000000    0.00000000
     atom    5 type  1   force =     0.00000000    0.00000000    0.00000000
     The Hubbard contrib.    to forces
     atom    1 type  2   force =     0.00000000    0.00000000    0.00000000
     atom    2 type  3   force =     0.00000000    0.00000000    0.00000000
     atom    3 type  1   force =     0.00000000    0.00000000    0.00000000
     atom    4 type  1   force =     0.00000000    0.00000000    0.00000000
     atom    5 type  1   force =     0.00000000    0.00000000    0.00000000
     The SCF correction term to forces
     atom    1 type  2   force =     0.00000000   -0.00000000   -0.00000000
     atom    2 type  3   force =    -0.00000000   -0.00000000    0.00000000
     atom    3 type  1   force =     0.00000000    0.00000000    0.00004979
     atom    4 type  1   force =     0.00000000    0.00000000    0.00004979
     atom    5 type  1   force =     0.00000000    0.00000000   -0.00008857

     Total force =     0.047996     Total SCF correction =     0.000113


     Computing stress (Cartesian axis) and pressure

          total   stress  (Ry/bohr**3)                   (kbar)     P=       -5.64
  -0.00012295   0.00000000   0.00000000          -18.09        0.00        0.00
   0.00000000  -0.00012295   0.00000000            0.00      -18.09        0.00
   0.00000000   0.00000000   0.00013080            0.00        0.00       19.24

     Energy error            =      3.2E-03 Ry
     Gradient error          =      3.4E-02 Ry/Bohr

     number of scf cycles    =   4
     number of bfgs steps    =   3

     energy             old  =    -333.1511646780 Ry
     energy             new  =    -333.1544100016 Ry

     CASE: energy            _new < energy            _old

     new trust radius        =       0.0679350569 bohr
     new conv_thr            =       0.0000000325 Ry


ATOMIC_POSITIONS (angstrom)
Pb            0.0000000000        0.0000000000        0.0000000000    0   0   0
Ti            1.9400000000        1.9400000000        2.3280000000    0   0   0
O             0.0000000000        1.9400000000        2.0322032750
O             1.9400000000        0.0000000000        2.0322032750
O             1.9400000000        1.9400000000        0.2099793957



     Writing config-only to output data dir /home/gridsan/epan1/labutil/lab3_samples/problem2/Lab3/PbTiO3_a_3.88_ecut_30_nk_4_displ_0.1/pwscf.save/
     NEW-OLD atomic charge density approx. for the potential

     total cpu time spent up to now is       21.4 secs

     Self-consistent Calculation

     iteration #  1     ecut=    30.00 Ry     beta= 0.70
     Davidson diagonalization with overlap
     ethr =  1.00E-06,  avg # of iterations =  9.0

     total cpu time spent up to now is       21.9 secs

     total energy              =    -333.15852464 Ry
     estimated scf accuracy    <       0.00081399 Ry

     iteration #  2     ecut=    30.00 Ry     beta= 0.70
     Davidson diagonalization with overlap
     ethr =  1.85E-06,  avg # of iterations =  4.0

     total cpu time spent up to now is       22.2 secs

     total energy              =    -333.15859465 Ry
     estimated scf accuracy    <       0.00027163 Ry

     iteration #  3     ecut=    30.00 Ry     beta= 0.70
     Davidson diagonalization with overlap
     ethr =  6.17E-07,  avg # of iterations =  4.3

     total cpu time spent up to now is       22.6 secs

     total energy              =    -333.15865389 Ry
     estimated scf accuracy    <       0.00020964 Ry

     iteration #  4     ecut=    30.00 Ry     beta= 0.70
     Davidson diagonalization with overlap
     ethr =  4.76E-07,  avg # of iterations =  4.0

     total cpu time spent up to now is       22.9 secs

     total energy              =    -333.15869103 Ry
     estimated scf accuracy    <       0.00000190 Ry

     iteration #  5     ecut=    30.00 Ry     beta= 0.70
     Davidson diagonalization with overlap
     ethr =  4.33E-09,  avg # of iterations =  7.5

     total cpu time spent up to now is       23.3 secs

     total energy              =    -333.15869524 Ry
     estimated scf accuracy    <       0.00000809 Ry

     iteration #  6     ecut=    30.00 Ry     beta= 0.70
     Davidson diagonalization with overlap
     ethr =  4.33E-09,  avg # of iterations =  4.0

     total cpu time spent up to now is       23.6 secs

     total energy              =    -333.15869501 Ry
     estimated scf accuracy    <       0.00000204 Ry

     iteration #  7     ecut=    30.00 Ry     beta= 0.70
     Davidson diagonalization with overlap
     ethr =  4.33E-09,  avg # of iterations =  4.5

     total cpu time spent up to now is       23.9 secs

     total energy              =    -333.15869551 Ry
     estimated scf accuracy    <       0.00000010 Ry

     iteration #  8     ecut=    30.00 Ry     beta= 0.70
     Davidson diagonalization with overlap
     ethr =  2.25E-10,  avg # of iterations =  3.2

     total cpu time spent up to now is       24.2 secs

     total energy              =    -333.15869550 Ry
     estimated scf accuracy    <       0.00000009 Ry

     iteration #  9     ecut=    30.00 Ry     beta= 0.70
     Davidson diagonalization with overlap
     ethr =  2.01E-10,  avg # of iterations =  4.0

     total cpu time spent up to now is       24.5 secs

     End of self-consistent calculation

          k = 0.1250 0.1250 0.1250 (  1096 PWs)   bands (ev):

   -44.6037 -21.3273 -21.2017 -21.2008  -6.4017  -5.3202  -5.2265  -4.0955
    -4.0647  -4.0560  -3.8862  -3.8502   4.5068   7.1848   7.2422   8.0144
     8.7504   8.9771   9.4746   9.6887  10.0998  10.1357

          k = 0.1250 0.1250 0.3750 (  1095 PWs)   bands (ev):

   -44.6024 -21.3851 -21.1992 -21.1983  -5.9197  -5.2264  -5.0970  -4.1360
    -4.0911  -4.0445  -3.9467  -3.8641   3.7535   6.7278   6.9796   7.6303
     8.5153   8.5362   9.4515   9.7228  10.2138  10.9707

          k = 0.1250 0.3750 0.3750 (  1093 PWs)   bands (ev):

   -44.6012 -21.3817 -21.2524 -21.1970  -5.7119  -5.1433  -4.9925  -4.1155
    -4.0760  -4.0121  -3.9128  -3.7163   3.4418   6.5313   7.0004   7.0635
     7.5571   8.7086   9.2524   9.5525  10.0201  10.5936

          k = 0.3750 0.3750 0.3750 (  1082 PWs)   bands (ev):

   -44.5999 -21.3790 -21.2499 -21.2496  -5.4285  -5.2213  -5.1705  -4.0335
    -4.0048  -3.7673  -3.6596  -3.6204   4.0219   5.8377   5.9269   6.5627
     7.3021   7.3754   8.0561  10.4726  10.5467  10.7497

          k = 0.3750-0.1250 0.1250 (  1095 PWs)   bands (ev):

   -44.6025 -21.3248 -21.2559 -21.1991  -6.0275  -5.1931  -5.1077  -4.1324
    -4.0803  -4.0553  -3.9516  -3.8443   3.7946   6.9281   7.3805   7.7469
     8.3562   8.8092   9.2121   9.7447   9.8579  10.7969

          k = 0.3750-0.3750 0.1250 (  1093 PWs)   bands (ev):

   -44.6012 -21.3229 -21.2531 -21.2523  -5.8761  -5.0435  -4.9715  -4.0903
    -4.0580  -3.9807  -3.8976  -3.8224   3.4543   6.7952   6.9142   7.1515
     7.4938   8.6735   9.5236   9.5537   9.9733  10.7481

     highest occupied level (ev):    10.9707

!    total energy              =    -333.15869550 Ry
     estimated scf accuracy    <          5.6E-09 Ry

     The total energy is the sum of the following terms:
     one-electron contribution =     -77.81614450 Ry
     hartree contribution      =      66.79453230 Ry
     xc contribution           =     -49.64961451 Ry
     ewald contribution        =    -272.48746879 Ry

     convergence has been achieved in   9 iterations

     Forces acting on atoms (cartesian axes, Ry/au):

     atom    1 type  2   force =     0.00000000    0.00000000    0.03823212
     atom    2 type  3   force =     0.00000000    0.00000000   -0.09387797
     atom    3 type  1   force =     0.00000000    0.00000000    0.03024899
     atom    4 type  1   force =     0.00000000    0.00000000    0.03024899
     atom    5 type  1   force =     0.00000000    0.00000000   -0.00485212
     The non-local contrib.  to forces
     atom    1 type  2   force =     0.00000000    0.00000000   -0.08933793
     atom    2 type  3   force =     0.00000000    0.00000000    0.05752986
     atom    3 type  1   force =     0.00000000    0.00000000    0.33124159
     atom    4 type  1   force =     0.00000000    0.00000000    0.33124159
     atom    5 type  1   force =     0.00000000    0.00000000   -0.45534184
     The ionic contribution  to forces
     atom    1 type  2   force =     0.00000000    0.00000000    2.98561854
     atom    2 type  3   force =     0.00000000    0.00000000   -2.54084930
     atom    3 type  1   force =     0.00000000    0.00000000   -2.38712915
     atom    4 type  1   force =     0.00000000    0.00000000   -2.38712915
     atom    5 type  1   force =     0.00000000    0.00000000    4.32948906
     The local contribution  to forces
     atom    1 type  2   force =     0.00000000    0.00000000   -2.85802256
     atom    2 type  3   force =    -0.00000000   -0.00000000    2.38940826
     atom    3 type  1   force =     0.00000000   -0.00000000    2.08610218
     atom    4 type  1   force =    -0.00000000    0.00000000    2.08610218
     atom    5 type  1   force =    -0.00000000   -0.00000000   -3.87896168
     The core correction contribution to forces
     atom    1 type  2   force =     0.00000000    0.00000000    0.00000000
     atom    2 type  3   force =     0.00000000    0.00000000    0.00000000
     atom    3 type  1   force =     0.00000000    0.00000000    0.00000000
     atom    4 type  1   force =     0.00000000    0.00000000    0.00000000
     atom    5 type  1   force =     0.00000000    0.00000000    0.00000000
     The Hubbard contrib.    to forces
     atom    1 type  2   force =     0.00000000    0.00000000    0.00000000
     atom    2 type  3   force =     0.00000000    0.00000000    0.00000000
     atom    3 type  1   force =     0.00000000    0.00000000    0.00000000
     atom    4 type  1   force =     0.00000000    0.00000000    0.00000000
     atom    5 type  1   force =     0.00000000    0.00000000    0.00000000
     The SCF correction term to forces
     atom    1 type  2   force =    -0.00000000    0.00000000   -0.00000000
     atom    2 type  3   force =     0.00000000    0.00000000    0.00000000
     atom    3 type  1   force =    -0.00000000   -0.00000000    0.00002894
     atom    4 type  1   force =     0.00000000   -0.00000000    0.00002894
     atom    5 type  1   force =    -0.00000000   -0.00000000   -0.00004309

     Total force =     0.043053     Total SCF correction =     0.000059


     Computing stress (Cartesian axis) and pressure

          total   stress  (Ry/bohr**3)                   (kbar)     P=       -4.67
  -0.00009407   0.00000000   0.00000000          -13.84        0.00        0.00
   0.00000000  -0.00009407   0.00000000            0.00      -13.84        0.00
   0.00000000   0.00000000   0.00009296            0.00        0.00       13.68

     Energy error            =      4.3E-03 Ry
     Gradient error          =      3.0E-02 Ry/Bohr

     number of scf cycles    =   5
     number of bfgs steps    =   4

     energy             old  =    -333.1544100016 Ry
     energy             new  =    -333.1586955041 Ry

     CASE: energy            _new < energy            _old

     new trust radius        =       0.1019025853 bohr
     new conv_thr            =       0.0000000302 Ry


ATOMIC_POSITIONS (angstrom)
Pb            0.0000000000        0.0000000000        0.0000000000    0   0   0
Ti            1.9400000000        1.9400000000        2.3280000000    0   0   0
O             0.0000000000        1.9400000000        2.0861278008
O             1.9400000000        0.0000000000        2.0861278008
O             1.9400000000        1.9400000000        0.2288365583



     Writing config-only to output data dir /home/gridsan/epan1/labutil/lab3_samples/problem2/Lab3/PbTiO3_a_3.88_ecut_30_nk_4_displ_0.1/pwscf.save/
     NEW-OLD atomic charge density approx. for the potential

     total cpu time spent up to now is       26.0 secs

     Self-consistent Calculation

     iteration #  1     ecut=    30.00 Ry     beta= 0.70
     Davidson diagonalization with overlap
     ethr =  1.00E-06,  avg # of iterations =  9.0

     total cpu time spent up to now is       26.5 secs

     total energy              =    -333.16365751 Ry
     estimated scf accuracy    <       0.00178193 Ry

     iteration #  2     ecut=    30.00 Ry     beta= 0.70
     Davidson diagonalization with overlap
     ethr =  4.05E-06,  avg # of iterations =  4.0

     total cpu time spent up to now is       26.8 secs

     total energy              =    -333.16387119 Ry
     estimated scf accuracy    <       0.00047717 Ry

     iteration #  3     ecut=    30.00 Ry     beta= 0.70
     Davidson diagonalization with overlap
     ethr =  1.08E-06,  avg # of iterations =  4.3

     total cpu time spent up to now is       27.1 secs

     total energy              =    -333.16397713 Ry
     estimated scf accuracy    <       0.00029019 Ry

     iteration #  4     ecut=    30.00 Ry     beta= 0.70
     Davidson diagonalization with overlap
     ethr =  6.60E-07,  avg # of iterations =  4.3

     total cpu time spent up to now is       27.4 secs

     total energy              =    -333.16403889 Ry
     estimated scf accuracy    <       0.00001072 Ry

     iteration #  5     ecut=    30.00 Ry     beta= 0.70
     Davidson diagonalization with overlap
     ethr =  2.44E-08,  avg # of iterations =  4.3

     total cpu time spent up to now is       27.8 secs

     total energy              =    -333.16404129 Ry
     estimated scf accuracy    <       0.00000322 Ry

     iteration #  6     ecut=    30.00 Ry     beta= 0.70
     Davidson diagonalization with overlap
     ethr =  7.31E-09,  avg # of iterations =  4.5

     total cpu time spent up to now is       28.1 secs

     total energy              =    -333.16404208 Ry
     estimated scf accuracy    <       0.00000067 Ry

     iteration #  7     ecut=    30.00 Ry     beta= 0.70
     Davidson diagonalization with overlap
     ethr =  1.52E-09,  avg # of iterations =  4.3

     total cpu time spent up to now is       28.4 secs

     total energy              =    -333.16404217 Ry
     estimated scf accuracy    <       0.00000023 Ry

     iteration #  8     ecut=    30.00 Ry     beta= 0.70
     Davidson diagonalization with overlap
     ethr =  5.12E-10,  avg # of iterations =  4.2

     total cpu time spent up to now is       28.7 secs

     End of self-consistent calculation

          k = 0.1250 0.1250 0.1250 (  1096 PWs)   bands (ev):

   -44.6401 -21.3334 -21.2459 -21.2451  -6.4125  -5.3384  -5.2992  -4.0726
    -4.0483  -4.0399  -3.8746  -3.8278   4.5254   7.2003   7.2392   8.0361
     8.7941   8.9969   9.5401   9.7167  10.0252  10.1041

          k = 0.1250 0.1250 0.3750 (  1095 PWs)   bands (ev):

   -44.6388 -21.3909 -21.2436 -21.2426  -5.9677  -5.2130  -5.1812  -4.1112
    -4.0673  -4.0286  -3.9214  -3.8482   3.8011   6.7488   7.0774   7.6609
     8.4198   8.5343   9.3896   9.7630  10.1357  10.9247

          k = 0.1250 0.3750 0.3750 (  1093 PWs)   bands (ev):

   -44.6375 -21.3875 -21.2980 -21.2412  -5.7590  -5.1320  -5.0392  -4.0932
    -4.0543  -3.9924  -3.8916  -3.7005   3.4577   6.5833   6.9201   7.0772
     7.4690   8.6729   9.2482   9.4862  10.0495  10.5843

          k = 0.3750 0.3750 0.3750 (  1082 PWs)   bands (ev):

   -44.6362 -21.3848 -21.2954 -21.2952  -5.4155  -5.2391  -5.2130  -4.0116
    -3.9874  -3.7430  -3.6436  -3.6038   3.9949   5.8486   5.8766   6.5930
     7.1924   7.2241   8.0889  10.4990  10.5692  10.6811

          k = 0.3750-0.1250 0.1250 (  1095 PWs)   bands (ev):

   -44.6388 -21.3310 -21.3014 -21.2433  -6.0234  -5.2381  -5.1586  -4.1137
    -4.0582  -4.0386  -3.9204  -3.8224   3.7999   6.8565   7.3431   7.7535
     8.3498   8.7634   9.2010   9.7609   9.8886  10.7894

          k = 0.3750-0.3750 0.1250 (  1093 PWs)   bands (ev):

   -44.6376 -21.3291 -21.2985 -21.2977  -5.8417  -5.0986  -5.0313  -4.0738
    -4.0346  -3.9507  -3.8650  -3.7964   3.4235   6.7605   6.8830   7.1211
     7.4158   8.6562   9.4928   9.5056   9.9857  10.6845

     highest occupied level (ev):    10.9247

!    total energy              =    -333.16404220 Ry
     estimated scf accuracy    <       0.00000001 Ry

     The total energy is the sum of the following terms:
     one-electron contribution =     -78.47936574 Ry
     hartree contribution      =      67.11224540 Ry
     xc contribution           =     -49.65736236 Ry
     ewald contribution        =    -272.13955950 Ry

     convergence has been achieved in   8 iterations

     Forces acting on atoms (cartesian axes, Ry/au):

     atom    1 type  2   force =     0.00000000    0.00000000    0.03477892
     atom    2 type  3   force =     0.00000000    0.00000000   -0.07694612
     atom    3 type  1   force =     0.00000000    0.00000000    0.02425221
     atom    4 type  1   force =     0.00000000    0.00000000    0.02425221
     atom    5 type  1   force =     0.00000000    0.00000000   -0.00633721
     The non-local contrib.  to forces
     atom    1 type  2   force =     0.00000000    0.00000000   -0.12901199
     atom    2 type  3   force =     0.00000000    0.00000000    0.04854870
     atom    3 type  1   force =     0.00000000    0.00000000    0.30795765
     atom    4 type  1   force =     0.00000000    0.00000000    0.30795765
     atom    5 type  1   force =     0.00000000    0.00000000   -0.40411652
     The ionic contribution  to forces
     atom    1 type  2   force =     0.00000000    0.00000000    3.65316733
     atom    2 type  3   force =     0.00000000    0.00000000   -2.78038100
     atom    3 type  1   force =     0.00000000   -0.00000000   -2.50246063
     atom    4 type  1   force =    -0.00000000    0.00000000   -2.50246063
     atom    5 type  1   force =    -0.00000000   -0.00000000    4.13213493
     The local contribution  to forces
     atom    1 type  2   force =    -0.00000000    0.00000000   -3.48927116
     atom    2 type  3   force =    -0.00000000   -0.00000000    2.65490903
     atom    3 type  1   force =     0.00000000   -0.00000000    2.21871685
     atom    4 type  1   force =    -0.00000000    0.00000000    2.21871685
     atom    5 type  1   force =    -0.00000000   -0.00000000   -3.73431975
     The core correction contribution to forces
     atom    1 type  2   force =     0.00000000    0.00000000    0.00000000
     atom    2 type  3   force =     0.00000000    0.00000000    0.00000000
     atom    3 type  1   force =     0.00000000    0.00000000    0.00000000
     atom    4 type  1   force =     0.00000000    0.00000000    0.00000000
     atom    5 type  1   force =     0.00000000    0.00000000    0.00000000
     The Hubbard contrib.    to forces
     atom    1 type  2   force =     0.00000000    0.00000000    0.00000000
     atom    2 type  3   force =     0.00000000    0.00000000    0.00000000
     atom    3 type  1   force =     0.00000000    0.00000000    0.00000000
     atom    4 type  1   force =     0.00000000    0.00000000    0.00000000
     atom    5 type  1   force =     0.00000000    0.00000000    0.00000000
     The SCF correction term to forces
     atom    1 type  2   force =    -0.00000000   -0.00000000   -0.00000000
     atom    2 type  3   force =     0.00000000   -0.00000000   -0.00000000
     atom    3 type  1   force =     0.00000000   -0.00000000    0.00002178
     atom    4 type  1   force =    -0.00000000    0.00000000    0.00002178
     atom    5 type  1   force =    -0.00000000    0.00000000   -0.00005243

     Total force =     0.034878     Total SCF correction =     0.000061


     Computing stress (Cartesian axis) and pressure

          total   stress  (Ry/bohr**3)                   (kbar)     P=       -1.32
  -0.00004657   0.00000000   0.00000000           -6.85        0.00        0.00
   0.00000000  -0.00004657   0.00000000            0.00       -6.85        0.00
   0.00000000   0.00000000   0.00006628            0.00        0.00        9.75

     Energy error            =      5.3E-03 Ry
     Gradient error          =      2.4E-02 Ry/Bohr

     number of scf cycles    =   6
     number of bfgs steps    =   5

     energy             old  =    -333.1586955041 Ry
     energy             new  =    -333.1640421966 Ry

     CASE: energy            _new < energy            _old

     new trust radius        =       0.1528538779 bohr
     new conv_thr            =       0.0000000243 Ry


ATOMIC_POSITIONS (angstrom)
Pb            0.0000000000        0.0000000000        0.0000000000    0   0   0
Ti            1.9400000000        1.9400000000        2.3280000000    0   0   0
O             0.0000000000        1.9400000000        2.1670145896
O             1.9400000000        0.0000000000        2.1670145896
O             1.9400000000        1.9400000000        0.2552089627



     Writing config-only to output data dir /home/gridsan/epan1/labutil/lab3_samples/problem2/Lab3/PbTiO3_a_3.88_ecut_30_nk_4_displ_0.1/pwscf.save/
     NEW-OLD atomic charge density approx. for the potential

     total cpu time spent up to now is       29.9 secs

     Self-consistent Calculation

     iteration #  1     ecut=    30.00 Ry     beta= 0.70
     Davidson diagonalization with overlap
     ethr =  1.00E-06,  avg # of iterations = 11.7

     total cpu time spent up to now is       30.5 secs

     total energy              =    -333.16882152 Ry
     estimated scf accuracy    <       0.00404269 Ry

     iteration #  2     ecut=    30.00 Ry     beta= 0.70
     Davidson diagonalization with overlap
     ethr =  9.19E-06,  avg # of iterations =  4.3

     total cpu time spent up to now is       30.8 secs

     total energy              =    -333.16905751 Ry
     estimated scf accuracy    <       0.00184262 Ry

     iteration #  3     ecut=    30.00 Ry     beta= 0.70
     Davidson diagonalization with overlap
     ethr =  4.19E-06,  avg # of iterations =  4.5

     total cpu time spent up to now is       31.1 secs

     total energy              =    -333.16950944 Ry
     estimated scf accuracy    <       0.00129976 Ry

     iteration #  4     ecut=    30.00 Ry     beta= 0.70
     Davidson diagonalization with overlap
     ethr =  2.95E-06,  avg # of iterations =  3.8

     total cpu time spent up to now is       31.4 secs

     total energy              =    -333.16969442 Ry
     estimated scf accuracy    <       0.00002786 Ry

     iteration #  5     ecut=    30.00 Ry     beta= 0.70
     Davidson diagonalization with overlap
     ethr =  6.33E-08,  avg # of iterations =  6.5

     total cpu time spent up to now is       31.8 secs

     total energy              =    -333.16973497 Ry
     estimated scf accuracy    <       0.00006831 Ry

     iteration #  6     ecut=    30.00 Ry     beta= 0.70
     Davidson diagonalization with overlap
     ethr =  6.33E-08,  avg # of iterations =  3.0

     total cpu time spent up to now is       32.1 secs

     total energy              =    -333.16972887 Ry
     estimated scf accuracy    <       0.00002992 Ry

     iteration #  7     ecut=    30.00 Ry     beta= 0.70
     Davidson diagonalization with overlap
     ethr =  6.33E-08,  avg # of iterations =  4.3

     total cpu time spent up to now is       32.4 secs

     total energy              =    -333.16973543 Ry
     estimated scf accuracy    <       0.00000073 Ry

     iteration #  8     ecut=    30.00 Ry     beta= 0.70
     Davidson diagonalization with overlap
     ethr =  1.65E-09,  avg # of iterations =  5.0

     total cpu time spent up to now is       32.8 secs

     total energy              =    -333.16973553 Ry
     estimated scf accuracy    <       0.00000101 Ry

     iteration #  9     ecut=    30.00 Ry     beta= 0.70
     Davidson diagonalization with overlap
     ethr =  1.65E-09,  avg # of iterations =  4.2

     total cpu time spent up to now is       33.1 secs

     End of self-consistent calculation

          k = 0.1250 0.1250 0.1250 (  1096 PWs)   bands (ev):

   -44.6943 -21.3495 -21.3104 -21.3096  -6.4520  -5.4179  -5.3468  -4.0299
    -4.0157  -4.0060  -3.8479  -3.7734   4.5547   7.1969   7.2336   8.0587
     8.8605   8.9960   9.6636   9.7441   9.9088  10.0498

          k = 0.1250 0.1250 0.3750 (  1095 PWs)   bands (ev):

   -44.6931 -21.4063 -21.3081 -21.3071  -6.0645  -5.3160  -5.1734  -4.0672
    -4.0216  -3.9959  -3.8625  -3.8146   3.8754   6.7764   7.1958   7.6638
     8.2940   8.5640   9.2868   9.8053  10.0097  10.8690

          k = 0.1250 0.3750 0.3750 (  1093 PWs)   bands (ev):

   -44.6918 -21.4030 -21.3640 -21.3057  -5.8501  -5.1701  -5.0596  -4.0518
    -4.0132  -3.9519  -3.8465  -3.6585   3.4868   6.6404   6.8024   7.0630
     7.3896   8.5924   9.2415   9.3996  10.0896  10.5820

          k = 0.3750 0.3750 0.3750 (  1082 PWs)   bands (ev):

   -44.6905 -21.4004 -21.3613 -21.3611  -5.4437  -5.2936  -5.2315  -3.9699
    -3.9518  -3.7004  -3.6045  -3.5632   3.9380   5.8131   5.8680   6.6127
     7.0289   7.0551   8.1686  10.5319  10.5414  10.6216

          k = 0.3750-0.1250 0.1250 (  1095 PWs)   bands (ev):

   -44.6931 -21.3674 -21.3470 -21.3077  -6.0431  -5.2998  -5.2379  -4.0768
    -4.0149  -4.0041  -3.8614  -3.7725   3.8052   6.7549   7.2753   7.7565
     8.3415   8.6871   9.2018   9.7568   9.9382  10.7930

          k = 0.3750-0.3750 0.1250 (  1093 PWs)   bands (ev):

   -44.6918 -21.3645 -21.3635 -21.3451  -5.7944  -5.1933  -5.1406  -4.0396
    -3.9898  -3.8906  -3.7968  -3.7466   3.3651   6.7007   6.8068   7.0751
     7.3413   8.6452   9.4439   9.4664  10.0312  10.5803

     highest occupied level (ev):    10.8690

!    total energy              =    -333.16973568 Ry
     estimated scf accuracy    <          7.3E-09 Ry

     The total energy is the sum of the following terms:
     one-electron contribution =     -79.60159451 Ry
     hartree contribution      =      67.65608217 Ry
     xc contribution           =     -49.67178359 Ry
     ewald contribution        =    -271.55243974 Ry

     convergence has been achieved in   9 iterations

     Forces acting on atoms (cartesian axes, Ry/au):

     atom    1 type  2   force =     0.00000000    0.00000000    0.03220166
     atom    2 type  3   force =     0.00000000    0.00000000   -0.05873552
     atom    3 type  1   force =     0.00000000    0.00000000    0.01444973
     atom    4 type  1   force =     0.00000000    0.00000000    0.01444973
     atom    5 type  1   force =     0.00000000    0.00000000   -0.00236561
     The non-local contrib.  to forces
     atom    1 type  2   force =     0.00000000    0.00000000   -0.18601187
     atom    2 type  3   force =     0.00000000    0.00000000    0.03861921
     atom    3 type  1   force =     0.00000000    0.00000000    0.27145002
     atom    4 type  1   force =     0.00000000    0.00000000    0.27145002
     atom    5 type  1   force =     0.00000000    0.00000000   -0.32757293
     The ionic contribution  to forces
     atom    1 type  2   force =     0.00000000    0.00000000    4.64182667
     atom    2 type  3   force =     0.00000000    0.00000000   -3.25925507
     atom    3 type  1   force =     0.00000000   -0.00000000   -2.63893337
     atom    4 type  1   force =    -0.00000000    0.00000000   -2.63893337
     atom    5 type  1   force =    -0.00000000   -0.00000000    3.89529513
     The local contribution  to forces
     atom    1 type  2   force =     0.00000000    0.00000000   -4.42355352
     atom    2 type  3   force =    -0.00000000   -0.00000000    3.16193092
     atom    3 type  1   force =     0.00000000   -0.00000000    2.38189133
     atom    4 type  1   force =    -0.00000000    0.00000000    2.38189133
     atom    5 type  1   force =    -0.00000000   -0.00000000   -3.57007091
     The core correction contribution to forces
     atom    1 type  2   force =     0.00000000    0.00000000    0.00000000
     atom    2 type  3   force =     0.00000000    0.00000000    0.00000000
     atom    3 type  1   force =     0.00000000    0.00000000    0.00000000
     atom    4 type  1   force =     0.00000000    0.00000000    0.00000000
     atom    5 type  1   force =     0.00000000    0.00000000    0.00000000
     The Hubbard contrib.    to forces
     atom    1 type  2   force =     0.00000000    0.00000000    0.00000000
     atom    2 type  3   force =     0.00000000    0.00000000    0.00000000
     atom    3 type  1   force =     0.00000000    0.00000000    0.00000000
     atom    4 type  1   force =     0.00000000    0.00000000    0.00000000
     atom    5 type  1   force =     0.00000000    0.00000000    0.00000000
     The SCF correction term to forces
     atom    1 type  2   force =     0.00000000   -0.00000000   -0.00000000
     atom    2 type  3   force =     0.00000000    0.00000000   -0.00000000
     atom    3 type  1   force =    -0.00000000    0.00000000    0.00002449
     atom    4 type  1   force =     0.00000000   -0.00000000    0.00002449
     atom    5 type  1   force =     0.00000000    0.00000000   -0.00003415

     Total force =     0.020571     Total SCF correction =     0.000049


     Computing stress (Cartesian axis) and pressure

          total   stress  (Ry/bohr**3)                   (kbar)     P=        5.49
   0.00002836   0.00000000   0.00000000            4.17        0.00        0.00
   0.00000000   0.00002836   0.00000000            0.00        4.17        0.00
   0.00000000   0.00000000   0.00005517            0.00        0.00        8.12

     Energy error            =      5.7E-03 Ry
     Gradient error          =      1.4E-02 Ry/Bohr

     number of scf cycles    =   7
     number of bfgs steps    =   6

     energy             old  =    -333.1640421966 Ry
     energy             new  =    -333.1697356811 Ry

     CASE: energy            _new < energy            _old

     new trust radius        =       0.2292808169 bohr
     new conv_thr            =       0.0000000144 Ry


ATOMIC_POSITIONS (angstrom)
Pb            0.0000000000        0.0000000000        0.0000000000    0   0   0
Ti            1.9400000000        1.9400000000        2.3280000000    0   0   0
O             0.0000000000        1.9400000000        2.2883447728
O             1.9400000000        0.0000000000        2.2883447728
O             1.9400000000        1.9400000000        0.2962232715



     Writing config-only to output data dir /home/gridsan/epan1/labutil/lab3_samples/problem2/Lab3/PbTiO3_a_3.88_ecut_30_nk_4_displ_0.1/pwscf.save/
     NEW-OLD atomic charge density approx. for the potential

     total cpu time spent up to now is       34.6 secs

     Self-consistent Calculation

     iteration #  1     ecut=    30.00 Ry     beta= 0.70
     Davidson diagonalization with overlap
     ethr =  1.00E-06,  avg # of iterations = 11.2

     total cpu time spent up to now is       35.3 secs

     total energy              =    -333.17061775 Ry
     estimated scf accuracy    <       0.00957233 Ry

     iteration #  2     ecut=    30.00 Ry     beta= 0.70
     Davidson diagonalization with overlap
     ethr =  2.18E-05,  avg # of iterations =  4.3

     total cpu time spent up to now is       35.6 secs

     total energy              =    -333.17059199 Ry
     estimated scf accuracy    <       0.00742534 Ry

     iteration #  3     ecut=    30.00 Ry     beta= 0.70
     Davidson diagonalization with overlap
     ethr =  1.69E-05,  avg # of iterations =  4.5

     total cpu time spent up to now is       35.9 secs

     total energy              =    -333.17249716 Ry
     estimated scf accuracy    <       0.00317926 Ry

     iteration #  4     ecut=    30.00 Ry     beta= 0.70
     Davidson diagonalization with overlap
     ethr =  7.23E-06,  avg # of iterations =  3.7

     total cpu time spent up to now is       36.2 secs

     total energy              =    -333.17284133 Ry
     estimated scf accuracy    <       0.00018417 Ry

     iteration #  5     ecut=    30.00 Ry     beta= 0.70
     Davidson diagonalization with overlap
     ethr =  4.19E-07,  avg # of iterations =  5.5

     total cpu time spent up to now is       36.6 secs

     total energy              =    -333.17299938 Ry
     estimated scf accuracy    <       0.00022091 Ry

     iteration #  6     ecut=    30.00 Ry     beta= 0.70
     Davidson diagonalization with overlap
     ethr =  4.19E-07,  avg # of iterations =  2.0

     total cpu time spent up to now is       36.9 secs

     total energy              =    -333.17297440 Ry
     estimated scf accuracy    <       0.00011775 Ry

     iteration #  7     ecut=    30.00 Ry     beta= 0.70
     Davidson diagonalization with overlap
     ethr =  2.68E-07,  avg # of iterations =  4.2

     total cpu time spent up to now is       37.2 secs

     total energy              =    -333.17299494 Ry
     estimated scf accuracy    <       0.00000473 Ry

     iteration #  8     ecut=    30.00 Ry     beta= 0.70
     Davidson diagonalization with overlap
     ethr =  1.07E-08,  avg # of iterations =  5.7

     total cpu time spent up to now is       37.5 secs

     total energy              =    -333.17299797 Ry
     estimated scf accuracy    <       0.00000169 Ry

     iteration #  9     ecut=    30.00 Ry     beta= 0.70
     Davidson diagonalization with overlap
     ethr =  3.85E-09,  avg # of iterations =  2.0

     total cpu time spent up to now is       37.8 secs

     total energy              =    -333.17299777 Ry
     estimated scf accuracy    <       0.00000089 Ry

     iteration # 10     ecut=    30.00 Ry     beta= 0.70
     Davidson diagonalization with overlap
     ethr =  2.01E-09,  avg # of iterations =  4.5

     total cpu time spent up to now is       38.1 secs

     total energy              =    -333.17299796 Ry
     estimated scf accuracy    <       0.00000007 Ry

     iteration # 11     ecut=    30.00 Ry     beta= 0.70
     Davidson diagonalization with overlap
     ethr =  1.61E-10,  avg # of iterations =  4.5

     total cpu time spent up to now is       38.4 secs

     total energy              =    -333.17299798 Ry
     estimated scf accuracy    <       0.00000002 Ry

     iteration # 12     ecut=    30.00 Ry     beta= 0.70
     Davidson diagonalization with overlap
     ethr =  4.98E-11,  avg # of iterations =  2.3

     total cpu time spent up to now is       38.7 secs

     End of self-consistent calculation

          k = 0.1250 0.1250 0.1250 (  1096 PWs)   bands (ev):

   -44.7871 -21.4141 -21.4132 -21.3926  -6.5627  -5.6122  -5.3179  -3.9550
    -3.9491  -3.9255  -3.7875  -3.6479   4.5991   7.1202   7.2128   8.0619
     8.9444   8.9593   9.6466   9.8452   9.8558  10.0002

          k = 0.1250 0.1250 0.3750 (  1095 PWs)   bands (ev):

   -44.7859 -21.4484 -21.4118 -21.4108  -6.2498  -5.5304  -5.0841  -3.9896
    -3.9344  -3.9238  -3.7441  -3.7281   3.9894   6.8111   7.2272   7.5613
     8.2264   8.6399   9.1491   9.7692   9.8619  10.8329

          k = 0.1250 0.3750 0.3750 (  1093 PWs)   bands (ev):

   -44.7847 -21.4688 -21.4450 -21.4093  -6.0196  -5.3510  -4.9878  -3.9755
    -3.9306  -3.8683  -3.7507  -3.5557   3.5409   6.5820   6.7673   6.9250
     7.3707   8.4458   9.1347   9.3897  10.1624  10.6006

          k = 0.3750 0.3750 0.3750 (  1082 PWs)   bands (ev):

   -44.7834 -21.4661 -21.4657 -21.4423  -5.5797  -5.4516  -5.1585  -3.8886
    -3.8770  -3.6225  -3.5147  -3.4682   3.8126   5.7560   5.8992   6.5559
     6.8259   6.9573   8.3467  10.3544  10.5747  10.6527

          k = 0.3750-0.1250 0.1250 (  1095 PWs)   bands (ev):

   -44.7859 -21.4720 -21.4112 -21.3902  -6.1394  -5.4470  -5.2841  -4.0012
    -3.9409  -3.9201  -3.7539  -3.6560   3.8074   6.6178   7.1750   7.7226
     8.3033   8.5969   9.2264   9.7260   9.9868  10.8472

          k = 0.3750-0.3750 0.1250 (  1093 PWs)   bands (ev):

   -44.7847 -21.4690 -21.4681 -21.3883  -5.7566  -5.3412  -5.3355  -3.9664
    -3.9038  -3.7756  -3.6583  -3.6475   3.2508   6.5909   6.6601   7.0361
     7.3175   8.6563   9.3977   9.4644  10.1434  10.4114

     highest occupied level (ev):    10.8472

!    total energy              =    -333.17299797 Ry
     estimated scf accuracy    <          8.2E-09 Ry

     The total energy is the sum of the following terms:
     one-electron contribution =     -81.42534036 Ry
[...]
     Davidson diagonalization with overlap
     ethr =  3.95E-09,  avg # of iterations =  2.3

     total cpu time spent up to now is       55.9 secs

     total energy              =    -333.17336138 Ry
     estimated scf accuracy    <       0.00000071 Ry

     iteration #  7     ecut=    30.00 Ry     beta= 0.70
     Davidson diagonalization with overlap
     ethr =  1.61E-09,  avg # of iterations =  4.5

     total cpu time spent up to now is       56.2 secs

     total energy              =    -333.17336153 Ry
     estimated scf accuracy    <       0.00000009 Ry

     iteration #  8     ecut=    30.00 Ry     beta= 0.70
     Davidson diagonalization with overlap
     ethr =  1.95E-10,  avg # of iterations =  3.7

     total cpu time spent up to now is       56.5 secs

     total energy              =    -333.17336154 Ry
     estimated scf accuracy    <       0.00000002 Ry

     iteration #  9     ecut=    30.00 Ry     beta= 0.70
     Davidson diagonalization with overlap
     ethr =  5.02E-11,  avg # of iterations =  4.7

     total cpu time spent up to now is       56.8 secs

     total energy              =    -333.17336155 Ry
     estimated scf accuracy    <          3.1E-09 Ry

     iteration # 10     ecut=    30.00 Ry     beta= 0.70
     Davidson diagonalization with overlap
     ethr =  7.04E-12,  avg # of iterations =  4.2

     total cpu time spent up to now is       57.1 secs

     End of self-consistent calculation

          k = 0.1250 0.1250 0.1250 (  1096 PWs)   bands (ev):

   -44.8279 -21.4566 -21.4557 -21.4095  -6.5915  -5.6569  -5.2966  -3.9396
    -3.9337  -3.9052  -3.7736  -3.6202   4.6046   7.1073   7.1926   8.0759
     8.9375   8.9842   9.6056   9.8535   9.8743  10.0387

          k = 0.1250 0.1250 0.3750 (  1095 PWs)   bands (ev):

   -44.8267 -21.4649 -21.4543 -21.4533  -6.2928  -5.5786  -5.0506  -3.9729
    -3.9170  -3.9042  -3.7293  -3.6983   4.0111   6.8229   7.2330   7.5245
     8.2227   8.6694   9.1271   9.7292   9.8565  10.8291

          k = 0.1250 0.3750 0.3750 (  1093 PWs)   bands (ev):

   -44.8255 -21.5112 -21.4615 -21.4518  -6.0603  -5.3976  -4.9564  -3.9587
    -3.9109  -3.8499  -3.7291  -3.5318   3.5585   6.5463   6.7607   6.9091
     7.3734   8.4134   9.0926   9.4169  10.1834  10.6162

          k = 0.3750 0.3750 0.3750 (  1082 PWs)   bands (ev):

   -44.8241 -21.5085 -21.5082 -21.4588  -5.6180  -5.4924  -5.1246  -3.8699
    -3.8594  -3.6072  -3.4949  -3.4482   3.7868   5.7518   5.9196   6.5265
     6.7900   6.9560   8.3894  10.3094  10.5918  10.6675

          k = 0.3750-0.1250 0.1250 (  1095 PWs)   bands (ev):

   -44.8266 -21.5144 -21.4537 -21.4071  -6.1667  -5.4892  -5.2737  -3.9835
    -3.9250  -3.8999  -3.7298  -3.6295   3.8127   6.5837   7.1585   7.7142
     8.2823   8.5790   9.2484   9.7241   9.9968  10.8859

          k = 0.3750-0.3750 0.1250 (  1093 PWs)   bands (ev):

   -44.8254 -21.5114 -21.5105 -21.4052  -5.7507  -5.3895  -5.3551  -3.9492
    -3.8845  -3.7535  -3.6300  -3.6250   3.2265   6.5611   6.6303   7.0515
     7.3480   8.6648   9.3858   9.4472  10.1733  10.3730

     highest occupied level (ev):    10.8859

!    total energy              =    -333.17336155 Ry
     estimated scf accuracy    <          1.3E-10 Ry

     The total energy is the sum of the following terms:
     one-electron contribution =     -81.43327740 Ry
     hartree contribution      =      68.53850141 Ry
     xc contribution           =     -49.69195107 Ry
     ewald contribution        =    -270.58663448 Ry

     convergence has been achieved in  10 iterations

     Forces acting on atoms (cartesian axes, Ry/au):

     atom    1 type  2   force =     0.00000000    0.00000000    0.03842608
     atom    2 type  3   force =     0.00000000    0.00000000   -0.04042556
     atom    3 type  1   force =     0.00000000    0.00000000   -0.00029865
     atom    4 type  1   force =     0.00000000    0.00000000   -0.00029865
     atom    5 type  1   force =     0.00000000    0.00000000    0.00259677
     The non-local contrib.  to forces
     atom    1 type  2   force =     0.00000000    0.00000000   -0.27819376
     atom    2 type  3   force =     0.00000000    0.00000000    0.02660682
     atom    3 type  1   force =     0.00000000    0.00000000    0.22385267
     atom    4 type  1   force =     0.00000000    0.00000000    0.22385267
     atom    5 type  1   force =     0.00000000    0.00000000   -0.16107411
     The ionic contribution  to forces
     atom    1 type  2   force =     0.00000000    0.00000000    6.20024167
     atom    2 type  3   force =     0.00000000    0.00000000   -3.53389261
     atom    3 type  1   force =     0.00000000   -0.00000000   -2.68548010
     atom    4 type  1   force =    -0.00000000    0.00000000   -2.68548010
     atom    5 type  1   force =    -0.00000000   -0.00000000    2.70461114
     The local contribution  to forces
     atom    1 type  2   force =    -0.00000000   -0.00000000   -5.88360046
     atom    2 type  3   force =    -0.00000000   -0.00000000    3.46686779
     atom    3 type  1   force =     0.00000000   -0.00000000    2.46133513
     atom    4 type  1   force =    -0.00000000    0.00000000    2.46133513
     atom    5 type  1   force =    -0.00000000   -0.00000000   -2.54093073
     The core correction contribution to forces
     atom    1 type  2   force =     0.00000000    0.00000000    0.00000000
     atom    2 type  3   force =     0.00000000    0.00000000    0.00000000
     atom    3 type  1   force =     0.00000000    0.00000000    0.00000000
     atom    4 type  1   force =     0.00000000    0.00000000    0.00000000
     atom    5 type  1   force =     0.00000000    0.00000000    0.00000000
     The Hubbard contrib.    to forces
     atom    1 type  2   force =     0.00000000    0.00000000    0.00000000
     atom    2 type  3   force =     0.00000000    0.00000000    0.00000000
     atom    3 type  1   force =     0.00000000    0.00000000    0.00000000
     atom    4 type  1   force =     0.00000000    0.00000000    0.00000000
     atom    5 type  1   force =     0.00000000    0.00000000    0.00000000
     The SCF correction term to forces
     atom    1 type  2   force =     0.00000000   -0.00000000   -0.00000000
     atom    2 type  3   force =    -0.00000000   -0.00000000    0.00000000
     atom    3 type  1   force =    -0.00000000   -0.00000000    0.00000191
     atom    4 type  1   force =     0.00000000    0.00000000    0.00000191
     atom    5 type  1   force =    -0.00000000   -0.00000000   -0.00000127

     Total force =     0.002631     Total SCF correction =     0.000003


     Computing stress (Cartesian axis) and pressure

          total   stress  (Ry/bohr**3)                   (kbar)     P=       14.87
   0.00014849   0.00000000   0.00000000           21.84        0.00        0.00
   0.00000000   0.00014849   0.00000000            0.00       21.84        0.00
   0.00000000   0.00000000   0.00000632            0.00        0.00        0.93

     Energy error            =      8.7E-05 Ry
     Gradient error          =      2.6E-03 Ry/Bohr

     number of scf cycles    =  12
     number of bfgs steps    =  11

     energy             old  =    -333.1732746474 Ry
     energy             new  =    -333.1733615474 Ry

     CASE: energy            _new < energy            _old

     new trust radius        =       0.0263519194 bohr
     new conv_thr            =       0.0000000010 Ry


ATOMIC_POSITIONS (angstrom)
Pb            0.0000000000        0.0000000000        0.0000000000    0   0   0
Ti            1.9400000000        1.9400000000        2.3280000000    0   0   0
O             0.0000000000        1.9400000000        2.3197581254
O             1.9400000000        0.0000000000        2.3197581254
O             1.9400000000        1.9400000000        0.3451256928



     Writing config-only to output data dir /home/gridsan/epan1/labutil/lab3_samples/problem2/Lab3/PbTiO3_a_3.88_ecut_30_nk_4_displ_0.1/pwscf.save/
     NEW-OLD atomic charge density approx. for the potential

     total cpu time spent up to now is       58.4 secs

     Self-consistent Calculation

     iteration #  1     ecut=    30.00 Ry     beta= 0.70
     Davidson diagonalization with overlap
     ethr =  1.00E-06,  avg # of iterations =  7.0

     total cpu time spent up to now is       58.9 secs

     total energy              =    -333.17336754 Ry
     estimated scf accuracy    <       0.00015181 Ry

     iteration #  2     ecut=    30.00 Ry     beta= 0.70
     Davidson diagonalization with overlap
     ethr =  3.45E-07,  avg # of iterations =  4.5

     total cpu time spent up to now is       59.2 secs

     total energy              =    -333.17337269 Ry
     estimated scf accuracy    <       0.00006308 Ry

     iteration #  3     ecut=    30.00 Ry     beta= 0.70
     Davidson diagonalization with overlap
     ethr =  1.43E-07,  avg # of iterations =  4.8

     total cpu time spent up to now is       59.6 secs

     total energy              =    -333.17338929 Ry
     estimated scf accuracy    <       0.00004717 Ry

     iteration #  4     ecut=    30.00 Ry     beta= 0.70
     Davidson diagonalization with overlap
     ethr =  1.07E-07,  avg # of iterations =  4.0

     total cpu time spent up to now is       59.9 secs

     total energy              =    -333.17339540 Ry
     estimated scf accuracy    <       0.00000163 Ry

     iteration #  5     ecut=    30.00 Ry     beta= 0.70
     Davidson diagonalization with overlap
     ethr =  3.71E-09,  avg # of iterations =  6.2

     total cpu time spent up to now is       60.3 secs

     total energy              =    -333.17339677 Ry
     estimated scf accuracy    <       0.00000201 Ry

     iteration #  6     ecut=    30.00 Ry     beta= 0.70
     Davidson diagonalization with overlap
     ethr =  3.71E-09,  avg # of iterations =  2.7

     total cpu time spent up to now is       60.5 secs

     total energy              =    -333.17339665 Ry
     estimated scf accuracy    <       0.00000086 Ry

     iteration #  7     ecut=    30.00 Ry     beta= 0.70
     Davidson diagonalization with overlap
     ethr =  1.94E-09,  avg # of iterations =  4.7

     total cpu time spent up to now is       60.9 secs

     total energy              =    -333.17339683 Ry
     estimated scf accuracy    <       0.00000008 Ry

     iteration #  8     ecut=    30.00 Ry     beta= 0.70
     Davidson diagonalization with overlap
     ethr =  1.75E-10,  avg # of iterations =  4.2

     total cpu time spent up to now is       61.2 secs

     total energy              =    -333.17339684 Ry
     estimated scf accuracy    <       0.00000002 Ry

     iteration #  9     ecut=    30.00 Ry     beta= 0.70
     Davidson diagonalization with overlap
     ethr =  5.67E-11,  avg # of iterations =  4.8

     total cpu time spent up to now is       61.5 secs

     total energy              =    -333.17339685 Ry
     estimated scf accuracy    <          2.4E-09 Ry

     iteration # 10     ecut=    30.00 Ry     beta= 0.70
     Davidson diagonalization with overlap
     ethr =  5.45E-12,  avg # of iterations =  3.0

     total cpu time spent up to now is       61.8 secs

     End of self-consistent calculation

          k = 0.1250 0.1250 0.1250 (  1096 PWs)   bands (ev):

   -44.8414 -21.4707 -21.4698 -21.4160  -6.6049  -5.6768  -5.2885  -3.9329
    -3.9270  -3.8962  -3.7676  -3.6068   4.6067   7.0991   7.1845   8.0816
     8.9317   8.9913   9.5871   9.8568   9.8673  10.0632

          k = 0.1250 0.1250 0.3750 (  1095 PWs)   bands (ev):

   -44.8402 -21.4715 -21.4683 -21.4675  -6.3119  -5.6000  -5.0376  -3.9656
    -3.9096  -3.8953  -3.7229  -3.6840   4.0195   6.8275   7.2289   7.5089
     8.2239   8.6747   9.1196   9.7097   9.8546  10.8289

          k = 0.1250 0.3750 0.3750 (  1093 PWs)   bands (ev):

   -44.8389 -21.5254 -21.4679 -21.4659  -6.0783  -5.4187  -4.9448  -3.9514
    -3.9022  -3.8417  -3.7193  -3.5202   3.5653   6.5306   6.7545   6.9027
     7.3744   8.3999   9.0743   9.4248  10.1922  10.6213

          k = 0.3750 0.3750 0.3750 (  1082 PWs)   bands (ev):

   -44.8376 -21.5227 -21.5223 -21.4652  -5.6356  -5.5107  -5.1116  -3.8618
    -3.8515  -3.6009  -3.4858  -3.4383   3.7731   5.7498   5.9259   6.5138
     6.7774   6.9560   8.4095  10.2895  10.5962  10.6716

          k = 0.3750-0.1250 0.1250 (  1095 PWs)   bands (ev):

   -44.8401 -21.5286 -21.4679 -21.4136  -6.1800  -5.5085  -5.2699  -3.9755
    -3.9180  -3.8911  -3.7192  -3.6167   3.8140   6.5697   7.1506   7.7096
     8.2723   8.5714   9.2544   9.7215   9.9972  10.9016

          k = 0.3750-0.3750 0.1250 (  1093 PWs)   bands (ev):

   -44.8389 -21.5256 -21.5247 -21.4117  -5.7521  -5.4112  -5.3625  -3.9414
    -3.8760  -3.7433  -3.6164  -3.6152   3.2144   6.5483   6.6177   7.0558
     7.3587   8.6685   9.3811   9.4406  10.1866  10.3560

     highest occupied level (ev):    10.9016

!    total energy              =    -333.17339685 Ry
     estimated scf accuracy    <          3.4E-10 Ry

     The total energy is the sum of the following terms:
     one-electron contribution =     -81.49771994 Ry
     hartree contribution      =      68.56681995 Ry
     xc contribution           =     -49.69218931 Ry
     ewald contribution        =    -270.55030754 Ry

     convergence has been achieved in  10 iterations

     Forces acting on atoms (cartesian axes, Ry/au):

     atom    1 type  2   force =     0.00000000    0.00000000    0.03976870
     atom    2 type  3   force =     0.00000000    0.00000000   -0.04027921
     atom    3 type  1   force =     0.00000000    0.00000000    0.00001170
     atom    4 type  1   force =     0.00000000    0.00000000    0.00001170
     atom    5 type  1   force =     0.00000000    0.00000000    0.00048710
     The non-local contrib.  to forces
     atom    1 type  2   force =     0.00000000    0.00000000   -0.28433768
     atom    2 type  3   force =     0.00000000    0.00000000    0.02580934
     atom    3 type  1   force =     0.00000000    0.00000000    0.22555749
     atom    4 type  1   force =     0.00000000    0.00000000    0.22555749
     atom    5 type  1   force =     0.00000000    0.00000000   -0.13944053
     The ionic contribution  to forces
     atom    1 type  2   force =     0.00000000    0.00000000    6.28108908
     atom    2 type  3   force =     0.00000000    0.00000000   -3.35624990
     atom    3 type  1   force =     0.00000000   -0.00000000   -2.65942778
     atom    4 type  1   force =    -0.00000000    0.00000000   -2.65942778
     atom    5 type  1   force =     0.00000000    0.00000000    2.39401637
     The local contribution  to forces
     atom    1 type  2   force =    -0.00000000   -0.00000000   -5.95696368
     atom    2 type  3   force =    -0.00000000   -0.00000000    3.29016636
     atom    3 type  1   force =     0.00000000   -0.00000000    2.43388843
     atom    4 type  1   force =    -0.00000000    0.00000000    2.43388843
     atom    5 type  1   force =    -0.00000000   -0.00000000   -2.25408052
     The core correction contribution to forces
     atom    1 type  2   force =     0.00000000    0.00000000    0.00000000
     atom    2 type  3   force =     0.00000000    0.00000000    0.00000000
     atom    3 type  1   force =     0.00000000    0.00000000    0.00000000
     atom    4 type  1   force =     0.00000000    0.00000000    0.00000000
     atom    5 type  1   force =     0.00000000    0.00000000    0.00000000
     The Hubbard contrib.    to forces
     atom    1 type  2   force =     0.00000000    0.00000000    0.00000000
     atom    2 type  3   force =     0.00000000    0.00000000    0.00000000
     atom    3 type  1   force =     0.00000000    0.00000000    0.00000000
     atom    4 type  1   force =     0.00000000    0.00000000    0.00000000
     atom    5 type  1   force =     0.00000000    0.00000000    0.00000000
     The SCF correction term to forces
     atom    1 type  2   force =    -0.00000000   -0.00000000   -0.00000000
     atom    2 type  3   force =    -0.00000000   -0.00000000    0.00000000
     atom    3 type  1   force =    -0.00000000    0.00000000    0.00000152
     atom    4 type  1   force =     0.00000000    0.00000000    0.00000152
     atom    5 type  1   force =     0.00000000   -0.00000000   -0.00000026

     Total force =     0.000487     Total SCF correction =     0.000002


     Computing stress (Cartesian axis) and pressure

          total   stress  (Ry/bohr**3)                   (kbar)     P=       15.00
   0.00015557   0.00000000   0.00000000           22.89        0.00        0.00
   0.00000000   0.00015557   0.00000000            0.00       22.89        0.00
   0.00000000   0.00000000  -0.00000526            0.00        0.00       -0.77

     Energy error            =      3.5E-05 Ry
     Gradient error          =      4.9E-04 Ry/Bohr

     bfgs converged in  13 scf cycles and  12 bfgs steps
     (criteria: energy <  1.0E-04 Ry, force <  1.0E-03 Ry/Bohr)

     End of BFGS Geometry Optimization

     Final energy             =    -333.1733968478 Ry

     File /home/gridsan/epan1/labutil/lab3_samples/problem2/Lab3/PbTiO3_a_3.88_ecut_30_nk_4_displ_0.1/pwscf.bfgs deleted, as requested
Begin final coordinates

ATOMIC_POSITIONS (angstrom)
Pb            0.0000000000        0.0000000000        0.0000000000    0   0   0
Ti            1.9400000000        1.9400000000        2.3280000000    0   0   0
O             0.0000000000        1.9400000000        2.3197581254
O             1.9400000000        0.0000000000        2.3197581254
O             1.9400000000        1.9400000000        0.3451256928
End final coordinates



     init_run     :      0.71s CPU      0.70s WALL (       1 calls)
     electrons    :     51.87s CPU     42.32s WALL (      13 calls)
     update_pot   :      0.39s CPU      0.70s WALL (      12 calls)
     forces       :      1.79s CPU      1.48s WALL (      13 calls)
     stress       :     13.70s CPU     11.61s WALL (      13 calls)

     Called by init_run:
     wfcinit      :      0.09s CPU      0.08s WALL (       1 calls)
     potinit      :      0.05s CPU      0.05s WALL (       1 calls)
     hinit0       :      0.46s CPU      0.46s WALL (       1 calls)

     Called by electrons:
     c_bands      :     30.34s CPU     23.25s WALL (     127 calls)
     sum_band     :     12.89s CPU     11.52s WALL (     127 calls)
     v_of_rho     :      0.44s CPU      0.42s WALL (     138 calls)
     newd         :      8.53s CPU      7.15s WALL (     138 calls)
     mix_rho      :      0.26s CPU      0.24s WALL (     127 calls)

     Called by c_bands:
     init_us_2    :      0.87s CPU      0.71s WALL (    1686 calls)
     init_us_2:cp :      0.86s CPU      0.70s WALL (    1686 calls)
     cegterg      :     28.05s CPU     21.20s WALL (     762 calls)

     Called by *egterg:
     cdiaghg      :      4.93s CPU      3.67s WALL (    4071 calls)
     h_psi        :     18.63s CPU     14.28s WALL (    4161 calls)
     s_psi        :      0.83s CPU      0.61s WALL (    4161 calls)
     g_psi        :      0.19s CPU      0.14s WALL (    3393 calls)

     Called by h_psi:
     h_psi:calbec :      1.15s CPU      0.88s WALL (    4161 calls)
     vloc_psi     :     16.52s CPU     12.67s WALL (    4161 calls)
     add_vuspsi   :      0.85s CPU      0.64s WALL (    4161 calls)

     General routines
     calbec       :      1.54s CPU      1.20s WALL (    5313 calls)
     fft          :      0.79s CPU      0.71s WALL (     881 calls)
     ffts         :      0.09s CPU      0.08s WALL (     265 calls)
     fftw         :     15.55s CPU     12.07s WALL (  120984 calls)
     interpolate  :      0.17s CPU      0.15s WALL (     138 calls)

     Parallel routines

     PWSCF        :   1m10.08s CPU   1m 3.01s WALL


   This run was terminated on:  18:16:12   2Nov2023            

=------------------------------------------------------------------------------=
   JOB DONE.
=------------------------------------------------------------------------------=
