
     Program PWSCF v.7.2 starts on  2Nov2023 at 18: 7:20 

     This program is part of the open-source Quantum ESPRESSO suite
     for quantum simulation of materials; please cite
         "P. Giannozzi et al., J. Phys.:Condens. Matter 21 395502 (2009);
         "P. Giannozzi et al., J. Phys.:Condens. Matter 29 465901 (2017);
         "P. Giannozzi et al., J. Chem. Phys. 152 154105 (2020);
          URL http://www.quantum-espresso.org", 
     in publications or presentations arising from this work. More details at
     http://www.quantum-espresso.org/quote

     Parallel version (MPI), running on     2 processors

     MPI processes distributed on     2 nodes
     187043 MiB available memory on the printing compute node when the environment starts

     Waiting for input...
     Reading input from standard input
Warning: card &CELL ignored
Warning: card / ignored

     Current dimensions of program PWSCF are:
     Max number of different atomic species (ntypx) = 10
     Max number of k-points (npk) =  40000
     Max angular momentum in pseudopotentials (lmaxx) =  4
     file O.pz-rrkjus.UPF: wavefunction(s)  2S renormalized
     Message from routine setup:
     using ibrav=0 with symmetry is DISCOURAGED, use correct ibrav instead

     R & G space division:  proc/nbgrp/npool/nimage =       2
     Subspace diagonalization in iterative solution of the eigenvalue problem:
     a serial algorithm will be used


     Parallelization info
     --------------------
     sticks:   dense  smooth     PW     G-vecs:    dense   smooth      PW
     Min         516     254     74                12418     4366     709
     Max         517     255     75                12419     4367     710
     Sum        1033     509    149                24837     8733    1419

     Using Slab Decomposition



     bravais-lattice index     =            0
     lattice parameter (alat)  =       7.3321  a.u.
     unit-cell volume          =     394.1775 (a.u.)^3
     number of atoms/cell      =            5
     number of atomic types    =            3
     number of electrons       =        44.00
     number of Kohn-Sham states=           22
     kinetic-energy cutoff     =      30.0000  Ry
     charge density cutoff     =     240.0000  Ry
     scf convergence threshold =      1.0E-07
     mixing beta               =       0.7000
     number of iterations used =            8  plain     mixing
     energy convergence thresh.=      1.0E-04
     force convergence thresh. =      1.0E-03
     Exchange-correlation= SLA  PZ   NOGX NOGC
                           (   1   1   0   0   0   0   0)
     nstep                     =           50


     celldm(1)=   7.332137  celldm(2)=   0.000000  celldm(3)=   0.000000
     celldm(4)=   0.000000  celldm(5)=   0.000000  celldm(6)=   0.000000

     crystal axes: (cart. coord. in units of alat)
               a(1) = (   1.000000   0.000000   0.000000 )  
               a(2) = (   0.000000   1.000000   0.000000 )  
               a(3) = (   0.000000   0.000000   1.000000 )  

     reciprocal axes: (cart. coord. in units 2 pi/alat)
               b(1) = (  1.000000  0.000000  0.000000 )  
               b(2) = (  0.000000  1.000000  0.000000 )  
               b(3) = (  0.000000  0.000000  1.000000 )  


     PseudoPot. # 1 for O  read from file:
     /home/gridsan/epan1/labutil/lab3_samples/pseudopotentials/O.pz-rrkjus.UPF
     MD5 check sum: 24fb942a68ef5d262e498166c462ef4a
     Pseudo is Ultrasoft, Zval =  6.0
     Generated by new atomic code, or converted to UPF format
     Using radial grid of 1269 points,  4 beta functions with: 
                l(1) =   0
                l(2) =   0
                l(3) =   1
                l(4) =   1
     Q(r) pseudized with 0 coefficients 


     PseudoPot. # 2 for Pb read from file:
     /home/gridsan/epan1/labutil/lab3_samples/pseudopotentials/Pb.pz-d-van.UPF
     MD5 check sum: 4e1e5920686a026ae26139ac417581ff
     Pseudo is Ultrasoft, Zval = 14.0
     Generated by new atomic code, or converted to UPF format
     Using radial grid of  899 points,  6 beta functions with: 
                l(1) =   0
                l(2) =   0
                l(3) =   1
                l(4) =   1
                l(5) =   2
                l(6) =   2
     Q(r) pseudized with  8 coefficients,  rinner =    1.000   1.000   1.000
                                                       1.000   1.000

     PseudoPot. # 3 for Ti read from file:
     /home/gridsan/epan1/labutil/lab3_samples/pseudopotentials/Ti.pz-sp-van_ak.UPF
     MD5 check sum: 545d0e6e05332b8871a8093f427cb0ca
     Pseudo is Ultrasoft, Zval = 12.0
     Generated by new atomic code, or converted to UPF format
     Using radial grid of  851 points,  6 beta functions with: 
                l(1) =   0
                l(2) =   0
                l(3) =   1
                l(4) =   1
                l(5) =   2
                l(6) =   2
     Q(r) pseudized with  8 coefficients,  rinner =    1.000   1.000   1.000
                                                       1.000   1.000

     atomic species   valence    mass     pseudopotential
        O              6.00    15.99900     O ( 1.00)
        Pb            14.00   207.20000     Pb( 1.00)
        Ti            12.00    47.86700     Ti( 1.00)

      8 Sym. Ops. (no inversion) found



   Cartesian axes

     site n.     atom                  positions (alat units)
         1           Pb  tau(   1) = (   0.0000000   0.0000000   0.0000000  )
         2           Ti  tau(   2) = (   0.5000000   0.5000000   0.5368428  )
         3           O   tau(   3) = (   0.0000000   0.5000000   0.5000000  )
         4           O   tau(   4) = (   0.5000000   0.0000000   0.5000000  )
         5           O   tau(   5) = (   0.5000000   0.5000000   0.0000000  )

     number of k points=     6
                       cart. coord. in units 2pi/alat
        k(    1) = (   0.1250000   0.1250000   0.1250000), wk =   0.2500000
        k(    2) = (   0.1250000   0.1250000   0.3750000), wk =   0.2500000
        k(    3) = (   0.1250000   0.3750000   0.3750000), wk =   0.5000000
        k(    4) = (   0.3750000   0.3750000   0.3750000), wk =   0.2500000
        k(    5) = (   0.3750000  -0.1250000   0.1250000), wk =   0.5000000
        k(    6) = (   0.3750000  -0.3750000   0.1250000), wk =   0.2500000

     Dense  grid:    24837 G-vectors     FFT dimensions: (  40,  40,  40)

     Smooth grid:     8733 G-vectors     FFT dimensions: (  25,  25,  25)

     Estimated max dynamical RAM per process >      51.66 MB

     Estimated total dynamical RAM >     103.32 MB

     Initial potential from superposition of free atoms

     starting charge      42.9982, renormalised to      44.0000
     Starting wfcs are   31 randomized atomic wfcs

     total cpu time spent up to now is        1.1 secs

     Self-consistent Calculation

     iteration #  1     ecut=    30.00 Ry     beta= 0.70
     Davidson diagonalization with overlap
     ethr =  1.00E-02,  avg # of iterations =  2.0

     total cpu time spent up to now is        1.3 secs

     total energy              =    -332.62196053 Ry
     estimated scf accuracy    <       1.09055222 Ry

     iteration #  2     ecut=    30.00 Ry     beta= 0.70
     Davidson diagonalization with overlap
     ethr =  2.48E-03,  avg # of iterations =  6.5

     total cpu time spent up to now is        1.7 secs

     total energy              =    -332.36019164 Ry
     estimated scf accuracy    <       4.17270746 Ry

     iteration #  3     ecut=    30.00 Ry     beta= 0.70
     Davidson diagonalization with overlap
     ethr =  2.48E-03,  avg # of iterations =  5.7

     total cpu time spent up to now is        2.1 secs

     total energy              =    -333.15475409 Ry
     estimated scf accuracy    <       0.23534125 Ry

     iteration #  4     ecut=    30.00 Ry     beta= 0.70
     Davidson diagonalization with overlap
     ethr =  5.35E-04,  avg # of iterations =  2.0

     total cpu time spent up to now is        2.4 secs

     total energy              =    -333.15025513 Ry
     estimated scf accuracy    <       0.06638975 Ry

     iteration #  5     ecut=    30.00 Ry     beta= 0.70
     Davidson diagonalization with overlap
     ethr =  1.51E-04,  avg # of iterations =  4.8

     total cpu time spent up to now is        2.7 secs

     total energy              =    -333.18064484 Ry
     estimated scf accuracy    <       0.02324544 Ry

     iteration #  6     ecut=    30.00 Ry     beta= 0.70
     Davidson diagonalization with overlap
     ethr =  5.28E-05,  avg # of iterations =  2.0

     total cpu time spent up to now is        3.0 secs

     total energy              =    -333.17834227 Ry
     estimated scf accuracy    <       0.01062943 Ry

     iteration #  7     ecut=    30.00 Ry     beta= 0.70
     Davidson diagonalization with overlap
     ethr =  2.42E-05,  avg # of iterations =  4.0

     total cpu time spent up to now is        3.3 secs

     total energy              =    -333.18066468 Ry
     estimated scf accuracy    <       0.00002601 Ry

     iteration #  8     ecut=    30.00 Ry     beta= 0.70
     Davidson diagonalization with overlap
     ethr =  5.91E-08,  avg # of iterations =  8.8

     total cpu time spent up to now is        3.7 secs

     total energy              =    -333.18078435 Ry
     estimated scf accuracy    <       0.00014369 Ry

     iteration #  9     ecut=    30.00 Ry     beta= 0.70
     Davidson diagonalization with overlap
     ethr =  5.91E-08,  avg # of iterations =  3.8

     total cpu time spent up to now is        4.0 secs

     total energy              =    -333.18077528 Ry
     estimated scf accuracy    <       0.00007337 Ry

     iteration # 10     ecut=    30.00 Ry     beta= 0.70
     Davidson diagonalization with overlap
     ethr =  5.91E-08,  avg # of iterations =  3.5

     total cpu time spent up to now is        4.3 secs

     total energy              =    -333.18077281 Ry
     estimated scf accuracy    <       0.00001951 Ry

     iteration # 11     ecut=    30.00 Ry     beta= 0.70
     Davidson diagonalization with overlap
     ethr =  4.43E-08,  avg # of iterations =  4.3

     total cpu time spent up to now is        4.7 secs

     total energy              =    -333.18077728 Ry
     estimated scf accuracy    <       0.00000020 Ry

     iteration # 12     ecut=    30.00 Ry     beta= 0.70
     Davidson diagonalization with overlap
     ethr =  4.66E-10,  avg # of iterations =  6.8

     total cpu time spent up to now is        5.0 secs

     total energy              =    -333.18077755 Ry
     estimated scf accuracy    <       0.00000057 Ry

     iteration # 13     ecut=    30.00 Ry     beta= 0.70
     Davidson diagonalization with overlap
     ethr =  4.66E-10,  avg # of iterations =  4.3

     total cpu time spent up to now is        5.4 secs

     End of self-consistent calculation

          k = 0.1250 0.1250 0.1250 (  1096 PWs)   bands (ev):

   -44.6231 -21.3088 -21.2241 -21.2233  -6.3682  -5.3338  -5.2525  -4.0509
    -4.0415  -4.0297  -3.8634  -3.8535   4.5785   7.2406   7.2854   8.0254
     8.9404   9.0410   9.6334   9.7896  10.0089  10.1134

          k = 0.1250 0.1250 0.3750 (  1095 PWs)   bands (ev):

   -44.6219 -21.3664 -21.2218 -21.2209  -5.9224  -5.1990  -5.1259  -4.1090
    -4.0463  -4.0242  -3.9513  -3.8356   3.8163   6.7731   7.1680   7.8085
     8.4491   8.5684   9.3791   9.8432  10.1370  10.8605

          k = 0.1250 0.3750 0.3750 (  1093 PWs)   bands (ev):

   -44.6207 -21.3631 -21.2769 -21.2194  -5.7111  -5.1048  -4.9746  -4.0828
    -4.0384  -3.9838  -3.8927  -3.7262   3.4782   6.6249   6.9315   7.1483
     7.4739   8.6743   9.3038   9.4836   9.9767  10.6224

          k = 0.3750 0.3750 0.3750 (  1082 PWs)   bands (ev):

   -44.6193 -21.3604 -21.2743 -21.2741  -5.3742  -5.2045  -5.1522  -3.9974
    -3.9865  -3.7091  -3.6404  -3.6162   4.1047   5.8600   5.9334   6.6473
     7.0732   7.1240   7.9291  10.5487  10.6079  10.7221

          k = 0.3750-0.1250 0.1250 (  1095 PWs)   bands (ev):

   -44.6219 -21.3065 -21.2803 -21.2214  -5.9817  -5.1944  -5.0974  -4.1045
    -4.0399  -4.0277  -3.9616  -3.8272   3.8514   6.8525   7.3249   7.8019
     8.3866   8.7510   9.2290   9.8515   9.9557  10.7768

          k = 0.3750-0.3750 0.1250 (  1093 PWs)   bands (ev):

   -44.6207 -21.3045 -21.2774 -21.2766  -5.8197  -5.0254  -4.9487  -4.0731
    -4.0349  -3.9738  -3.8886  -3.7647   3.5105   6.7974   6.8548   7.1100
     7.4142   8.6323   9.4390   9.4604   9.9566  10.7247

     highest occupied level (ev):    10.8605

!    total energy              =    -333.18077762 Ry
     estimated scf accuracy    <       0.00000001 Ry

     The total energy is the sum of the following terms:
     one-electron contribution =     -77.52991516 Ry
     hartree contribution      =      66.66881576 Ry
     xc contribution           =     -49.65587879 Ry
     ewald contribution        =    -272.66379943 Ry

     convergence has been achieved in  13 iterations

     Forces acting on atoms (cartesian axes, Ry/au):

     atom    1 type  2   force =     0.00000000    0.00000000    0.01606666
     atom    2 type  3   force =     0.00000000    0.00000000   -0.03799219
     atom    3 type  1   force =     0.00000000    0.00000000    0.00092181
     atom    4 type  1   force =     0.00000000    0.00000000    0.00092181
     atom    5 type  1   force =     0.00000000    0.00000000    0.02008190
     The non-local contrib.  to forces
     atom    1 type  2   force =     0.00000000    0.00000000   -0.00862354
     atom    2 type  3   force =     0.00000000    0.00000000    0.02012653
     atom    3 type  1   force =     0.00000000    0.00000000    0.08201200
     atom    4 type  1   force =     0.00000000    0.00000000    0.08201200
     atom    5 type  1   force =     0.00000000    0.00000000   -0.26972586
     The ionic contribution  to forces
     atom    1 type  2   force =     0.00000000    0.00000000    0.95678008
     atom    2 type  3   force =    -0.00000000   -0.00000000   -2.25766344
     atom    3 type  1   force =     0.00000000   -0.00000000   -1.05767591
     atom    4 type  1   force =    -0.00000000    0.00000000   -1.05767591
     atom    5 type  1   force =    -0.00000000   -0.00000000    3.41623517
     The local contribution  to forces
     atom    1 type  2   force =     0.00000000    0.00000000   -0.93213013
     atom    2 type  3   force =    -0.00000000   -0.00000000    2.19949205
     atom    3 type  1   force =     0.00000000   -0.00000000    0.97661509
     atom    4 type  1   force =    -0.00000000    0.00000000    0.97661509
     atom    5 type  1   force =    -0.00000000   -0.00000000   -3.12646094
     The core correction contribution to forces
     atom    1 type  2   force =     0.00000000    0.00000000    0.00000000
     atom    2 type  3   force =     0.00000000    0.00000000    0.00000000
     atom    3 type  1   force =     0.00000000    0.00000000    0.00000000
     atom    4 type  1   force =     0.00000000    0.00000000    0.00000000
     atom    5 type  1   force =     0.00000000    0.00000000    0.00000000
     The Hubbard contrib.    to forces
     atom    1 type  2   force =     0.00000000    0.00000000    0.00000000
     atom    2 type  3   force =     0.00000000    0.00000000    0.00000000
     atom    3 type  1   force =     0.00000000    0.00000000    0.00000000
     atom    4 type  1   force =     0.00000000    0.00000000    0.00000000
     atom    5 type  1   force =     0.00000000    0.00000000    0.00000000
     The SCF correction term to forces
     atom    1 type  2   force =     0.00000000    0.00000000    0.00000000
     atom    2 type  3   force =     0.00000000    0.00000000    0.00000000
     atom    3 type  1   force =    -0.00000000    0.00000000   -0.00002670
     atom    4 type  1   force =     0.00000000   -0.00000000   -0.00002670
     atom    5 type  1   force =     0.00000000   -0.00000000    0.00003619

     Total force =     0.020124     Total SCF correction =     0.000052


     Computing stress (Cartesian axis) and pressure

          total   stress  (Ry/bohr**3)                   (kbar)     P=       -8.45
  -0.00013022   0.00000000   0.00000000          -19.16        0.00        0.00
   0.00000000  -0.00013022   0.00000000            0.00      -19.16        0.00
   0.00000000   0.00000000   0.00008808            0.00        0.00       12.96


     BFGS Geometry Optimization
     Energy error            =      0.0E+00 Ry
     Gradient error          =      2.0E-02 Ry/Bohr

     number of scf cycles    =   1
     number of bfgs steps    =   0

     energy             new  =    -333.1807776164 Ry

     new trust radius        =       0.0200818980 bohr
     new conv_thr            =       0.0000001000 Ry


ATOMIC_POSITIONS (angstrom)
Pb            0.0000000000        0.0000000000        0.0000000000    0   0   0
Ti            1.9400000000        1.9400000000        2.0829500000    0   0   0
O             0.0000000000        1.9400000000        1.9404878022
O             1.9400000000        0.0000000000        1.9404878022
O             1.9400000000        1.9400000000        0.0106268828



     Writing config-only to output data dir /home/gridsan/epan1/labutil/lab3_samples/problem2/Lab3/PbTiO3_a_3.88_ecut_30_nk_4_displ_0.0368421052631579/pwscf.save/
     NEW-OLD atomic charge density approx. for the potential

     total cpu time spent up to now is        6.5 secs

     Self-consistent Calculation

     iteration #  1     ecut=    30.00 Ry     beta= 0.70
     Davidson diagonalization with overlap
     ethr =  1.00E-06,  avg # of iterations =  5.2

     total cpu time spent up to now is        6.8 secs

     total energy              =    -333.18108316 Ry
     estimated scf accuracy    <       0.00008447 Ry

     iteration #  2     ecut=    30.00 Ry     beta= 0.70
     Davidson diagonalization with overlap
     ethr =  1.92E-07,  avg # of iterations =  4.7

     total cpu time spent up to now is        7.2 secs

     total energy              =    -333.18108941 Ry
     estimated scf accuracy    <       0.00008254 Ry

     iteration #  3     ecut=    30.00 Ry     beta= 0.70
     Davidson diagonalization with overlap
     ethr =  1.88E-07,  avg # of iterations =  4.5

     total cpu time spent up to now is        7.5 secs

     total energy              =    -333.18110850 Ry
     estimated scf accuracy    <       0.00001489 Ry

     iteration #  4     ecut=    30.00 Ry     beta= 0.70
     Davidson diagonalization with overlap
     ethr =  3.38E-08,  avg # of iterations =  3.7

     total cpu time spent up to now is        7.8 secs

     total energy              =    -333.18111071 Ry
     estimated scf accuracy    <       0.00000075 Ry

     iteration #  5     ecut=    30.00 Ry     beta= 0.70
     Davidson diagonalization with overlap
     ethr =  1.71E-09,  avg # of iterations =  5.8

     total cpu time spent up to now is        8.2 secs

     total energy              =    -333.18111135 Ry
     estimated scf accuracy    <       0.00000060 Ry

     iteration #  6     ecut=    30.00 Ry     beta= 0.70
     Davidson diagonalization with overlap
     ethr =  1.36E-09,  avg # of iterations =  2.3

     total cpu time spent up to now is        8.5 secs

     total energy              =    -333.18111129 Ry
     estimated scf accuracy    <       0.00000026 Ry

     iteration #  7     ecut=    30.00 Ry     beta= 0.70
     Davidson diagonalization with overlap
     ethr =  5.82E-10,  avg # of iterations =  4.5

     total cpu time spent up to now is        8.8 secs

     End of self-consistent calculation

          k = 0.1250 0.1250 0.1250 (  1096 PWs)   bands (ev):

   -44.6391 -21.3123 -21.2404 -21.2396  -6.3696  -5.3299  -5.2566  -4.0473
    -4.0388  -4.0270  -3.8603  -3.8515   4.5813   7.2422   7.2817   8.0227
     8.9560   9.0521   9.6523   9.7911  10.0035  10.1171

          k = 0.1250 0.1250 0.3750 (  1095 PWs)   bands (ev):

   -44.6378 -21.3698 -21.2381 -21.2371  -5.9269  -5.1921  -5.1307  -4.1056
    -4.0427  -4.0217  -3.9493  -3.8324   3.8235   6.7736   7.1770   7.8018
     8.4501   8.5859   9.3777   9.8457  10.1315  10.8590

          k = 0.1250 0.3750 0.3750 (  1093 PWs)   bands (ev):

   -44.6366 -21.3665 -21.2930 -21.2357  -5.7151  -5.0983  -4.9781  -4.0794
    -4.0351  -3.9809  -3.8900  -3.7250   3.4828   6.6343   6.9252   7.1476
     7.4723   8.6705   9.3188   9.4800   9.9820  10.6269

          k = 0.3750 0.3750 0.3750 (  1082 PWs)   bands (ev):

   -44.6353 -21.3638 -21.2905 -21.2902  -5.3717  -5.2037  -5.1557  -3.9938
    -3.9840  -3.7051  -3.6380  -3.6157   4.1079   5.8680   5.9331   6.6451
     7.0717   7.1167   7.9335  10.5581  10.6147  10.7183

          k = 0.3750-0.1250 0.1250 (  1095 PWs)   bands (ev):

   -44.6378 -21.3100 -21.2964 -21.2377  -5.9809  -5.1926  -5.1016  -4.1016
    -4.0369  -4.0248  -3.9585  -3.8250   3.8544   6.8484   7.3265   7.8017
     8.3877   8.7518   9.2418   9.8557   9.9650  10.7814

          k = 0.3750-0.3750 0.1250 (  1093 PWs)   bands (ev):

   -44.6366 -21.3080 -21.2935 -21.2927  -5.8137  -5.0290  -4.9532  -4.0707
    -4.0320  -3.9717  -3.8864  -3.7599   3.5109   6.7941   6.8530   7.1200
     7.4240   8.6327   9.4414   9.4584   9.9578  10.7206

     highest occupied level (ev):    10.8590

!    total energy              =    -333.18111136 Ry
     estimated scf accuracy    <       0.00000003 Ry

     The total energy is the sum of the following terms:
     one-electron contribution =     -77.40283319 Ry
     hartree contribution      =      66.60067249 Ry
     xc contribution           =     -49.65128082 Ry
     ewald contribution        =    -272.72766984 Ry

     convergence has been achieved in   7 iterations

     Forces acting on atoms (cartesian axes, Ry/au):

     atom    1 type  2   force =     0.00000000    0.00000000    0.01629791
     atom    2 type  3   force =     0.00000000    0.00000000   -0.03427180
     atom    3 type  1   force =     0.00000000    0.00000000    0.00264689
     atom    4 type  1   force =     0.00000000    0.00000000    0.00264689
     atom    5 type  1   force =     0.00000000    0.00000000    0.01268011
     The non-local contrib.  to forces
     atom    1 type  2   force =     0.00000000    0.00000000   -0.00891831
     atom    2 type  3   force =     0.00000000    0.00000000    0.01895274
     atom    3 type  1   force =     0.00000000    0.00000000    0.08756910
     atom    4 type  1   force =     0.00000000    0.00000000    0.08756910
     atom    5 type  1   force =     0.00000000    0.00000000   -0.25952717
     The ionic contribution  to forces
     atom    1 type  2   force =     0.00000000    0.00000000    0.92514374
     atom    2 type  3   force =    -0.00000000   -0.00000000   -2.00617629
     atom    3 type  1   force =     0.00000000    0.00000000   -1.02767833
     atom    4 type  1   force =     0.00000000    0.00000000   -1.02767833
     atom    5 type  1   force =    -0.00000000   -0.00000000    3.13638921
     The local contribution  to forces
     atom    1 type  2   force =    -0.00000000   -0.00000000   -0.89997479
     atom    2 type  3   force =    -0.00000000   -0.00000000    1.95307893
     atom    3 type  1   force =    -0.00000000   -0.00000000    0.94276440
     atom    4 type  1   force =    -0.00000000    0.00000000    0.94276440
     atom    5 type  1   force =    -0.00000000   -0.00000000   -2.86416563
     The core correction contribution to forces
     atom    1 type  2   force =     0.00000000    0.00000000    0.00000000
     atom    2 type  3   force =     0.00000000    0.00000000    0.00000000
     atom    3 type  1   force =     0.00000000    0.00000000    0.00000000
     atom    4 type  1   force =     0.00000000    0.00000000    0.00000000
     atom    5 type  1   force =     0.00000000    0.00000000    0.00000000
     The Hubbard contrib.    to forces
     atom    1 type  2   force =     0.00000000    0.00000000    0.00000000
     atom    2 type  3   force =     0.00000000    0.00000000    0.00000000
     atom    3 type  1   force =     0.00000000    0.00000000    0.00000000
     atom    4 type  1   force =     0.00000000    0.00000000    0.00000000
     atom    5 type  1   force =     0.00000000    0.00000000    0.00000000
     The SCF correction term to forces
     atom    1 type  2   force =    -0.00000000    0.00000000    0.00000000
     atom    2 type  3   force =     0.00000000   -0.00000000   -0.00000000
     atom    3 type  1   force =    -0.00000000   -0.00000000   -0.00000704
     atom    4 type  1   force =     0.00000000    0.00000000   -0.00000704
     atom    5 type  1   force =    -0.00000000   -0.00000000   -0.00001508

     Total force =     0.013221     Total SCF correction =     0.000018


     Computing stress (Cartesian axis) and pressure

          total   stress  (Ry/bohr**3)                   (kbar)     P=      -11.72
  -0.00014032   0.00000000   0.00000000          -20.64        0.00        0.00
   0.00000000  -0.00014032   0.00000000            0.00      -20.64        0.00
   0.00000000   0.00000000   0.00004153            0.00        0.00        6.11

     Energy error            =      3.3E-04 Ry
     Gradient error          =      1.3E-02 Ry/Bohr

     number of scf cycles    =   2
     number of bfgs steps    =   1

     energy             old  =    -333.1807776164 Ry
     energy             new  =    -333.1811113591 Ry

     CASE: energy            _new < energy            _old

     new trust radius        =       0.0220900878 bohr
     new conv_thr            =       0.0000000033 Ry


ATOMIC_POSITIONS (angstrom)
Pb            0.0000000000        0.0000000000        0.0000000000    0   0   0
Ti            1.9400000000        1.9400000000        2.0829500000    0   0   0
O             0.0000000000        1.9400000000        1.9427668333
O             1.9400000000        0.0000000000        1.9427668333
O             1.9400000000        1.9400000000        0.0223164538



     Writing config-only to output data dir /home/gridsan/epan1/labutil/lab3_samples/problem2/Lab3/PbTiO3_a_3.88_ecut_30_nk_4_displ_0.0368421052631579/pwscf.save/
     NEW-OLD atomic charge density approx. for the potential

     total cpu time spent up to now is       10.0 secs

     Self-consistent Calculation

     iteration #  1     ecut=    30.00 Ry     beta= 0.70
     Davidson diagonalization with overlap
     ethr =  1.00E-06,  avg # of iterations =  5.3

     total cpu time spent up to now is       10.3 secs

     total energy              =    -333.18131560 Ry
     estimated scf accuracy    <       0.00009097 Ry

     iteration #  2     ecut=    30.00 Ry     beta= 0.70
     Davidson diagonalization with overlap
     ethr =  2.07E-07,  avg # of iterations =  4.7

     total cpu time spent up to now is       10.7 secs

     total energy              =    -333.18132061 Ry
     estimated scf accuracy    <       0.00007253 Ry

     iteration #  3     ecut=    30.00 Ry     beta= 0.70
     Davidson diagonalization with overlap
     ethr =  1.65E-07,  avg # of iterations =  4.7

     total cpu time spent up to now is       11.0 secs

     total energy              =    -333.18133843 Ry
     estimated scf accuracy    <       0.00001801 Ry

     iteration #  4     ecut=    30.00 Ry     beta= 0.70
     Davidson diagonalization with overlap
     ethr =  4.09E-08,  avg # of iterations =  3.5

     total cpu time spent up to now is       11.4 secs

     total energy              =    -333.18134085 Ry
     estimated scf accuracy    <       0.00000100 Ry

     iteration #  5     ecut=    30.00 Ry     beta= 0.70
     Davidson diagonalization with overlap
     ethr =  2.26E-09,  avg # of iterations =  5.5

     total cpu time spent up to now is       11.8 secs

     total energy              =    -333.18134164 Ry
     estimated scf accuracy    <       0.00000108 Ry

     iteration #  6     ecut=    30.00 Ry     beta= 0.70
     Davidson diagonalization with overlap
     ethr =  2.26E-09,  avg # of iterations =  2.3

     total cpu time spent up to now is       12.0 secs

     total energy              =    -333.18134152 Ry
     estimated scf accuracy    <       0.00000050 Ry

     iteration #  7     ecut=    30.00 Ry     beta= 0.70
     Davidson diagonalization with overlap
     ethr =  1.13E-09,  avg # of iterations =  4.3

     total cpu time spent up to now is       12.4 secs

     total energy              =    -333.18134166 Ry
     estimated scf accuracy    <       0.00000004 Ry

     iteration #  8     ecut=    30.00 Ry     beta= 0.70
     Davidson diagonalization with overlap
     ethr =  9.49E-11,  avg # of iterations =  3.7

     total cpu time spent up to now is       12.7 secs

     total energy              =    -333.18134166 Ry
     estimated scf accuracy    <          8.5E-09 Ry

     iteration #  9     ecut=    30.00 Ry     beta= 0.70
     Davidson diagonalization with overlap
     ethr =  1.94E-11,  avg # of iterations =  5.0

     total cpu time spent up to now is       13.0 secs

     End of self-consistent calculation

          k = 0.1250 0.1250 0.1250 (  1096 PWs)   bands (ev):

   -44.6571 -21.3178 -21.2587 -21.2579  -6.3707  -5.3257  -5.2613  -4.0435
    -4.0360  -4.0241  -3.8571  -3.8493   4.5844   7.2439   7.2776   8.0209
     8.9731   9.0625   9.6754   9.7944   9.9970  10.1196

          k = 0.1250 0.1250 0.3750 (  1095 PWs)   bands (ev):

   -44.6558 -21.3751 -21.2564 -21.2555  -5.9318  -5.1845  -5.1362  -4.1021
    -4.0388  -4.0191  -3.9472  -3.8289   3.8313   6.7741   7.1878   7.7958
     8.4497   8.6037   9.3759   9.8497  10.1253  10.8567

          k = 0.1250 0.3750 0.3750 (  1093 PWs)   bands (ev):

   -44.6546 -21.3718 -21.3113 -21.2540  -5.7195  -5.0912  -4.9815  -4.0759
    -4.0316  -3.9777  -3.8870  -3.7237   3.4875   6.6451   6.9166   7.1468
     7.4701   8.6660   9.3340   9.4760   9.9871  10.6327

          k = 0.3750 0.3750 0.3750 (  1082 PWs)   bands (ev):

   -44.6533 -21.3691 -21.3087 -21.3085  -5.3690  -5.2022  -5.1592  -3.9900
    -3.9813  -3.7010  -3.6353  -3.6151   4.1109   5.8759   5.9322   6.6438
     7.0678   7.1066   7.9376  10.5687  10.6219  10.7147

          k = 0.3750-0.1250 0.1250 (  1095 PWs)   bands (ev):

   -44.6558 -21.3160 -21.3140 -21.2560  -5.9796  -5.1907  -5.1059  -4.0986
    -4.0336  -4.0218  -3.9552  -3.8227   3.8576   6.8432   7.3273   7.8011
     8.3889   8.7510   9.2556   9.8611   9.9760  10.7862

          k = 0.3750-0.3750 0.1250 (  1093 PWs)   bands (ev):

   -44.6546 -21.3141 -21.3111 -21.3110  -5.8068  -5.0327  -4.9579  -4.0681
    -4.0289  -3.9695  -3.8839  -3.7548   3.5112   6.7903   6.8496   7.1293
     7.4330   8.6325   9.4427   9.4568   9.9602  10.7162

     highest occupied level (ev):    10.8567

!    total energy              =    -333.18134166 Ry
     estimated scf accuracy    <          2.5E-09 Ry

     The total energy is the sum of the following terms:
     one-electron contribution =     -77.28980250 Ry
     hartree contribution      =      66.54031533 Ry
     xc contribution           =     -49.64690626 Ry
     ewald contribution        =    -272.78494823 Ry

     convergence has been achieved in   9 iterations

     Forces acting on atoms (cartesian axes, Ry/au):

     atom    1 type  2   force =     0.00000000    0.00000000    0.01633468
     atom    2 type  3   force =     0.00000000    0.00000000   -0.03052168
     atom    3 type  1   force =     0.00000000    0.00000000    0.00431820
     atom    4 type  1   force =     0.00000000    0.00000000    0.00431820
     atom    5 type  1   force =     0.00000000    0.00000000    0.00555060
     The non-local contrib.  to forces
     atom    1 type  2   force =     0.00000000    0.00000000   -0.01054967
     atom    2 type  3   force =     0.00000000    0.00000000    0.01779579
     atom    3 type  1   force =     0.00000000    0.00000000    0.09287598
     atom    4 type  1   force =     0.00000000    0.00000000    0.09287598
     atom    5 type  1   force =     0.00000000    0.00000000   -0.24699187
     The ionic contribution  to forces
     atom    1 type  2   force =     0.00000000    0.00000000    0.91427974
     atom    2 type  3   force =    -0.00000000   -0.00000000   -1.75593663
     atom    3 type  1   force =     0.00000000    0.00000000   -0.99918780
     atom    4 type  1   force =     0.00000000    0.00000000   -0.99918780
     atom    5 type  1   force =    -0.00000000   -0.00000000    2.84003249
     The local contribution  to forces
     atom    1 type  2   force =    -0.00000000    0.00000000   -0.88740846
     atom    2 type  3   force =    -0.00000000   -0.00000000    1.70761754
     atom    3 type  1   force =     0.00000000   -0.00000000    0.91062917
     atom    4 type  1   force =    -0.00000000    0.00000000    0.91062917
     atom    5 type  1   force =    -0.00000000   -0.00000000   -2.58750765
     The core correction contribution to forces
     atom    1 type  2   force =     0.00000000    0.00000000    0.00000000
     atom    2 type  3   force =     0.00000000    0.00000000    0.00000000
     atom    3 type  1   force =     0.00000000    0.00000000    0.00000000
     atom    4 type  1   force =     0.00000000    0.00000000    0.00000000
     atom    5 type  1   force =     0.00000000    0.00000000    0.00000000
     The Hubbard contrib.    to forces
     atom    1 type  2   force =     0.00000000    0.00000000    0.00000000
     atom    2 type  3   force =     0.00000000    0.00000000    0.00000000
     atom    3 type  1   force =     0.00000000    0.00000000    0.00000000
     atom    4 type  1   force =     0.00000000    0.00000000    0.00000000
     atom    5 type  1   force =     0.00000000    0.00000000    0.00000000
     The SCF correction term to forces
     atom    1 type  2   force =    -0.00000000   -0.00000000    0.00000000
     atom    2 type  3   force =    -0.00000000   -0.00000000   -0.00000000
     atom    3 type  1   force =     0.00000000    0.00000000   -0.00000656
     atom    4 type  1   force =     0.00000000    0.00000000   -0.00000656
     atom    5 type  1   force =     0.00000000   -0.00000000    0.00001023

     Total force =     0.008252     Total SCF correction =     0.000014


     Computing stress (Cartesian axis) and pressure

          total   stress  (Ry/bohr**3)                   (kbar)     P=      -13.99
  -0.00014342   0.00000000   0.00000000          -21.10        0.00        0.00
   0.00000000  -0.00014342   0.00000000            0.00      -21.10        0.00
   0.00000000   0.00000000   0.00000150            0.00        0.00        0.22

     Energy error            =      2.3E-04 Ry
     Gradient error          =      5.6E-03 Ry/Bohr

     number of scf cycles    =   3
     number of bfgs steps    =   2

     energy             old  =    -333.1811113591 Ry
     energy             new  =    -333.1813416627 Ry

     CASE: energy            _new < energy            _old

     new trust radius        =       0.0278291119 bohr
     new conv_thr            =       0.0000000023 Ry


ATOMIC_POSITIONS (angstrom)
Pb            0.0000000000        0.0000000000        0.0000000000    0   0   0
Ti            1.9400000000        1.9400000000        2.0829500000    0   0   0
O             0.0000000000        1.9400000000        1.9488776407
O             1.9400000000        0.0000000000        1.9488776407
O             1.9400000000        1.9400000000        0.0370429856



     Writing config-only to output data dir /home/gridsan/epan1/labutil/lab3_samples/problem2/Lab3/PbTiO3_a_3.88_ecut_30_nk_4_displ_0.0368421052631579/pwscf.save/
     NEW-OLD atomic charge density approx. for the potential

     total cpu time spent up to now is       14.2 secs

     Self-consistent Calculation

     iteration #  1     ecut=    30.00 Ry     beta= 0.70
     Davidson diagonalization with overlap
     ethr =  1.00E-06,  avg # of iterations =  6.0

     total cpu time spent up to now is       14.6 secs

     total energy              =    -333.18147733 Ry
     estimated scf accuracy    <       0.00015045 Ry

     iteration #  2     ecut=    30.00 Ry     beta= 0.70
     Davidson diagonalization with overlap
     ethr =  3.42E-07,  avg # of iterations =  4.7

     total cpu time spent up to now is       14.9 secs

     total energy              =    -333.18148290 Ry
     estimated scf accuracy    <       0.00012063 Ry

     iteration #  3     ecut=    30.00 Ry     beta= 0.70
     Davidson diagonalization with overlap
     ethr =  2.74E-07,  avg # of iterations =  4.5

     total cpu time spent up to now is       15.3 secs

     total energy              =    -333.18151181 Ry
     estimated scf accuracy    <       0.00002951 Ry

     iteration #  4     ecut=    30.00 Ry     beta= 0.70
     Davidson diagonalization with overlap
     ethr =  6.71E-08,  avg # of iterations =  3.7

     total cpu time spent up to now is       15.6 secs

     total energy              =    -333.18151567 Ry
     estimated scf accuracy    <       0.00000153 Ry

     iteration #  5     ecut=    30.00 Ry     beta= 0.70
     Davidson diagonalization with overlap
     ethr =  3.47E-09,  avg # of iterations =  5.7

     total cpu time spent up to now is       15.9 secs

     total energy              =    -333.18151697 Ry
     estimated scf accuracy    <       0.00000140 Ry

     iteration #  6     ecut=    30.00 Ry     beta= 0.70
     Davidson diagonalization with overlap
     ethr =  3.19E-09,  avg # of iterations =  1.8

     total cpu time spent up to now is       16.2 secs

     total energy              =    -333.18151685 Ry
     estimated scf accuracy    <       0.00000058 Ry

     iteration #  7     ecut=    30.00 Ry     beta= 0.70
     Davidson diagonalization with overlap
     ethr =  1.31E-09,  avg # of iterations =  4.3

     total cpu time spent up to now is       16.5 secs

     total energy              =    -333.18151704 Ry
     estimated scf accuracy    <       0.00000006 Ry

     iteration #  8     ecut=    30.00 Ry     beta= 0.70
     Davidson diagonalization with overlap
     ethr =  1.30E-10,  avg # of iterations =  4.0

     total cpu time spent up to now is       16.8 secs

     total energy              =    -333.18151705 Ry
     estimated scf accuracy    <          3.1E-09 Ry

     iteration #  9     ecut=    30.00 Ry     beta= 0.70
     Davidson diagonalization with overlap
     ethr =  7.01E-12,  avg # of iterations =  5.0

     total cpu time spent up to now is       17.1 secs

     End of self-consistent calculation

          k = 0.1250 0.1250 0.1250 (  1096 PWs)   bands (ev):

   -44.6762 -21.3231 -21.2784 -21.2776  -6.3719  -5.3208  -5.2684  -4.0395
    -4.0331  -4.0212  -3.8538  -3.8473   4.5876   7.2462   7.2727   8.0205
     8.9943   9.0731   9.7082   9.8006   9.9872  10.1193

          k = 0.1250 0.1250 0.3750 (  1095 PWs)   bands (ev):

   -44.6750 -21.3803 -21.2761 -21.2752  -5.9384  -5.1748  -5.1444  -4.0983
    -4.0347  -4.0164  -3.9451  -3.8254   3.8406   6.7760   7.2038   7.7906
     8.4459   8.6243   9.3726   9.8562  10.1163  10.8519

          k = 0.1250 0.3750 0.3750 (  1093 PWs)   bands (ev):

   -44.6738 -21.3770 -21.3309 -21.2738  -5.7257  -5.0825  -4.9855  -4.0721
    -4.0280  -3.9743  -3.8840  -3.7227   3.4927   6.6605   6.9030   7.1460
     7.4666   8.6597   9.3508   9.4704   9.9920  10.6404

          k = 0.3750 0.3750 0.3750 (  1082 PWs)   bands (ev):

   -44.6725 -21.3743 -21.3284 -21.3282  -5.3658  -5.1998  -5.1640  -3.9860
    -3.9787  -3.6966  -3.6322  -3.6148   4.1136   5.8848   5.9297   6.6444
     7.0600   7.0909   7.9418  10.5819  10.6298  10.7102

          k = 0.3750-0.1250 0.1250 (  1095 PWs)   bands (ev):

   -44.6750 -21.3344 -21.3207 -21.2757  -5.9777  -5.1891  -5.1118  -4.0955
    -4.0303  -4.0187  -3.9515  -3.8203   3.8610   6.8355   7.3265   7.8003
     8.3907   8.7471   9.2726   9.8681   9.9908  10.7915

          k = 0.3750-0.3750 0.1250 (  1093 PWs)   bands (ev):

   -44.6738 -21.3316 -21.3306 -21.3187  -5.7974  -5.0377  -4.9642  -4.0656
    -4.0257  -3.9672  -3.8814  -3.7491   3.5107   6.7854   6.8436   7.1381
     7.4414   8.6321   9.4418   9.4549   9.9642  10.7100

     highest occupied level (ev):    10.8519

!    total energy              =    -333.18151705 Ry
     estimated scf accuracy    <          2.9E-10 Ry

     The total energy is the sum of the following terms:
     one-electron contribution =     -77.18664126 Ry
     hartree contribution      =      66.48386778 Ry
     xc contribution           =     -49.64242917 Ry
     ewald contribution        =    -272.83631441 Ry

     convergence has been achieved in   9 iterations

     Forces acting on atoms (cartesian axes, Ry/au):

     atom    1 type  2   force =     0.00000000    0.00000000    0.01613603
     atom    2 type  3   force =     0.00000000    0.00000000   -0.02644970
     atom    3 type  1   force =     0.00000000    0.00000000    0.00598465
     atom    4 type  1   force =     0.00000000    0.00000000    0.00598465
     atom    5 type  1   force =     0.00000000    0.00000000   -0.00165564
     The non-local contrib.  to forces
     atom    1 type  2   force =     0.00000000    0.00000000   -0.01493788
     atom    2 type  3   force =     0.00000000    0.00000000    0.01642693
     atom    3 type  1   force =     0.00000000    0.00000000    0.09812425
     atom    4 type  1   force =     0.00000000    0.00000000    0.09812425
     atom    5 type  1   force =     0.00000000    0.00000000   -0.22875041
     The ionic contribution  to forces
     atom    1 type  2   force =     0.00000000    0.00000000    0.94511376
     atom    2 type  3   force =    -0.00000000   -0.00000000   -1.48931308
     atom    3 type  1   force =     0.00000000   -0.00000000   -0.97158040
     atom    4 type  1   force =    -0.00000000    0.00000000   -0.97158040
     atom    5 type  1   force =    -0.00000000   -0.00000000    2.48736011
     The local contribution  to forces
     atom    1 type  2   force =     0.00000000   -0.00000000   -0.91404472
     atom    2 type  3   force =    -0.00000000   -0.00000000    1.44641736
     atom    3 type  1   force =     0.00000000   -0.00000000    0.87942428
     atom    4 type  1   force =    -0.00000000    0.00000000    0.87942428
     atom    5 type  1   force =    -0.00000000   -0.00000000   -2.26026571
     The core correction contribution to forces
     atom    1 type  2   force =     0.00000000    0.00000000    0.00000000
     atom    2 type  3   force =     0.00000000    0.00000000    0.00000000
     atom    3 type  1   force =     0.00000000    0.00000000    0.00000000
     atom    4 type  1   force =     0.00000000    0.00000000    0.00000000
     atom    5 type  1   force =     0.00000000    0.00000000    0.00000000
     The Hubbard contrib.    to forces
     atom    1 type  2   force =     0.00000000    0.00000000    0.00000000
     atom    2 type  3   force =     0.00000000    0.00000000    0.00000000
     atom    3 type  1   force =     0.00000000    0.00000000    0.00000000
     atom    4 type  1   force =     0.00000000    0.00000000    0.00000000
     atom    5 type  1   force =     0.00000000    0.00000000    0.00000000
     The SCF correction term to forces
     atom    1 type  2   force =    -0.00000000    0.00000000   -0.00000000
     atom    2 type  3   force =    -0.00000000   -0.00000000    0.00000000
     atom    3 type  1   force =    -0.00000000    0.00000000    0.00000572
     atom    4 type  1   force =     0.00000000    0.00000000    0.00000572
     atom    5 type  1   force =     0.00000000    0.00000000   -0.00001043

     Total force =     0.008624     Total SCF correction =     0.000013


     Computing stress (Cartesian axis) and pressure

          total   stress  (Ry/bohr**3)                   (kbar)     P=      -16.77
  -0.00014861   0.00000000   0.00000000          -21.86        0.00        0.00
   0.00000000  -0.00014861   0.00000000            0.00      -21.86        0.00
   0.00000000   0.00000000  -0.00004479            0.00        0.00       -6.59

     Energy error            =      1.8E-04 Ry
     Gradient error          =      6.0E-03 Ry/Bohr

     number of scf cycles    =   4
     number of bfgs steps    =   3

     energy             old  =    -333.1813416627 Ry
     energy             new  =    -333.1815170514 Ry

     CASE: energy            _new < energy            _old

     new trust radius        =       0.0202194060 bohr
     new conv_thr            =       0.0000000018 Ry


ATOMIC_POSITIONS (angstrom)
Pb            0.0000000000        0.0000000000        0.0000000000    0   0   0
Ti            1.9400000000        1.9400000000        2.0829500000    0   0   0
O             0.0000000000        1.9400000000        1.9573819000
O             1.9400000000        0.0000000000        1.9573819000
O             1.9400000000        1.9400000000        0.0477426345



     Writing config-only to output data dir /home/gridsan/epan1/labutil/lab3_samples/problem2/Lab3/PbTiO3_a_3.88_ecut_30_nk_4_displ_0.0368421052631579/pwscf.save/
     NEW-OLD atomic charge density approx. for the potential

     total cpu time spent up to now is       18.3 secs

     Self-consistent Calculation

     iteration #  1     ecut=    30.00 Ry     beta= 0.70
     Davidson diagonalization with overlap
     ethr =  1.00E-06,  avg # of iterations =  5.5

     total cpu time spent up to now is       18.7 secs

     total energy              =    -333.18163018 Ry
     estimated scf accuracy    <       0.00009337 Ry

     iteration #  2     ecut=    30.00 Ry     beta= 0.70
     Davidson diagonalization with overlap
     ethr =  2.12E-07,  avg # of iterations =  4.5

     total cpu time spent up to now is       19.0 secs

     total energy              =    -333.18163098 Ry
     estimated scf accuracy    <       0.00005088 Ry

     iteration #  3     ecut=    30.00 Ry     beta= 0.70
     Davidson diagonalization with overlap
     ethr =  1.16E-07,  avg # of iterations =  4.5

     total cpu time spent up to now is       19.3 secs

     total energy              =    -333.18164461 Ry
     estimated scf accuracy    <       0.00003101 Ry

     iteration #  4     ecut=    30.00 Ry     beta= 0.70
     Davidson diagonalization with overlap
     ethr =  7.05E-08,  avg # of iterations =  3.7

     total cpu time spent up to now is       19.6 secs

     total energy              =    -333.18164757 Ry
     estimated scf accuracy    <       0.00000217 Ry

     iteration #  5     ecut=    30.00 Ry     beta= 0.70
     Davidson diagonalization with overlap
     ethr =  4.93E-09,  avg # of iterations =  5.7

     total cpu time spent up to now is       20.0 secs

     total energy              =    -333.18164953 Ry
     estimated scf accuracy    <       0.00000272 Ry

     iteration #  6     ecut=    30.00 Ry     beta= 0.70
     Davidson diagonalization with overlap
     ethr =  4.93E-09,  avg # of iterations =  1.3

     total cpu time spent up to now is       20.3 secs

     total energy              =    -333.18164915 Ry
     estimated scf accuracy    <       0.00000163 Ry

     iteration #  7     ecut=    30.00 Ry     beta= 0.70
     Davidson diagonalization with overlap
     ethr =  3.71E-09,  avg # of iterations =  3.3

     total cpu time spent up to now is       20.6 secs

     total energy              =    -333.18164940 Ry
     estimated scf accuracy    <       0.00000009 Ry

     iteration #  8     ecut=    30.00 Ry     beta= 0.70
     Davidson diagonalization with overlap
     ethr =  2.13E-10,  avg # of iterations =  5.0

     total cpu time spent up to now is       20.9 secs

     total energy              =    -333.18164944 Ry
     estimated scf accuracy    <          4.0E-09 Ry

     iteration #  9     ecut=    30.00 Ry     beta= 0.70
     Davidson diagonalization with overlap
     ethr =  9.15E-12,  avg # of iterations =  5.7

     total cpu time spent up to now is       21.2 secs

     total energy              =    -333.18164944 Ry
     estimated scf accuracy    <          5.2E-09 Ry

     iteration # 10     ecut=    30.00 Ry     beta= 0.70
     Davidson diagonalization with overlap
     ethr =  9.15E-12,  avg # of iterations =  3.5

     total cpu time spent up to now is       21.5 secs

     End of self-consistent calculation

          k = 0.1250 0.1250 0.1250 (  1096 PWs)   bands (ev):

   -44.6887 -21.3268 -21.2915 -21.2907  -6.3727  -5.3179  -5.2751  -4.0369
    -4.0314  -4.0193  -3.8518  -3.8460   4.5898   7.2486   7.2697   8.0221
     9.0098   9.0789   9.7360   9.8072   9.9777  10.1149

          k = 0.1250 0.1250 0.3750 (  1095 PWs)   bands (ev):

   -44.6875 -21.3839 -21.2892 -21.2882  -5.9438  -5.1678  -5.1519  -4.0957
    -4.0321  -4.0147  -3.9437  -3.8231   3.8476   6.7782   7.2189   7.7896
     8.4388   8.6376   9.3684   9.8627  10.1081  10.8466

          k = 0.1250 0.3750 0.3750 (  1093 PWs)   bands (ev):

   -44.6862 -21.3806 -21.3440 -21.2868  -5.7309  -5.0766  -4.9883  -4.0697
    -4.0257  -3.9721  -3.8819  -3.7222   3.4961   6.6739   6.8895   7.1457
     7.4632   8.6542   9.3606   9.4652   9.9943  10.6463

          k = 0.3750 0.3750 0.3750 (  1082 PWs)   bands (ev):

   -44.6849 -21.3779 -21.3415 -21.3412  -5.3635  -5.1980  -5.1680  -3.9834
    -3.9771  -3.6937  -3.6301  -3.6146   4.1143   5.8905   5.9263   6.6469
     7.0505   7.0751   7.9443  10.5913  10.6341  10.7071

          k = 0.3750-0.1250 0.1250 (  1095 PWs)   bands (ev):

   -44.6875 -21.3474 -21.3244 -21.2888  -5.9762  -5.1890  -5.1165  -4.0935
    -4.0282  -4.0168  -3.9488  -3.8188   3.8630   6.8284   7.3240   7.8001
     8.3925   8.7411   9.2839   9.8733  10.0028  10.7945

          k = 0.3750-0.3750 0.1250 (  1093 PWs)   bands (ev):

   -44.6863 -21.3446 -21.3437 -21.3224  -5.7899  -5.0420  -4.9693  -4.0641
    -4.0235  -3.9655  -3.8795  -3.7452   3.5095   6.7813   6.8375   7.1416
     7.4439   8.6313   9.4385   9.4534   9.9681  10.7046

     highest occupied level (ev):    10.8466

!    total energy              =    -333.18164944 Ry
     estimated scf accuracy    <          9.9E-10 Ry

     The total energy is the sum of the following terms:
     one-electron contribution =     -77.15126937 Ry
     hartree contribution      =      66.46295331 Ry
     xc contribution           =     -49.64013661 Ry
     ewald contribution        =    -272.85319677 Ry

     convergence has been achieved in  10 iterations

     Forces acting on atoms (cartesian axes, Ry/au):

     atom    1 type  2   force =     0.00000000    0.00000000    0.01563015
     atom    2 type  3   force =     0.00000000    0.00000000   -0.02387484
     atom    3 type  1   force =     0.00000000    0.00000000    0.00663491
     atom    4 type  1   force =     0.00000000    0.00000000    0.00663491
     atom    5 type  1   force =     0.00000000    0.00000000   -0.00502512
     The non-local contrib.  to forces
     atom    1 type  2   force =     0.00000000    0.00000000   -0.02108640
     atom    2 type  3   force =     0.00000000    0.00000000    0.01538665
     atom    3 type  1   force =     0.00000000    0.00000000    0.10009702
     atom    4 type  1   force =     0.00000000    0.00000000    0.10009702
     atom    5 type  1   force =     0.00000000    0.00000000   -0.21264986
     The ionic contribution  to forces
     atom    1 type  2   force =     0.00000000    0.00000000    1.02334884
     atom    2 type  3   force =    -0.00000000   -0.00000000   -1.35589652
     atom    3 type  1   force =     0.00000000   -0.00000000   -0.96173124
     atom    4 type  1   force =    -0.00000000    0.00000000   -0.96173124
     atom    5 type  1   force =    -0.00000000   -0.00000000    2.25601017
     The local contribution  to forces
     atom    1 type  2   force =    -0.00000000   -0.00000000   -0.98663860
     atom    2 type  3   force =    -0.00000000   -0.00000000    1.31661859
     atom    3 type  1   force =     0.00000000   -0.00000000    0.86825146
     atom    4 type  1   force =    -0.00000000    0.00000000    0.86825146
     atom    5 type  1   force =    -0.00000000   -0.00000000   -2.04838921
     The core correction contribution to forces
     atom    1 type  2   force =     0.00000000    0.00000000    0.00000000
     atom    2 type  3   force =     0.00000000    0.00000000    0.00000000
     atom    3 type  1   force =     0.00000000    0.00000000    0.00000000
     atom    4 type  1   force =     0.00000000    0.00000000    0.00000000
     atom    5 type  1   force =     0.00000000    0.00000000    0.00000000
     The Hubbard contrib.    to forces
     atom    1 type  2   force =     0.00000000    0.00000000    0.00000000
     atom    2 type  3   force =     0.00000000    0.00000000    0.00000000
     atom    3 type  1   force =     0.00000000    0.00000000    0.00000000
     atom    4 type  1   force =     0.00000000    0.00000000    0.00000000
     atom    5 type  1   force =     0.00000000    0.00000000    0.00000000
     The SCF correction term to forces
     atom    1 type  2   force =    -0.00000000   -0.00000000   -0.00000000
     atom    2 type  3   force =    -0.00000000   -0.00000000    0.00000000
     atom    3 type  1   force =    -0.00000000    0.00000000    0.00000545
     atom    4 type  1   force =    -0.00000000    0.00000000    0.00000545
     atom    5 type  1   force =     0.00000000   -0.00000000   -0.00000844

     Total force =     0.010644     Total SCF correction =     0.000011


     Computing stress (Cartesian axis) and pressure

          total   stress  (Ry/bohr**3)                   (kbar)     P=      -18.13
  -0.00014913   0.00000000   0.00000000          -21.94        0.00        0.00
   0.00000000  -0.00014913   0.00000000            0.00      -21.94        0.00
   0.00000000   0.00000000  -0.00007152            0.00        0.00      -10.52

     Energy error            =      1.3E-04 Ry
     Gradient error          =      6.6E-03 Ry/Bohr

     number of scf cycles    =   5
     number of bfgs steps    =   4

     energy             old  =    -333.1815170514 Ry
     energy             new  =    -333.1816494417 Ry

     CASE: energy            _new < energy            _old

     new trust radius        =       0.0222413466 bohr
     new conv_thr            =       0.0000000013 Ry


ATOMIC_POSITIONS (angstrom)
Pb            0.0000000000        0.0000000000        0.0000000000    0   0   0
Ti            1.9400000000        1.9400000000        2.0829500000    0   0   0
O             0.0000000000        1.9400000000        1.9691515138
O             1.9400000000        0.0000000000        1.9691515138
O             1.9400000000        1.9400000000        0.0585503461



     Writing config-only to output data dir /home/gridsan/epan1/labutil/lab3_samples/problem2/Lab3/PbTiO3_a_3.88_ecut_30_nk_4_displ_0.0368421052631579/pwscf.save/
     NEW-OLD atomic charge density approx. for the potential

     total cpu time spent up to now is       22.7 secs

     Self-consistent Calculation

     iteration #  1     ecut=    30.00 Ry     beta= 0.70
     Davidson diagonalization with overlap
     ethr =  1.00E-06,  avg # of iterations =  6.3

     total cpu time spent up to now is       23.1 secs

     total energy              =    -333.18180414 Ry
     estimated scf accuracy    <       0.00012364 Ry

     iteration #  2     ecut=    30.00 Ry     beta= 0.70
     Davidson diagonalization with overlap
     ethr =  2.81E-07,  avg # of iterations =  4.3

     total cpu time spent up to now is       23.4 secs

     total energy              =    -333.18180732 Ry
     estimated scf accuracy    <       0.00005264 Ry

     iteration #  3     ecut=    30.00 Ry     beta= 0.70
     Davidson diagonalization with overlap
     ethr =  1.20E-07,  avg # of iterations =  4.8

     total cpu time spent up to now is       23.8 secs

     total energy              =    -333.18182080 Ry
     estimated scf accuracy    <       0.00004705 Ry

     iteration #  4     ecut=    30.00 Ry     beta= 0.70
     Davidson diagonalization with overlap
     ethr =  1.07E-07,  avg # of iterations =  3.0

     total cpu time spent up to now is       24.1 secs

     total energy              =    -333.18182597 Ry
     estimated scf accuracy    <       0.00000224 Ry

     iteration #  5     ecut=    30.00 Ry     beta= 0.70
     Davidson diagonalization with overlap
     ethr =  5.08E-09,  avg # of iterations =  5.8

     total cpu time spent up to now is       24.5 secs

     total energy              =    -333.18182842 Ry
     estimated scf accuracy    <       0.00000417 Ry

     iteration #  6     ecut=    30.00 Ry     beta= 0.70
     Davidson diagonalization with overlap
     ethr =  5.08E-09,  avg # of iterations =  2.0

     total cpu time spent up to now is       24.8 secs

     total energy              =    -333.18182793 Ry
     estimated scf accuracy    <       0.00000249 Ry

     iteration #  7     ecut=    30.00 Ry     beta= 0.70
     Davidson diagonalization with overlap
     ethr =  5.08E-09,  avg # of iterations =  3.5

     total cpu time spent up to now is       25.1 secs

     total energy              =    -333.18182815 Ry
     estimated scf accuracy    <       0.00000029 Ry

     iteration #  8     ecut=    30.00 Ry     beta= 0.70
     Davidson diagonalization with overlap
     ethr =  6.55E-10,  avg # of iterations =  4.3

     total cpu time spent up to now is       25.4 secs

     total energy              =    -333.18182826 Ry
     estimated scf accuracy    <       0.00000001 Ry

     iteration #  9     ecut=    30.00 Ry     beta= 0.70
     Davidson diagonalization with overlap
     ethr =  2.41E-11,  avg # of iterations =  4.5

     total cpu time spent up to now is       25.7 secs

     total energy              =    -333.18182826 Ry
     estimated scf accuracy    <       0.00000001 Ry

     iteration # 10     ecut=    30.00 Ry     beta= 0.70
     Davidson diagonalization with overlap
     ethr =  2.41E-11,  avg # of iterations =  4.2

     total cpu time spent up to now is       26.0 secs

     End of self-consistent calculation

          k = 0.1250 0.1250 0.1250 (  1096 PWs)   bands (ev):

   -44.7001 -21.3303 -21.3035 -21.3027  -6.3737  -5.3155  -5.2831  -4.0344
    -4.0296  -4.0175  -3.8499  -3.8444   4.5921   7.2513   7.2672   8.0247
     9.0249   9.0833   9.7669   9.8149   9.9663  10.1067

          k = 0.1250 0.1250 0.3750 (  1095 PWs)   bands (ev):

   -44.6988 -21.3873 -21.3013 -21.3003  -5.9499  -5.1611  -5.1609  -4.0931
    -4.0294  -4.0130  -3.9420  -3.8208   3.8547   6.7810   7.2361   7.7899
     8.4285   8.6498   9.3624   9.8701  10.0985  10.8399

          k = 0.1250 0.3750 0.3750 (  1093 PWs)   bands (ev):

   -44.6976 -21.3840 -21.3562 -21.2989  -5.7370  -5.0715  -4.9913  -4.0672
    -4.0234  -3.9697  -3.8797  -3.7214   3.4992   6.6888   6.8731   7.1451
     7.4594   8.6478   9.3682   9.4594   9.9961  10.6522

          k = 0.3750 0.3750 0.3750 (  1082 PWs)   bands (ev):

   -44.6963 -21.3813 -21.3536 -21.3534  -5.3616  -5.1960  -5.1727  -3.9808
    -3.9754  -3.6908  -3.6277  -3.6140   4.1139   5.8957   5.9218   6.6504
     7.0385   7.0565   7.9471  10.6002  10.6365  10.7044

          k = 0.3750-0.1250 0.1250 (  1095 PWs)   bands (ev):

   -44.6988 -21.3595 -21.3279 -21.3008  -5.9747  -5.1899  -5.1220  -4.0916
    -4.0261  -4.0147  -3.9456  -3.8170   3.8648   6.8201   7.3202   7.8002
     8.3943   8.7331   9.2941   9.8779  10.0151  10.7971

          k = 0.3750-0.3750 0.1250 (  1093 PWs)   bands (ev):

   -44.6976 -21.3567 -21.3558 -21.3260  -5.7821  -5.0472  -4.9755  -4.0625
    -4.0211  -3.9633  -3.8772  -3.7413   3.5073   6.7768   6.8299   7.1428
     7.4441   8.6302   9.4332   9.4515   9.9728  10.6981

     highest occupied level (ev):    10.8399

!    total energy              =    -333.18182826 Ry
     estimated scf accuracy    <          8.1E-10 Ry

     The total energy is the sum of the following terms:
     one-electron contribution =     -77.14638832 Ry
     hartree contribution      =      66.45751278 Ry
     xc contribution           =     -49.63860038 Ry
     ewald contribution        =    -272.85435234 Ry

     convergence has been achieved in  10 iterations

     Forces acting on atoms (cartesian axes, Ry/au):

     atom    1 type  2   force =     0.00000000    0.00000000    0.01484147
     atom    2 type  3   force =     0.00000000    0.00000000   -0.02163070
     atom    3 type  1   force =     0.00000000    0.00000000    0.00686733
     atom    4 type  1   force =     0.00000000    0.00000000    0.00686733
     atom    5 type  1   force =     0.00000000    0.00000000   -0.00694542
     The non-local contrib.  to forces
     atom    1 type  2   force =     0.00000000    0.00000000   -0.02959984
     atom    2 type  3   force =     0.00000000    0.00000000    0.01433482
     atom    3 type  1   force =     0.00000000    0.00000000    0.10075303
     atom    4 type  1   force =     0.00000000    0.00000000    0.10075303
     atom    5 type  1   force =     0.00000000    0.00000000   -0.19419038
     The ionic contribution  to forces
     atom    1 type  2   force =     0.00000000    0.00000000    1.14602111
     atom    2 type  3   force =    -0.00000000   -0.00000000   -1.26889604
     atom    3 type  1   force =     0.00000000    0.00000000   -0.95943174
     atom    4 type  1   force =     0.00000000    0.00000000   -0.95943174
     atom    5 type  1   force =     0.00000000    0.00000000    2.04173841
     The local contribution  to forces
     atom    1 type  2   force =    -0.00000000    0.00000000   -1.10158079
     atom    2 type  3   force =    -0.00000000   -0.00000000    1.23291872
     atom    3 type  1   force =     0.00000000   -0.00000000    0.86553188
     atom    4 type  1   force =    -0.00000000   -0.00000000    0.86553188
     atom    5 type  1   force =    -0.00000000   -0.00000000   -1.85449327
     The core correction contribution to forces
     atom    1 type  2   force =     0.00000000    0.00000000    0.00000000
     atom    2 type  3   force =     0.00000000    0.00000000    0.00000000
     atom    3 type  1   force =     0.00000000    0.00000000    0.00000000
     atom    4 type  1   force =     0.00000000    0.00000000    0.00000000
     atom    5 type  1   force =     0.00000000    0.00000000    0.00000000
     The Hubbard contrib.    to forces
     atom    1 type  2   force =     0.00000000    0.00000000    0.00000000
     atom    2 type  3   force =     0.00000000    0.00000000    0.00000000
     atom    3 type  1   force =     0.00000000    0.00000000    0.00000000
     atom    4 type  1   force =     0.00000000    0.00000000    0.00000000
     atom    5 type  1   force =     0.00000000    0.00000000    0.00000000
     The SCF correction term to forces
     atom    1 type  2   force =    -0.00000000   -0.00000000   -0.00000000
     atom    2 type  3   force =    -0.00000000   -0.00000000    0.00000000
     atom    3 type  1   force =     0.00000000   -0.00000000    0.00000578
     atom    4 type  1   force =    -0.00000000    0.00000000    0.00000578
     atom    5 type  1   force =    -0.00000000   -0.00000000   -0.00000857

     Total force =     0.011940     Total SCF correction =     0.000012


     Computing stress (Cartesian axis) and pressure

          total   stress  (Ry/bohr**3)                   (kbar)     P=      -19.02
  -0.00014741   0.00000000   0.00000000          -21.69        0.00        0.00
   0.00000000  -0.00014741   0.00000000            0.00      -21.69        0.00
   0.00000000   0.00000000  -0.00009304            0.00        0.00      -13.69

     Energy error            =      1.8E-04 Ry
     Gradient error          =      6.9E-03 Ry/Bohr

     number of scf cycles    =   6
     number of bfgs steps    =   5

     energy             old  =    -333.1816494417 Ry
     energy             new  =    -333.1818282613 Ry

     CASE: energy            _new < energy            _old

     new trust radius        =       0.0333620198 bohr
     new conv_thr            =       0.0000000018 Ry


ATOMIC_POSITIONS (angstrom)
Pb            0.0000000000        0.0000000000        0.0000000000    0   0   0
Ti            1.9400000000        1.9400000000        2.0829500000    0   0   0
O             0.0000000000        1.9400000000        1.9868059344
O             1.9400000000        0.0000000000        1.9868059344
O             1.9400000000        1.9400000000        0.0723056496



     Writing config-only to output data dir /home/gridsan/epan1/labutil/lab3_samples/problem2/Lab3/PbTiO3_a_3.88_ecut_30_nk_4_displ_0.0368421052631579/pwscf.save/
     NEW-OLD atomic charge density approx. for the potential

     total cpu time spent up to now is       27.2 secs

     Self-consistent Calculation

     iteration #  1     ecut=    30.00 Ry     beta= 0.70
     Davidson diagonalization with overlap
     ethr =  1.00E-06,  avg # of iterations =  7.3

     total cpu time spent up to now is       27.7 secs

     total energy              =    -333.18205203 Ry
     estimated scf accuracy    <       0.00023780 Ry

     iteration #  2     ecut=    30.00 Ry     beta= 0.70
     Davidson diagonalization with overlap
     ethr =  5.40E-07,  avg # of iterations =  3.3

     total cpu time spent up to now is       28.0 secs

     total energy              =    -333.18207326 Ry
     estimated scf accuracy    <       0.00004816 Ry

     iteration #  3     ecut=    30.00 Ry     beta= 0.70
     Davidson diagonalization with overlap
     ethr =  1.09E-07,  avg # of iterations =  4.8

     total cpu time spent up to now is       28.3 secs

     total energy              =    -333.18208285 Ry
     estimated scf accuracy    <       0.00004506 Ry

     iteration #  4     ecut=    30.00 Ry     beta= 0.70
     Davidson diagonalization with overlap
     ethr =  1.02E-07,  avg # of iterations =  4.2

     total cpu time spent up to now is       28.6 secs

     total energy              =    -333.18209163 Ry
     estimated scf accuracy    <       0.00000117 Ry

     iteration #  5     ecut=    30.00 Ry     beta= 0.70
     Davidson diagonalization with overlap
     ethr =  2.66E-09,  avg # of iterations =  6.0

     total cpu time spent up to now is       29.0 secs

     total energy              =    -333.18209211 Ry
     estimated scf accuracy    <       0.00000222 Ry

     iteration #  6     ecut=    30.00 Ry     beta= 0.70
     Davidson diagonalization with overlap
     ethr =  2.66E-09,  avg # of iterations =  4.3

     total cpu time spent up to now is       29.3 secs

     total energy              =    -333.18209234 Ry
     estimated scf accuracy    <       0.00000014 Ry

     iteration #  7     ecut=    30.00 Ry     beta= 0.70
     Davidson diagonalization with overlap
     ethr =  3.10E-10,  avg # of iterations =  5.0

     total cpu time spent up to now is       29.7 secs

     total energy              =    -333.18209239 Ry
     estimated scf accuracy    <       0.00000003 Ry

     iteration #  8     ecut=    30.00 Ry     beta= 0.70
     Davidson diagonalization with overlap
     ethr =  6.00E-11,  avg # of iterations =  2.0

     total cpu time spent up to now is       30.0 secs

     total energy              =    -333.18209239 Ry
     estimated scf accuracy    <       0.00000001 Ry

     iteration #  9     ecut=    30.00 Ry     beta= 0.70
     Davidson diagonalization with overlap
     ethr =  3.28E-11,  avg # of iterations =  4.5

     total cpu time spent up to now is       30.3 secs

     End of self-consistent calculation

          k = 0.1250 0.1250 0.1250 (  1096 PWs)   bands (ev):

   -44.7131 -21.3347 -21.3175 -21.3167  -6.3758  -5.3129  -5.2947  -4.0308
    -4.0270  -4.0146  -3.8474  -3.8413   4.5949   7.2541   7.2646   8.0285
     9.0423   9.0867   9.8075   9.8248   9.9504  10.0922

          k = 0.1250 0.1250 0.3750 (  1095 PWs)   bands (ev):

   -44.7119 -21.3915 -21.3153 -21.3143  -5.9589  -5.1743  -5.1523  -4.0890
    -4.0255  -4.0103  -3.9387  -3.8177   3.8638   6.7849   7.2578   7.7901
     8.4138   8.6641   9.3530   9.8792  10.0848  10.8311

          k = 0.1250 0.3750 0.3750 (  1093 PWs)   bands (ev):

   -44.7107 -21.3882 -21.3703 -21.3129  -5.7459  -5.0670  -4.9947  -4.0636
    -4.0201  -3.9661  -3.8763  -3.7196   3.5032   6.7079   6.8507   7.1432
     7.4545   8.6388   9.3745   9.4523   9.9979  10.6590

          k = 0.3750 0.3750 0.3750 (  1082 PWs)   bands (ev):

   -44.7094 -21.3855 -21.3677 -21.3675  -5.3605  -5.1934  -5.1798  -3.9771
    -3.9728  -3.6871  -3.6240  -3.6124   4.1120   5.9017   5.9151   6.6547
     7.0225   7.0320   7.9520  10.6103  10.6358  10.7022

          k = 0.3750-0.1250 0.1250 (  1095 PWs)   bands (ev):

   -44.7119 -21.3736 -21.3323 -21.3148  -5.9737  -5.1922  -5.1299  -4.0888
    -4.0230  -4.0116  -3.9405  -3.8140   3.8667   6.8089   7.3139   7.8004
     8.3961   8.7217   9.3052   9.8823  10.0296  10.8003

          k = 0.3750-0.3750 0.1250 (  1093 PWs)   bands (ev):

   -44.7107 -21.3708 -21.3699 -21.3304  -5.7723  -5.0553  -4.9851  -4.0601
    -4.0174  -3.9593  -3.8731  -3.7360   3.5035   6.7704   6.8192   7.1425
     7.4430   8.6289   9.4254   9.4490   9.9796  10.6886

     highest occupied level (ev):    10.8311

!    total energy              =    -333.18209239 Ry
     estimated scf accuracy    <          3.8E-10 Ry

     The total energy is the sum of the following terms:
     one-electron contribution =     -77.17113681 Ry
     hartree contribution      =      66.46650302 Ry
     xc contribution           =     -49.63748345 Ry
     ewald contribution        =    -272.83997516 Ry

     convergence has been achieved in   9 iterations

     Forces acting on atoms (cartesian axes, Ry/au):

     atom    1 type  2   force =     0.00000000    0.00000000    0.01365174
     atom    2 type  3   force =     0.00000000    0.00000000   -0.01936383
     atom    3 type  1   force =     0.00000000    0.00000000    0.00682675
     atom    4 type  1   force =     0.00000000    0.00000000    0.00682675
     atom    5 type  1   force =     0.00000000    0.00000000   -0.00794142
     The non-local contrib.  to forces
     atom    1 type  2   force =     0.00000000    0.00000000   -0.04233890
     atom    2 type  3   force =     0.00000000    0.00000000    0.01311817
     atom    3 type  1   force =     0.00000000    0.00000000    0.10069252
     atom    4 type  1   force =     0.00000000    0.00000000    0.10069252
     atom    5 type  1   force =     0.00000000    0.00000000   -0.16886030
     The ionic contribution  to forces
     atom    1 type  2   force =     0.00000000    0.00000000    1.33876389
     atom    2 type  3   force =    -0.00000000   -0.00000000   -1.19976736
     atom    3 type  1   force =     0.00000000   -0.00000000   -0.96231976
     atom    4 type  1   force =    -0.00000000    0.00000000   -0.96231976
     atom    5 type  1   force =    -0.00000000   -0.00000000    1.78564298
     The local contribution  to forces
     atom    1 type  2   force =     0.00000000    0.00000000   -1.28276229
     atom    2 type  3   force =    -0.00000000   -0.00000000    1.16729165
     atom    3 type  1   force =     0.00000000   -0.00000000    0.86845695
     atom    4 type  1   force =    -0.00000000    0.00000000    0.86845695
     atom    5 type  1   force =    -0.00000000   -0.00000000   -1.62472304
     The core correction contribution to forces
     atom    1 type  2   force =     0.00000000    0.00000000    0.00000000
     atom    2 type  3   force =     0.00000000    0.00000000    0.00000000
     atom    3 type  1   force =     0.00000000    0.00000000    0.00000000
     atom    4 type  1   force =     0.00000000    0.00000000    0.00000000
     atom    5 type  1   force =     0.00000000    0.00000000    0.00000000
     The Hubbard contrib.    to forces
     atom    1 type  2   force =     0.00000000    0.00000000    0.00000000
     atom    2 type  3   force =     0.00000000    0.00000000    0.00000000
     atom    3 type  1   force =     0.00000000    0.00000000    0.00000000
     atom    4 type  1   force =     0.00000000    0.00000000    0.00000000
     atom    5 type  1   force =     0.00000000    0.00000000    0.00000000
     The SCF correction term to forces
     atom    1 type  2   force =    -0.00000000    0.00000000   -0.00000000
     atom    2 type  3   force =     0.00000000   -0.00000000   -0.00000000
     atom    3 type  1   force =    -0.00000000   -0.00000000    0.00000245
     atom    4 type  1   force =    -0.00000000   -0.00000000    0.00000245
     atom    5 type  1   force =     0.00000000   -0.00000000    0.00000434

     Total force =     0.012501     Total SCF correction =     0.000006


     Computing stress (Cartesian axis) and pressure

          total   stress  (Ry/bohr**3)                   (kbar)     P=      -19.58
  -0.00014297   0.00000000   0.00000000          -21.03        0.00        0.00
   0.00000000  -0.00014297   0.00000000            0.00      -21.03        0.00
   0.00000000   0.00000000  -0.00011338            0.00        0.00      -16.68

     Energy error            =      2.6E-04 Ry
     Gradient error          =      7.9E-03 Ry/Bohr

     number of scf cycles    =   7
     number of bfgs steps    =   6

     energy             old  =    -333.1818282613 Ry
     energy             new  =    -333.1820923946 Ry

     CASE: energy            _new < energy            _old

     new trust radius        =       0.0500430298 bohr
     new conv_thr            =       0.0000000026 Ry


ATOMIC_POSITIONS (angstrom)
Pb            0.0000000000        0.0000000000        0.0000000000    0   0   0
Ti            1.9400000000        1.9400000000        2.0829500000    0   0   0
O             0.0000000000        1.9400000000        2.0132875653
O             1.9400000000        0.0000000000        2.0132875653
O             1.9400000000        1.9400000000        0.0913695820



     Writing config-only to output data dir /home/gridsan/epan1/labutil/lab3_samples/problem2/Lab3/PbTiO3_a_3.88_ecut_30_nk_4_displ_0.0368421052631579/pwscf.save/
     NEW-OLD atomic charge density approx. for the potential

     total cpu time spent up to now is       31.7 secs

     Self-consistent Calculation

     iteration #  1     ecut=    30.00 Ry     beta= 0.70
     Davidson diagonalization with overlap
     ethr =  1.00E-06,  avg # of iterations =  8.8

     total cpu time spent up to now is       32.2 secs

     total energy              =    -333.18238656 Ry
     estimated scf accuracy    <       0.00049896 Ry

     iteration #  2     ecut=    30.00 Ry     beta= 0.70
     Davidson diagonalization with overlap
     ethr =  1.13E-06,  avg # of iterations =  2.8

     total cpu time spent up to now is       32.5 secs

     total energy              =    -333.18244666 Ry
     estimated scf accuracy    <       0.00006100 Ry

     iteration #  3     ecut=    30.00 Ry     beta= 0.70
     Davidson diagonalization with overlap
     ethr =  1.39E-07,  avg # of iterations =  4.7

     total cpu time spent up to now is       32.8 secs

     total energy              =    -333.18245564 Ry
     estimated scf accuracy    <       0.00005156 Ry

     iteration #  4     ecut=    30.00 Ry     beta= 0.70
     Davidson diagonalization with overlap
     ethr =  1.17E-07,  avg # of iterations =  4.2

     total cpu time spent up to now is       33.1 secs

     total energy              =    -333.18246802 Ry
     estimated scf accuracy    <       0.00000424 Ry

     iteration #  5     ecut=    30.00 Ry     beta= 0.70
     Davidson diagonalization with overlap
     ethr =  9.63E-09,  avg # of iterations =  4.3

     total cpu time spent up to now is       33.5 secs

     total energy              =    -333.18246857 Ry
     estimated scf accuracy    <       0.00000111 Ry

     iteration #  6     ecut=    30.00 Ry     beta= 0.70
     Davidson diagonalization with overlap
     ethr =  2.52E-09,  avg # of iterations =  4.3

     total cpu time spent up to now is       33.8 secs

     total energy              =    -333.18246887 Ry
     estimated scf accuracy    <       0.00000011 Ry

     iteration #  7     ecut=    30.00 Ry     beta= 0.70
     Davidson diagonalization with overlap
     ethr =  2.39E-10,  avg # of iterations =  3.7

     total cpu time spent up to now is       34.1 secs

     total energy              =    -333.18246887 Ry
     estimated scf accuracy    <       0.00000002 Ry

     iteration #  8     ecut=    30.00 Ry     beta= 0.70
     Davidson diagonalization with overlap
     ethr =  5.29E-11,  avg # of iterations =  4.7

     total cpu time spent up to now is       34.4 secs

     total energy              =    -333.18246888 Ry
     estimated scf accuracy    <          9.3E-09 Ry

     iteration #  9     ecut=    30.00 Ry     beta= 0.70
     Davidson diagonalization with overlap
     ethr =  2.10E-11,  avg # of iterations =  2.3

     total cpu time spent up to now is       34.7 secs

     total energy              =    -333.18246888 Ry
     estimated scf accuracy    <          3.2E-09 Ry

     iteration # 10     ecut=    30.00 Ry     beta= 0.70
     Davidson diagonalization with overlap
     ethr =  7.18E-12,  avg # of iterations =  4.8

     total cpu time spent up to now is       35.0 secs

     End of self-consistent calculation

          k = 0.1250 0.1250 0.1250 (  1096 PWs)   bands (ev):

   -44.7284 -21.3403 -21.3340 -21.3332  -6.3805  -5.3121  -5.3092  -4.0250
    -4.0225  -4.0095  -3.8432  -3.8346   4.5987   7.2555   7.2615   8.0332
     9.0620   9.0882   9.8357   9.8611   9.9282  10.0683

          k = 0.1250 0.1250 0.3750 (  1095 PWs)   bands (ev):

   -44.7271 -21.3968 -21.3318 -21.3308  -5.9731  -5.1943  -5.1406  -4.0822
    -4.0193  -4.0055  -3.9317  -3.8125   3.8758   6.7904   7.2823   7.7877
     8.3951   8.6813   9.3385   9.8889  10.0647  10.8205

          k = 0.1250 0.3750 0.3750 (  1093 PWs)   bands (ev):

   -44.7259 -21.3936 -21.3869 -21.3294  -5.7595  -5.0667  -4.9971  -4.0576
    -4.0146  -3.9600  -3.8701  -3.7147   3.5090   6.7321   6.8199   7.1382
     7.4485   8.6255   9.3766   9.4456  10.0008  10.6666

          k = 0.3750 0.3750 0.3750 (  1082 PWs)   bands (ev):

   -44.7246 -21.3909 -21.3843 -21.3841  -5.3620  -5.1915  -5.1892  -3.9709
    -3.9680  -3.6817  -3.6172  -3.6082   4.1073   5.9052   5.9089   6.6582
     7.0014   7.0029   7.9624  10.6213  10.6283  10.7018

          k = 0.3750-0.1250 0.1250 (  1095 PWs)   bands (ev):

   -44.7271 -21.3902 -21.3379 -21.3313  -5.9744  -5.1968  -5.1423  -4.0839
    -4.0177  -4.0061  -3.9312  -3.8081   3.8691   6.7934   7.3044   7.8001
     8.3968   8.7066   9.3172   9.8853  10.0454  10.8053

          k = 0.3750-0.3750 0.1250 (  1093 PWs)   bands (ev):

   -44.7259 -21.3874 -21.3865 -21.3359  -5.7600  -5.0689  -5.0015  -4.0558
    -4.0106  -3.9512  -3.8648  -3.7281   3.4968   6.7607   6.8043   7.1408
     7.4417   8.6282   9.4149   9.4454   9.9899  10.6737

     highest occupied level (ev):    10.8205

!    total energy              =    -333.18246888 Ry
     estimated scf accuracy    <          1.2E-09 Ry

     The total energy is the sum of the following terms:
     one-electron contribution =     -77.24140223 Ry
     hartree contribution      =      66.49740945 Ry
     xc contribution           =     -49.63702120 Ry
     ewald contribution        =    -272.80145490 Ry

     convergence has been achieved in  10 iterations

     Forces acting on atoms (cartesian axes, Ry/au):

     atom    1 type  2   force =     0.00000000    0.00000000    0.01198570
     atom    2 type  3   force =     0.00000000    0.00000000   -0.01724167
     atom    3 type  1   force =     0.00000000    0.00000000    0.00650717
     atom    4 type  1   force =     0.00000000    0.00000000    0.00650717
     atom    5 type  1   force =     0.00000000    0.00000000   -0.00775837
     The non-local contrib.  to forces
     atom    1 type  2   force =     0.00000000    0.00000000   -0.06134499
     atom    2 type  3   force =     0.00000000    0.00000000    0.01176117
     atom    3 type  1   force =     0.00000000    0.00000000    0.10028988
[...]
     Davidson diagonalization with overlap
     ethr =  1.61E-07,  avg # of iterations =  3.0

     total cpu time spent up to now is       97.2 secs

     total energy              =    -333.18595002 Ry
     estimated scf accuracy    <       0.00000526 Ry

     iteration #  5     ecut=    30.00 Ry     beta= 0.70
     Davidson diagonalization with overlap
     ethr =  1.20E-08,  avg # of iterations =  5.5

     total cpu time spent up to now is       97.6 secs

     total energy              =    -333.18595395 Ry
     estimated scf accuracy    <       0.00000450 Ry

     iteration #  6     ecut=    30.00 Ry     beta= 0.70
     Davidson diagonalization with overlap
     ethr =  1.02E-08,  avg # of iterations =  2.0

     total cpu time spent up to now is       97.9 secs

     total energy              =    -333.18595343 Ry
     estimated scf accuracy    <       0.00000234 Ry

     iteration #  7     ecut=    30.00 Ry     beta= 0.70
     Davidson diagonalization with overlap
     ethr =  5.31E-09,  avg # of iterations =  4.2

     total cpu time spent up to now is       98.2 secs

     total energy              =    -333.18595394 Ry
     estimated scf accuracy    <       0.00000008 Ry

     iteration #  8     ecut=    30.00 Ry     beta= 0.70
     Davidson diagonalization with overlap
     ethr =  1.81E-10,  avg # of iterations =  5.8

     total cpu time spent up to now is       98.8 secs

     total energy              =    -333.18595398 Ry
     estimated scf accuracy    <       0.00000003 Ry

     iteration #  9     ecut=    30.00 Ry     beta= 0.70
     Davidson diagonalization with overlap
     ethr =  7.65E-11,  avg # of iterations =  2.7

     total cpu time spent up to now is       99.1 secs

     total energy              =    -333.18595398 Ry
     estimated scf accuracy    <       0.00000001 Ry

     iteration # 10     ecut=    30.00 Ry     beta= 0.70
     Davidson diagonalization with overlap
     ethr =  2.32E-11,  avg # of iterations =  5.0

     total cpu time spent up to now is       99.4 secs

     End of self-consistent calculation

          k = 0.1250 0.1250 0.1250 (  1096 PWs)   bands (ev):

   -44.7173 -21.3661 -21.3249 -21.3242  -6.5045  -5.4789  -5.3069  -3.9314
    -3.9289  -3.9003  -3.7674  -3.6449   4.6288   7.1172   7.2373   8.0181
     8.9569   8.9847   9.5430   9.6801   9.8488  10.1872

          k = 0.1250 0.1250 0.3750 (  1095 PWs)   bands (ev):

   -44.7160 -21.4228 -21.3226 -21.3217  -6.1462  -5.3887  -5.1014  -3.9698
    -3.9132  -3.8989  -3.7333  -3.7307   3.9212   6.7885   7.0442   7.6244
     8.4789   8.5748   9.2497   9.7540   9.9140  10.8907

          k = 0.1250 0.3750 0.3750 (  1093 PWs)   bands (ev):

   -44.7148 -21.4194 -21.3773 -21.3203  -5.9109  -5.2624  -5.0138  -3.9534
    -3.9077  -3.8524  -3.7387  -3.5467   3.5761   6.4972   6.8667   7.0689
     7.3619   8.5488   9.2689   9.3534  10.1118  10.5831

          k = 0.3750 0.3750 0.3750 (  1082 PWs)   bands (ev):

   -44.7135 -21.4167 -21.3747 -21.3746  -5.5068  -5.3685  -5.1826  -3.8656
    -3.8609  -3.6148  -3.4964  -3.4612   3.9711   5.8280   5.9074   6.5406
     7.0593   7.0603   8.2427  10.4624  10.5248  10.6137

          k = 0.3750-0.1250 0.1250 (  1095 PWs)   bands (ev):

   -44.7160 -21.3809 -21.3634 -21.3222  -6.0854  -5.3517  -5.2565  -3.9820
    -3.9191  -3.8957  -3.7542  -3.6520   3.8808   6.7253   7.2295   7.7472
     8.2763   8.7153   9.2150   9.7545   9.8616  10.8674

          k = 0.3750-0.3750 0.1250 (  1093 PWs)   bands (ev):

   -44.7148 -21.3782 -21.3771 -21.3612  -5.7758  -5.2672  -5.2468  -3.9511
    -3.8850  -3.7705  -3.6595  -3.6305   3.3807   6.6631   6.7647   7.1323
     7.5034   8.6603   9.3907   9.4075  10.0861  10.5000

     highest occupied level (ev):    10.8907

!    total energy              =    -333.18595398 Ry
     estimated scf accuracy    <          1.5E-09 Ry

     The total energy is the sum of the following terms:
     one-electron contribution =     -79.14359309 Ry
     hartree contribution      =      67.45604763 Ry
     xc contribution           =     -49.68079899 Ry
     ewald contribution        =    -271.81760953 Ry

     convergence has been achieved in  10 iterations

     Forces acting on atoms (cartesian axes, Ry/au):

     atom    1 type  2   force =     0.00000000    0.00000000    0.00534566
     atom    2 type  3   force =     0.00000000    0.00000000   -0.00473400
     atom    3 type  1   force =     0.00000000    0.00000000    0.00029687
     atom    4 type  1   force =     0.00000000    0.00000000    0.00029687
     atom    5 type  1   force =     0.00000000    0.00000000   -0.00120540
     The non-local contrib.  to forces
     atom    1 type  2   force =     0.00000000    0.00000000   -0.23444525
     atom    2 type  3   force =     0.00000000    0.00000000   -0.00696686
     atom    3 type  1   force =     0.00000000    0.00000000    0.08515467
     atom    4 type  1   force =     0.00000000    0.00000000    0.08515467
     atom    5 type  1   force =     0.00000000    0.00000000    0.21629371
     The ionic contribution  to forces
     atom    1 type  2   force =     0.00000000    0.00000000    4.28771149
     atom    2 type  3   force =    -0.00000000   -0.00000000   -0.47628271
     atom    3 type  1   force =     0.00000000   -0.00000000   -0.97026769
     atom    4 type  1   force =    -0.00000000    0.00000000   -0.97026769
     atom    5 type  1   force =    -0.00000000   -0.00000000   -1.87089341
     The local contribution  to forces
     atom    1 type  2   force =    -0.00000000   -0.00000000   -4.04791652
     atom    2 type  3   force =    -0.00000000   -0.00000000    0.47849038
     atom    3 type  1   force =     0.00000000   -0.00000000    0.88540677
     atom    4 type  1   force =    -0.00000000   -0.00000000    0.88540677
     atom    5 type  1   force =    -0.00000000   -0.00000000    1.65337277
     The core correction contribution to forces
     atom    1 type  2   force =     0.00000000    0.00000000    0.00000000
     atom    2 type  3   force =     0.00000000    0.00000000    0.00000000
     atom    3 type  1   force =     0.00000000    0.00000000    0.00000000
     atom    4 type  1   force =     0.00000000    0.00000000    0.00000000
     atom    5 type  1   force =     0.00000000    0.00000000    0.00000000
     The Hubbard contrib.    to forces
     atom    1 type  2   force =     0.00000000    0.00000000    0.00000000
     atom    2 type  3   force =     0.00000000    0.00000000    0.00000000
     atom    3 type  1   force =     0.00000000    0.00000000    0.00000000
     atom    4 type  1   force =     0.00000000    0.00000000    0.00000000
     atom    5 type  1   force =     0.00000000    0.00000000    0.00000000
     The SCF correction term to forces
     atom    1 type  2   force =     0.00000000   -0.00000000   -0.00000000
     atom    2 type  3   force =     0.00000000    0.00000000    0.00000000
     atom    3 type  1   force =     0.00000000    0.00000000   -0.00000564
     atom    4 type  1   force =     0.00000000   -0.00000000   -0.00000564
     atom    5 type  1   force =     0.00000000    0.00000000    0.00001279

     Total force =     0.001276     Total SCF correction =     0.000015


     Computing stress (Cartesian axis) and pressure

          total   stress  (Ry/bohr**3)                   (kbar)     P=        2.05
  -0.00005521   0.00000000   0.00000000           -8.12        0.00        0.00
   0.00000000  -0.00005521   0.00000000            0.00       -8.12        0.00
   0.00000000   0.00000000   0.00015229            0.00        0.00       22.40

     Energy error            =      9.6E-05 Ry
     Gradient error          =      1.2E-03 Ry/Bohr

     number of scf cycles    =  24
     number of bfgs steps    =  23

     energy             old  =    -333.1858580370 Ry
     energy             new  =    -333.1859539798 Ry

     CASE: energy            _new < energy            _old

     new trust radius        =       0.0046764565 bohr
     new conv_thr            =       0.0000000010 Ry


ATOMIC_POSITIONS (angstrom)
Pb            0.0000000000        0.0000000000        0.0000000000    0   0   0
Ti            1.9400000000        1.9400000000        2.0829500000    0   0   0
O             0.0000000000        1.9400000000        2.2607565949
O             1.9400000000        0.0000000000        2.2607565949
O             1.9400000000        1.9400000000        0.2706861219



     Writing config-only to output data dir /home/gridsan/epan1/labutil/lab3_samples/problem2/Lab3/PbTiO3_a_3.88_ecut_30_nk_4_displ_0.0368421052631579/pwscf.save/
     NEW-OLD atomic charge density approx. for the potential

     total cpu time spent up to now is      100.6 secs

     Self-consistent Calculation

     iteration #  1     ecut=    30.00 Ry     beta= 0.70
     Davidson diagonalization with overlap
     ethr =  1.00E-06,  avg # of iterations =  2.7

     Threshold (ethr) on eigenvalues was too large:
     Diagonalizing with lowered threshold

     Davidson diagonalization with overlap
     ethr =  5.67E-09,  avg # of iterations =  6.3

     total cpu time spent up to now is      101.2 secs

     total energy              =    -333.18595340 Ry
     estimated scf accuracy    <       0.00000457 Ry

     iteration #  2     ecut=    30.00 Ry     beta= 0.70
     Davidson diagonalization with overlap
     ethr =  1.04E-08,  avg # of iterations =  4.8

     total cpu time spent up to now is      101.5 secs

     total energy              =    -333.18595328 Ry
     estimated scf accuracy    <       0.00000521 Ry

     iteration #  3     ecut=    30.00 Ry     beta= 0.70
     Davidson diagonalization with overlap
     ethr =  1.04E-08,  avg # of iterations =  4.7

     total cpu time spent up to now is      101.9 secs

     total energy              =    -333.18595453 Ry
     estimated scf accuracy    <       0.00000087 Ry

     iteration #  4     ecut=    30.00 Ry     beta= 0.70
     Davidson diagonalization with overlap
     ethr =  1.97E-09,  avg # of iterations =  3.0

     total cpu time spent up to now is      102.2 secs

     total energy              =    -333.18595461 Ry
     estimated scf accuracy    <       0.00000009 Ry

     iteration #  5     ecut=    30.00 Ry     beta= 0.70
     Davidson diagonalization with overlap
     ethr =  2.00E-10,  avg # of iterations =  5.0

     total cpu time spent up to now is      102.8 secs

     total energy              =    -333.18595467 Ry
     estimated scf accuracy    <       0.00000005 Ry

     iteration #  6     ecut=    30.00 Ry     beta= 0.70
     Davidson diagonalization with overlap
     ethr =  1.08E-10,  avg # of iterations =  1.8

     total cpu time spent up to now is      103.0 secs

     total energy              =    -333.18595466 Ry
     estimated scf accuracy    <       0.00000002 Ry

     iteration #  7     ecut=    30.00 Ry     beta= 0.70
     Davidson diagonalization with overlap
     ethr =  5.28E-11,  avg # of iterations =  4.0

     total cpu time spent up to now is      103.3 secs

     End of self-consistent calculation

          k = 0.1250 0.1250 0.1250 (  1096 PWs)   bands (ev):

   -44.7207 -21.3670 -21.3283 -21.3276  -6.5043  -5.4788  -5.3059  -3.9314
    -3.9290  -3.9003  -3.7671  -3.6456   4.6293   7.1174   7.2375   8.0167
     8.9609   8.9861   9.5490   9.6816   9.8488  10.1889

          k = 0.1250 0.1250 0.3750 (  1095 PWs)   bands (ev):

   -44.7194 -21.4237 -21.3261 -21.3252  -6.1463  -5.3885  -5.1002  -3.9699
    -3.9133  -3.8989  -3.7341  -3.7304   3.9226   6.7889   7.0462   7.6237
     8.4794   8.5780   9.2508   9.7555   9.9140  10.8900

          k = 0.1250 0.3750 0.3750 (  1093 PWs)   bands (ev):

   -44.7182 -21.4203 -21.3808 -21.3237  -5.9109  -5.2619  -5.0123  -3.9534
    -3.9077  -3.8523  -3.7390  -3.5475   3.5763   6.5001   6.8665   7.0679
     7.3625   8.5483   9.2693   9.3566  10.1122  10.5848

          k = 0.3750 0.3750 0.3750 (  1082 PWs)   bands (ev):

   -44.7169 -21.4176 -21.3782 -21.3780  -5.5065  -5.3681  -5.1816  -3.8655
    -3.8611  -3.6141  -3.4966  -3.4619   3.9721   5.8287   5.9083   6.5410
     7.0582   7.0584   8.2416  10.4626  10.5278  10.6162

          k = 0.3750-0.1250 0.1250 (  1095 PWs)   bands (ev):

   -44.7195 -21.3843 -21.3644 -21.3257  -6.0850  -5.3512  -5.2553  -3.9822
    -3.9191  -3.8956  -3.7547  -3.6526   3.8809   6.7248   7.2303   7.7469
     8.2774   8.7152   9.2191   9.7561   9.8649  10.8679

          k = 0.3750-0.3750 0.1250 (  1093 PWs)   bands (ev):

   -44.7182 -21.3816 -21.3805 -21.3621  -5.7749  -5.2665  -5.2462  -3.9513
    -3.8850  -3.7709  -3.6603  -3.6301   3.3813   6.6630   6.7634   7.1335
     7.5042   8.6606   9.3923   9.4084  10.0863  10.5004

     highest occupied level (ev):    10.8900

!    total energy              =    -333.18595467 Ry
     estimated scf accuracy    <          3.0E-10 Ry

     The total energy is the sum of the following terms:
     one-electron contribution =     -79.12020367 Ry
     hartree contribution      =      67.44355160 Ry
     xc contribution           =     -49.67978241 Ry
     ewald contribution        =    -271.82952019 Ry

     convergence has been achieved in   7 iterations

     Forces acting on atoms (cartesian axes, Ry/au):

     atom    1 type  2   force =     0.00000000    0.00000000    0.00534085
     atom    2 type  3   force =     0.00000000    0.00000000   -0.00544158
     atom    3 type  1   force =     0.00000000    0.00000000    0.00002176
     atom    4 type  1   force =     0.00000000    0.00000000    0.00002176
     atom    5 type  1   force =     0.00000000    0.00000000    0.00005720
     The non-local contrib.  to forces
     atom    1 type  2   force =     0.00000000    0.00000000   -0.23378019
     atom    2 type  3   force =     0.00000000    0.00000000   -0.00655628
     atom    3 type  1   force =     0.00000000    0.00000000    0.08430784
     atom    4 type  1   force =     0.00000000    0.00000000    0.08430784
     atom    5 type  1   force =     0.00000000    0.00000000    0.21321240
     The ionic contribution  to forces
     atom    1 type  2   force =     0.00000000    0.00000000    4.28449583
     atom    2 type  3   force =    -0.00000000   -0.00000000   -0.52358575
     atom    3 type  1   force =     0.00000000   -0.00000000   -0.97563679
     atom    4 type  1   force =     0.00000000    0.00000000   -0.97563679
     atom    5 type  1   force =    -0.00000000   -0.00000000   -1.80963650
     The local contribution  to forces
     atom    1 type  2   force =     0.00000000    0.00000000   -4.04537068
     atom    2 type  3   force =    -0.00000000   -0.00000000    0.52467160
     atom    3 type  1   force =     0.00000000   -0.00000000    0.89133841
     atom    4 type  1   force =    -0.00000000    0.00000000    0.89133841
     atom    5 type  1   force =    -0.00000000   -0.00000000    1.59648085
     The core correction contribution to forces
     atom    1 type  2   force =     0.00000000    0.00000000    0.00000000
     atom    2 type  3   force =     0.00000000    0.00000000    0.00000000
     atom    3 type  1   force =     0.00000000    0.00000000    0.00000000
     atom    4 type  1   force =     0.00000000    0.00000000    0.00000000
     atom    5 type  1   force =     0.00000000    0.00000000    0.00000000
     The Hubbard contrib.    to forces
     atom    1 type  2   force =     0.00000000    0.00000000    0.00000000
     atom    2 type  3   force =     0.00000000    0.00000000    0.00000000
     atom    3 type  1   force =     0.00000000    0.00000000    0.00000000
     atom    4 type  1   force =     0.00000000    0.00000000    0.00000000
     atom    5 type  1   force =     0.00000000    0.00000000    0.00000000
     The SCF correction term to forces
     atom    1 type  2   force =    -0.00000000    0.00000000   -0.00000000
     atom    2 type  3   force =     0.00000000    0.00000000    0.00000000
     atom    3 type  1   force =    -0.00000000    0.00000000    0.00000502
     atom    4 type  1   force =     0.00000000   -0.00000000    0.00000502
     atom    5 type  1   force =    -0.00000000   -0.00000000   -0.00000683

     Total force =     0.000065     Total SCF correction =     0.000010
     SCF correction compared to forces is large: reduce conv_thr to get better values


     Computing stress (Cartesian axis) and pressure

          total   stress  (Ry/bohr**3)                   (kbar)     P=        1.47
  -0.00005652   0.00000000   0.00000000           -8.31        0.00        0.00
   0.00000000  -0.00005652   0.00000000            0.00       -8.31        0.00
   0.00000000   0.00000000   0.00014305            0.00        0.00       21.04

     Energy error            =      6.9E-07 Ry
     Gradient error          =      5.7E-05 Ry/Bohr

     bfgs converged in  25 scf cycles and  24 bfgs steps
     (criteria: energy <  1.0E-04 Ry, force <  1.0E-03 Ry/Bohr)

     End of BFGS Geometry Optimization

     Final energy             =    -333.1859546680 Ry

     File /home/gridsan/epan1/labutil/lab3_samples/problem2/Lab3/PbTiO3_a_3.88_ecut_30_nk_4_displ_0.0368421052631579/pwscf.bfgs deleted, as requested
Begin final coordinates

ATOMIC_POSITIONS (angstrom)
Pb            0.0000000000        0.0000000000        0.0000000000    0   0   0
Ti            1.9400000000        1.9400000000        2.0829500000    0   0   0
O             0.0000000000        1.9400000000        2.2607565949
O             1.9400000000        0.0000000000        2.2607565949
O             1.9400000000        1.9400000000        0.2706861219
End final coordinates



     init_run     :      0.72s CPU      0.70s WALL (       1 calls)
     electrons    :     88.19s CPU     73.32s WALL (      25 calls)
     update_pot   :      0.86s CPU      0.81s WALL (      24 calls)
     forces       :      3.60s CPU      2.82s WALL (      25 calls)
     stress       :     26.62s CPU     22.63s WALL (      25 calls)

     Called by init_run:
     wfcinit      :      0.10s CPU      0.08s WALL (       1 calls)
     potinit      :      0.04s CPU      0.05s WALL (       1 calls)
     hinit0       :      0.47s CPU      0.47s WALL (       1 calls)

     Called by electrons:
     c_bands      :     50.09s CPU     39.68s WALL (     218 calls)
     sum_band     :     23.27s CPU     20.44s WALL (     218 calls)
     v_of_rho     :      0.81s CPU      0.75s WALL (     237 calls)
     newd         :     14.45s CPU     12.47s WALL (     237 calls)
     mix_rho      :      0.48s CPU      0.43s WALL (     218 calls)

     Called by c_bands:
     init_us_2    :      1.50s CPU      1.22s WALL (    2922 calls)
     init_us_2:cp :      1.49s CPU      1.21s WALL (    2922 calls)
     cegterg      :     46.32s CPU     36.11s WALL (    1308 calls)

     Called by *egterg:
     cdiaghg      :      8.12s CPU      6.23s WALL (    6827 calls)
     h_psi        :     30.69s CPU     24.27s WALL (    7013 calls)
     s_psi        :      1.36s CPU      1.03s WALL (    7013 calls)
     g_psi        :      0.32s CPU      0.24s WALL (    5699 calls)

     Called by h_psi:
     h_psi:calbec :      1.89s CPU      1.49s WALL (    7013 calls)
     vloc_psi     :     27.22s CPU     21.56s WALL (    7013 calls)
     add_vuspsi   :      1.39s CPU      1.08s WALL (    7013 calls)

     General routines
     calbec       :      2.63s CPU      2.09s WALL (    9071 calls)
     fft          :      1.47s CPU      1.28s WALL (    1527 calls)
     ffts         :      0.13s CPU      0.11s WALL (     455 calls)
     fftw         :     25.98s CPU     20.70s WALL (  205846 calls)
     interpolate  :      0.29s CPU      0.25s WALL (     237 calls)

     Parallel routines

     PWSCF        :   2m 2.64s CPU   1m44.42s WALL


   This run was terminated on:  18: 9: 5   2Nov2023            

=------------------------------------------------------------------------------=
   JOB DONE.
=------------------------------------------------------------------------------=
