Header of the LAMMPS data file 

4 atoms 
1 atom types

0.0 3.9717171717171715  xlo xhi
0.0 3.9717171717171715  ylo yhi
0.0 3.9717171717171715  zlo zhi

Masses 

1  107.8682

Atoms # atomic 

1 1 0.00000 0.00000 0.00000 
2 1 0.00000 1.98586 1.98586 
3 1 1.98586 0.00000 1.98586 
4 1 1.98586 1.98586 0.00000 
