
     Program PWSCF v.7.2 starts on 16Oct2023 at 10:31:35 

     This program is part of the open-source Quantum ESPRESSO suite
     for quantum simulation of materials; please cite
         "P. Giannozzi et al., J. Phys.:Condens. Matter 21 395502 (2009);
         "P. Giannozzi et al., J. Phys.:Condens. Matter 29 465901 (2017);
         "P. Giannozzi et al., J. Chem. Phys. 152 154105 (2020);
          URL http://www.quantum-espresso.org", 
     in publications or presentations arising from this work. More details at
     http://www.quantum-espresso.org/quote

     Parallel version (MPI), running on     1 processors

     MPI processes distributed on     1 nodes
     33968 MiB available memory on the printing compute node when the environment starts

     Waiting for input...
     Reading input from standard input
Warning: card &CELL ignored
Warning: card / ignored

     Current dimensions of program PWSCF are:
     Max number of different atomic species (ntypx) = 10
     Max number of k-points (npk) =  40000
     Max angular momentum in pseudopotentials (lmaxx) =  4
     file Ge.pz-dn-rrkjus_psl.0.2.2.UPF: wavefunction(s)  3D renormalized
     Message from routine find_sym:
     Not a group! Trying with lower acceptance parameter...
     Message from routine find_sym:
     Still not a group! symmetry disabled

     Subspace diagonalization in iterative solution of the eigenvalue problem:
     a serial algorithm will be used


     G-vector sticks info
     --------------------
     sticks:   dense  smooth     PW     G-vecs:    dense   smooth      PW
     Sum         559     559    163                 8609     8609    1459

     Using Slab Decomposition



     bravais-lattice index     =            0
     lattice parameter (alat)  =       7.5660  a.u.
     unit-cell volume          =     306.2604 (a.u.)^3
     number of atoms/cell      =            2
     number of atomic types    =            1
     number of electrons       =        28.00
     number of Kohn-Sham states=           14
     kinetic-energy cutoff     =      35.0000  Ry
     charge density cutoff     =     140.0000  Ry
     scf convergence threshold =      1.0E-07
     mixing beta               =       0.5000
     number of iterations used =            8  plain     mixing
     Exchange-correlation= LDA
                           (   1   1   0   0   0   0   0)

     celldm(1)=   7.566040  celldm(2)=   0.000000  celldm(3)=   0.000000
     celldm(4)=   0.000000  celldm(5)=   0.000000  celldm(6)=   0.000000

     crystal axes: (cart. coord. in units of alat)
               a(1) = (   0.000000   0.707107   0.707107 )  
               a(2) = (   0.707107   0.000000   0.707107 )  
               a(3) = (   0.707107   0.707107   0.000000 )  

     reciprocal axes: (cart. coord. in units 2 pi/alat)
               b(1) = ( -0.707107  0.707107  0.707107 )  
               b(2) = (  0.707107 -0.707107  0.707107 )  
               b(3) = (  0.707107  0.707107 -0.707107 )  


     PseudoPot. # 1 for Ge read from file:
     ../Ge.pz-dn-rrkjus_psl.0.2.2.UPF
     MD5 check sum: 9948ad5293734715c8cf6021b6c26e6d
     Pseudo is Ultrasoft + core correction, Zval = 14.0
     Generated using "atomic" code by A. Dal Corso  v.5.0.2 svn rev. 9415
     Using radial grid of 1207 points,  6 beta functions with: 
                l(1) =   0
                l(2) =   0
                l(3) =   1
                l(4) =   1
                l(5) =   2
                l(6) =   2
     Q(r) pseudized with 0 coefficients 


     atomic species   valence    mass     pseudopotential
        Ge            14.00    72.63000     Ge( 1.00)

     No symmetry found



   Cartesian axes

     site n.     atom                  positions (alat units)
         1           Ge  tau(   1) = (   0.0000000   0.0000000   0.0000000  )
         2           Ge  tau(   2) = (   0.3535538   0.3535538   0.3535538  )

     number of k points=    63
                       cart. coord. in units 2pi/alat
        k(    1) = (   0.0000000   0.0000000   0.0000000), wk =   0.0160000
        k(    2) = (   0.1414214   0.1414214  -0.1414214), wk =   0.0320000
        k(    3) = (   0.2828427   0.2828427  -0.2828427), wk =   0.0320000
        k(    4) = (   0.2828427   0.0000000   0.0000000), wk =   0.0320000
        k(    5) = (   0.4242641   0.1414214  -0.1414214), wk =   0.0320000
        k(    6) = (  -0.1414214  -0.4242641   0.4242641), wk =   0.0320000
        k(    7) = (   0.0000000  -0.2828427   0.2828427), wk =   0.0320000
        k(    8) = (   0.5656854   0.0000000   0.0000000), wk =   0.0320000
        k(    9) = (   0.0000000  -0.5656854   0.5656854), wk =   0.0320000
        k(   10) = (  -0.1414214  -0.4242641   0.7071068), wk =   0.0320000
        k(   11) = (  -0.1414214  -0.1414214  -0.1414214), wk =   0.0320000
        k(   12) = (  -0.1414214   0.1414214   0.1414214), wk =   0.0320000
        k(   13) = (   0.1414214  -0.1414214   0.1414214), wk =   0.0320000
        k(   14) = (  -0.2828427  -0.2828427  -0.2828427), wk =   0.0320000
        k(   15) = (  -0.2828427   0.2828427   0.2828427), wk =   0.0320000
        k(   16) = (   0.2828427  -0.2828427   0.2828427), wk =   0.0320000
        k(   17) = (   0.0000000  -0.2828427   0.0000000), wk =   0.0320000
        k(   18) = (   0.0000000   0.0000000  -0.2828427), wk =   0.0320000
        k(   19) = (  -0.4242641  -0.1414214  -0.1414214), wk =   0.0320000
        k(   20) = (  -0.4242641   0.1414214   0.1414214), wk =   0.0320000
        k(   21) = (   0.4242641  -0.1414214   0.1414214), wk =   0.0320000
        k(   22) = (  -0.1414214  -0.4242641   0.1414214), wk =   0.0320000
        k(   23) = (   0.1414214  -0.1414214  -0.4242641), wk =   0.0320000
        k(   24) = (   0.1414214  -0.1414214   0.4242641), wk =   0.0320000
        k(   25) = (  -0.1414214  -0.1414214  -0.4242641), wk =   0.0320000
        k(   26) = (   0.1414214   0.1414214  -0.4242641), wk =   0.0320000
        k(   27) = (  -0.1414214   0.4242641   0.1414214), wk =   0.0320000
        k(   28) = (  -0.1414214  -0.4242641  -0.1414214), wk =   0.0320000
        k(   29) = (   0.1414214  -0.4242641   0.1414214), wk =   0.0320000
        k(   30) = (   0.1414214   0.4242641   0.4242641), wk =   0.0320000
        k(   31) = (   0.1414214  -0.4242641  -0.4242641), wk =   0.0320000
        k(   32) = (  -0.1414214   0.4242641  -0.4242641), wk =   0.0320000
        k(   33) = (   0.4242641   0.1414214  -0.4242641), wk =   0.0320000
        k(   34) = (  -0.4242641   0.4242641   0.1414214), wk =   0.0320000
        k(   35) = (  -0.4242641   0.4242641  -0.1414214), wk =   0.0320000
        k(   36) = (   0.4242641   0.4242641   0.1414214), wk =   0.0320000
        k(   37) = (  -0.4242641  -0.4242641   0.1414214), wk =   0.0320000
        k(   38) = (   0.4242641  -0.1414214  -0.4242641), wk =   0.0320000
        k(   39) = (   0.4242641   0.1414214   0.4242641), wk =   0.0320000
        k(   40) = (  -0.4242641   0.1414214  -0.4242641), wk =   0.0320000
        k(   41) = (  -0.0000000   0.2828427   0.2828427), wk =   0.0320000
        k(   42) = (   0.2828427  -0.0000000  -0.2828427), wk =   0.0320000
        k(   43) = (  -0.2828427   0.2828427  -0.0000000), wk =   0.0320000
        k(   44) = (   0.2828427   0.2828427  -0.0000000), wk =   0.0320000
        k(   45) = (   0.2828427  -0.0000000   0.2828427), wk =   0.0320000
        k(   46) = (   0.0000000  -0.5656854   0.0000000), wk =   0.0320000
        k(   47) = (   0.0000000   0.0000000  -0.5656854), wk =   0.0320000
        k(   48) = (   0.0000000   0.5656854   0.5656854), wk =   0.0320000
        k(   49) = (   0.5656854   0.0000000  -0.5656854), wk =   0.0320000
        k(   50) = (  -0.5656854   0.5656854   0.0000000), wk =   0.0320000
        k(   51) = (   0.5656854   0.5656854   0.0000000), wk =   0.0320000
        k(   52) = (   0.5656854   0.0000000   0.5656854), wk =   0.0320000
        k(   53) = (   0.1414214  -0.4242641  -0.7071068), wk =   0.0320000
        k(   54) = (   0.4242641   0.1414214  -0.7071068), wk =   0.0320000
        k(   55) = (  -0.7071068   0.4242641   0.1414214), wk =   0.0320000
        k(   56) = (   0.1414214  -0.7071068   0.4242641), wk =   0.0320000
        k(   57) = (  -0.4242641   0.7071068  -0.1414214), wk =   0.0320000
        k(   58) = (  -0.4242641  -0.7071068   0.1414214), wk =   0.0320000
        k(   59) = (   0.7071068  -0.1414214  -0.4242641), wk =   0.0320000
        k(   60) = (  -0.7071068   0.1414214  -0.4242641), wk =   0.0320000
        k(   61) = (   0.4242641  -0.1414214  -0.7071068), wk =   0.0320000
        k(   62) = (  -0.7071068  -0.4242641   0.1414214), wk =   0.0320000
        k(   63) = (  -0.1414214  -0.7071068   0.4242641), wk =   0.0320000

     Dense  grid:     8609 G-vectors     FFT dimensions: (  32,  32,  32)

     Estimated max dynamical RAM per process >      48.42 MB

     Check: negative core charge=   -0.000153

     Initial potential from superposition of free atoms

     starting charge      27.9988, renormalised to      28.0000
     Starting wfcs are   18 randomized atomic wfcs

     total cpu time spent up to now is        2.1 secs

     Self-consistent Calculation

     iteration #  1     ecut=    35.00 Ry     beta= 0.50
     Davidson diagonalization with overlap
     ethr =  1.00E-02,  avg # of iterations =  1.9

     Threshold (ethr) on eigenvalues was too large:
     Diagonalizing with lowered threshold

     Davidson diagonalization with overlap
     ethr =  1.18E-04,  avg # of iterations =  2.1

     total cpu time spent up to now is        7.8 secs

     total energy              =    -421.78501621 Ry
     estimated scf accuracy    <       0.03612703 Ry

     iteration #  2     ecut=    35.00 Ry     beta= 0.50
     Davidson diagonalization with overlap
     ethr =  1.29E-04,  avg # of iterations =  1.0

     total cpu time spent up to now is       10.4 secs

     total energy              =    -421.78358905 Ry
     estimated scf accuracy    <       0.00660691 Ry

     iteration #  3     ecut=    35.00 Ry     beta= 0.50
     Davidson diagonalization with overlap
     ethr =  2.36E-05,  avg # of iterations =  2.0

     total cpu time spent up to now is       13.3 secs

     total energy              =    -421.78410880 Ry
     estimated scf accuracy    <       0.00007788 Ry

     iteration #  4     ecut=    35.00 Ry     beta= 0.50
     Davidson diagonalization with overlap
     ethr =  2.78E-07,  avg # of iterations =  3.9

     total cpu time spent up to now is       17.2 secs

     total energy              =    -421.78413015 Ry
     estimated scf accuracy    <       0.00002935 Ry

     iteration #  5     ecut=    35.00 Ry     beta= 0.50
     Davidson diagonalization with overlap
     ethr =  1.05E-07,  avg # of iterations =  2.0

     total cpu time spent up to now is       20.2 secs

     total energy              =    -421.78413001 Ry
     estimated scf accuracy    <       0.00000518 Ry

     iteration #  6     ecut=    35.00 Ry     beta= 0.50
     Davidson diagonalization with overlap
     ethr =  1.85E-08,  avg # of iterations =  3.4

     total cpu time spent up to now is       23.5 secs

     total energy              =    -421.78414941 Ry
     estimated scf accuracy    <       0.00003728 Ry

     iteration #  7     ecut=    35.00 Ry     beta= 0.50
     Davidson diagonalization with overlap
     ethr =  1.85E-08,  avg # of iterations =  1.0

     total cpu time spent up to now is       26.0 secs

     total energy              =    -421.78414941 Ry
     estimated scf accuracy    <       0.00003803 Ry

     iteration #  8     ecut=    35.00 Ry     beta= 0.50
     Davidson diagonalization with overlap
     ethr =  1.85E-08,  avg # of iterations =  1.0

     total cpu time spent up to now is       28.7 secs

     total energy              =    -421.78414354 Ry
     estimated scf accuracy    <       0.00003776 Ry

     iteration #  9     ecut=    35.00 Ry     beta= 0.50
     Davidson diagonalization with overlap
     ethr =  1.85E-08,  avg # of iterations =  2.0

     total cpu time spent up to now is       31.7 secs

     total energy              =    -421.78413562 Ry
     estimated scf accuracy    <       0.00002555 Ry

     iteration # 10     ecut=    35.00 Ry     beta= 0.50
     Davidson diagonalization with overlap
     ethr =  1.85E-08,  avg # of iterations =  2.3

     total cpu time spent up to now is       34.7 secs

     total energy              =    -421.78413267 Ry
     estimated scf accuracy    <       0.00000977 Ry

     iteration # 11     ecut=    35.00 Ry     beta= 0.50
     Davidson diagonalization with overlap
     ethr =  1.85E-08,  avg # of iterations =  2.1

     total cpu time spent up to now is       37.7 secs

     total energy              =    -421.78413265 Ry
     estimated scf accuracy    <       0.00000277 Ry

     iteration # 12     ecut=    35.00 Ry     beta= 0.50
     Davidson diagonalization with overlap
     ethr =  9.90E-09,  avg # of iterations =  1.8

     total cpu time spent up to now is       40.4 secs

     total energy              =    -421.78414515 Ry
     estimated scf accuracy    <       0.00002579 Ry

     iteration # 13     ecut=    35.00 Ry     beta= 0.50
     Davidson diagonalization with overlap
     ethr =  9.90E-09,  avg # of iterations =  1.0

     total cpu time spent up to now is       43.0 secs

     total energy              =    -421.78414839 Ry
     estimated scf accuracy    <       0.00003022 Ry

     iteration # 14     ecut=    35.00 Ry     beta= 0.50
     Davidson diagonalization with overlap
     c_bands:  1 eigenvalues not converged
     ethr =  9.90E-09,  avg # of iterations =  2.6

     total cpu time spent up to now is       46.1 secs

     total energy              =    -421.78415092 Ry
     estimated scf accuracy    <       0.00004006 Ry

     iteration # 15     ecut=    35.00 Ry     beta= 0.50
     Davidson diagonalization with overlap
     ethr =  9.90E-09,  avg # of iterations =  1.2

     total cpu time spent up to now is       48.7 secs

     total energy              =    -421.78415131 Ry
     estimated scf accuracy    <       0.00004353 Ry

     iteration # 16     ecut=    35.00 Ry     beta= 0.50
     Davidson diagonalization with overlap
     ethr =  9.90E-09,  avg # of iterations =  1.0

     total cpu time spent up to now is       51.1 secs

     total energy              =    -421.78414879 Ry
     estimated scf accuracy    <       0.00004352 Ry

     iteration # 17     ecut=    35.00 Ry     beta= 0.50
     Davidson diagonalization with overlap
     ethr =  9.90E-09,  avg # of iterations =  1.0

     total cpu time spent up to now is       53.5 secs

     total energy              =    -421.78414092 Ry
     estimated scf accuracy    <       0.00003815 Ry

     iteration # 18     ecut=    35.00 Ry     beta= 0.50
     Davidson diagonalization with overlap
     c_bands:  1 eigenvalues not converged
     ethr =  9.90E-09,  avg # of iterations =  2.3

     total cpu time spent up to now is       56.4 secs

     total energy              =    -421.78414429 Ry
     estimated scf accuracy    <       0.00002259 Ry

     iteration # 19     ecut=    35.00 Ry     beta= 0.50
     Davidson diagonalization with overlap
     ethr =  9.90E-09,  avg # of iterations =  1.0

     total cpu time spent up to now is       58.8 secs

     total energy              =    -421.78414356 Ry
     estimated scf accuracy    <       0.00002719 Ry

     iteration # 20     ecut=    35.00 Ry     beta= 0.50
     Davidson diagonalization with overlap
     ethr =  9.90E-09,  avg # of iterations =  1.0

     total cpu time spent up to now is       61.3 secs

     total energy              =    -421.78413161 Ry
     estimated scf accuracy    <       0.00002570 Ry

     iteration # 21     ecut=    35.00 Ry     beta= 0.50
     Davidson diagonalization with overlap
     c_bands:  2 eigenvalues not converged
     ethr =  9.90E-09,  avg # of iterations =  4.7

     total cpu time spent up to now is       65.6 secs

     total energy              =    -421.78414351 Ry
     estimated scf accuracy    <       0.00003813 Ry

     iteration # 22     ecut=    35.00 Ry     beta= 0.50
     Davidson diagonalization with overlap
     c_bands:  1 eigenvalues not converged
     ethr =  9.90E-09,  avg # of iterations =  2.3

     total cpu time spent up to now is       68.6 secs

     total energy              =    -421.78415311 Ry
     estimated scf accuracy    <       0.00002739 Ry

     iteration # 23     ecut=    35.00 Ry     beta= 0.50
     Davidson diagonalization with overlap
     c_bands:  2 eigenvalues not converged
     ethr =  9.90E-09,  avg # of iterations =  2.5

     total cpu time spent up to now is       71.6 secs

     total energy              =    -421.78415994 Ry
     estimated scf accuracy    <       0.00004727 Ry

     iteration # 24     ecut=    35.00 Ry     beta= 0.50
     Davidson diagonalization with overlap
     c_bands:  1 eigenvalues not converged
     ethr =  9.90E-09,  avg # of iterations =  2.3

     total cpu time spent up to now is       74.7 secs

     total energy              =    -421.78415723 Ry
     estimated scf accuracy    <       0.00006105 Ry

     iteration # 25     ecut=    35.00 Ry     beta= 0.50
     Davidson diagonalization with overlap
     ethr =  9.90E-09,  avg # of iterations =  1.2

     total cpu time spent up to now is       77.4 secs

     total energy              =    -421.78414205 Ry
     estimated scf accuracy    <       0.00005808 Ry

     iteration # 26     ecut=    35.00 Ry     beta= 0.50
     Davidson diagonalization with overlap
     ethr =  9.90E-09,  avg # of iterations =  3.2

     total cpu time spent up to now is       80.8 secs

     total energy              =    -421.78413411 Ry
     estimated scf accuracy    <       0.00002514 Ry

     iteration # 27     ecut=    35.00 Ry     beta= 0.50
     Davidson diagonalization with overlap
     c_bands:  2 eigenvalues not converged
     ethr =  9.90E-09,  avg # of iterations =  3.7

     total cpu time spent up to now is       84.4 secs

     total energy              =    -421.78413418 Ry
     estimated scf accuracy    <       0.00001086 Ry

     iteration # 28     ecut=    35.00 Ry     beta= 0.50
     Davidson diagonalization with overlap
     c_bands:  2 eigenvalues not converged
     ethr =  9.90E-09,  avg # of iterations =  2.7

     total cpu time spent up to now is       87.4 secs

     total energy              =    -421.78414656 Ry
     estimated scf accuracy    <       0.00002882 Ry

     iteration # 29     ecut=    35.00 Ry     beta= 0.50
     Davidson diagonalization with overlap
     c_bands:  2 eigenvalues not converged
     ethr =  9.90E-09,  avg # of iterations =  2.4

     total cpu time spent up to now is       90.5 secs

     total energy              =    -421.78414603 Ry
     estimated scf accuracy    <       0.00004397 Ry

     iteration # 30     ecut=    35.00 Ry     beta= 0.50
     Davidson diagonalization with overlap
     c_bands:  1 eigenvalues not converged
     ethr =  9.90E-09,  avg # of iterations =  2.3

     total cpu time spent up to now is       93.5 secs

     total energy              =    -421.78414791 Ry
     estimated scf accuracy    <       0.00003497 Ry

     iteration # 31     ecut=    35.00 Ry     beta= 0.50
     Davidson diagonalization with overlap
     ethr =  9.90E-09,  avg # of iterations =  1.2

     total cpu time spent up to now is       96.1 secs

     total energy              =    -421.78414759 Ry
     estimated scf accuracy    <       0.00003791 Ry

     iteration # 32     ecut=    35.00 Ry     beta= 0.50
     Davidson diagonalization with overlap
     ethr =  9.90E-09,  avg # of iterations =  2.2

     total cpu time spent up to now is       99.1 secs

     total energy              =    -421.78414973 Ry
     estimated scf accuracy    <       0.00003994 Ry

     iteration # 33     ecut=    35.00 Ry     beta= 0.50
     Davidson diagonalization with overlap
     c_bands:  1 eigenvalues not converged
     ethr =  9.90E-09,  avg # of iterations =  3.2

     total cpu time spent up to now is      102.3 secs

     total energy              =    -421.78413837 Ry
     estimated scf accuracy    <       0.00004676 Ry

     iteration # 34     ecut=    35.00 Ry     beta= 0.50
     Davidson diagonalization with overlap
     c_bands:  2 eigenvalues not converged
     ethr =  9.90E-09,  avg # of iterations =  4.0

     total cpu time spent up to now is      106.4 secs

     total energy              =    -421.78415054 Ry
     estimated scf accuracy    <       0.00002976 Ry

     iteration # 35     ecut=    35.00 Ry     beta= 0.50
     Davidson diagonalization with overlap
     c_bands:  1 eigenvalues not converged
     ethr =  9.90E-09,  avg # of iterations =  3.7

     total cpu time spent up to now is      109.9 secs

     total energy              =    -421.78415690 Ry
     estimated scf accuracy    <       0.00004860 Ry

     iteration # 36     ecut=    35.00 Ry     beta= 0.50
     Davidson diagonalization with overlap
     ethr =  9.90E-09,  avg # of iterations =  1.4

     total cpu time spent up to now is      112.5 secs

     total energy              =    -421.78417391 Ry
     estimated scf accuracy    <       0.00005594 Ry

     iteration # 37     ecut=    35.00 Ry     beta= 0.50
     Davidson diagonalization with overlap
     c_bands:  1 eigenvalues not converged
     ethr =  9.90E-09,  avg # of iterations =  3.8

     total cpu time spent up to now is      116.3 secs

     total energy              =    -421.78413307 Ry
     estimated scf accuracy    <       0.00009722 Ry

     iteration # 38     ecut=    35.00 Ry     beta= 0.50
     Davidson diagonalization with overlap
     c_bands:  1 eigenvalues not converged
     ethr =  9.90E-09,  avg # of iterations =  4.8

     total cpu time spent up to now is      120.7 secs

     total energy              =    -421.78412980 Ry
     estimated scf accuracy    <       0.00002487 Ry

     iteration # 39     ecut=    35.00 Ry     beta= 0.50
     Davidson diagonalization with overlap
     c_bands:  2 eigenvalues not converged
     ethr =  9.90E-09,  avg # of iterations =  5.1

     total cpu time spent up to now is      125.1 secs

     total energy              =    -421.78414560 Ry
     estimated scf accuracy    <       0.00006726 Ry

     iteration # 40     ecut=    35.00 Ry     beta= 0.50
     Davidson diagonalization with overlap
     ethr =  9.90E-09,  avg # of iterations =  3.2

     total cpu time spent up to now is      128.3 secs

     total energy              =    -421.78412851 Ry
     estimated scf accuracy    <       0.00003509 Ry

     iteration # 41     ecut=    35.00 Ry     beta= 0.50
     Davidson diagonalization with overlap
     ethr =  9.90E-09,  avg # of iterations =  4.7

     total cpu time spent up to now is      132.5 secs

     total energy              =    -421.78412933 Ry
     estimated scf accuracy    <       0.00003769 Ry

     iteration # 42     ecut=    35.00 Ry     beta= 0.50
     Davidson diagonalization with overlap
     ethr =  9.90E-09,  avg # of iterations =  4.1

     total cpu time spent up to now is      136.6 secs

     total energy              =    -421.78413176 Ry
     estimated scf accuracy    <       0.00000209 Ry

     iteration # 43     ecut=    35.00 Ry     beta= 0.50
     Davidson diagonalization with overlap
     ethr =  7.45E-09,  avg # of iterations =  2.2

     total cpu time spent up to now is      139.6 secs

     total energy              =    -421.78414863 Ry
     estimated scf accuracy    <       0.00003673 Ry

     iteration # 44     ecut=    35.00 Ry     beta= 0.50
     Davidson diagonalization with overlap
     ethr =  7.45E-09,  avg # of iterations =  1.0

     total cpu time spent up to now is      142.2 secs

     total energy              =    -421.78414850 Ry
     estimated scf accuracy    <       0.00003683 Ry

     iteration # 45     ecut=    35.00 Ry     beta= 0.50
     Davidson diagonalization with overlap
     ethr =  7.45E-09,  avg # of iterations =  1.0

     total cpu time spent up to now is      144.7 secs

     total energy              =    -421.78415135 Ry
     estimated scf accuracy    <       0.00003667 Ry

     iteration # 46     ecut=    35.00 Ry     beta= 0.50
     Davidson diagonalization with overlap
     ethr =  7.45E-09,  avg # of iterations =  1.2

     total cpu time spent up to now is      147.3 secs

     total energy              =    -421.78415177 Ry
     estimated scf accuracy    <       0.00004284 Ry

     iteration # 47     ecut=    35.00 Ry     beta= 0.50
     Davidson diagonalization with overlap
     ethr =  7.45E-09,  avg # of iterations =  1.0

     total cpu time spent up to now is      149.9 secs

     total energy              =    -421.78417861 Ry
     estimated scf accuracy    <       0.00004368 Ry

     iteration # 48     ecut=    35.00 Ry     beta= 0.50
     Davidson diagonalization with overlap
     ethr =  7.45E-09,  avg # of iterations =  4.2

     total cpu time spent up to now is      154.1 secs

     total energy              =    -421.78417477 Ry
     estimated scf accuracy    <       0.00011084 Ry

     iteration # 49     ecut=    35.00 Ry     beta= 0.50
     Davidson diagonalization with overlap
     ethr =  7.45E-09,  avg # of iterations =  2.0

     total cpu time spent up to now is      156.9 secs

     total energy              =    -421.78414152 Ry
     estimated scf accuracy    <       0.00009706 Ry

     iteration # 50     ecut=    35.00 Ry     beta= 0.50
     Davidson diagonalization with overlap
     c_bands:  2 eigenvalues not converged
     ethr =  7.45E-09,  avg # of iterations =  4.7

     total cpu time spent up to now is      161.2 secs

     total energy              =    -421.78416497 Ry
     estimated scf accuracy    <       0.00003068 Ry

     iteration # 51     ecut=    35.00 Ry     beta= 0.50
     Davidson diagonalization with overlap
     ethr =  7.45E-09,  avg # of iterations =  3.7

     total cpu time spent up to now is      165.1 secs

     total energy              =    -421.78412108 Ry
     estimated scf accuracy    <       0.00007730 Ry

     iteration # 52     ecut=    35.00 Ry     beta= 0.50
     Davidson diagonalization with overlap
     c_bands:  2 eigenvalues not converged
     ethr =  7.45E-09,  avg # of iterations =  5.6

     total cpu time spent up to now is      169.7 secs

     total energy              =    -421.78413548 Ry
     estimated scf accuracy    <       0.00003440 Ry

     iteration # 53     ecut=    35.00 Ry     beta= 0.50
     Davidson diagonalization with overlap
     ethr =  7.45E-09,  avg # of iterations =  3.4

     total cpu time spent up to now is      173.2 secs

     total energy              =    -421.78413323 Ry
     estimated scf accuracy    <       0.00001024 Ry

     iteration # 54     ecut=    35.00 Ry     beta= 0.50
     Davidson diagonalization with overlap
     ethr =  7.45E-09,  avg # of iterations =  2.0

     total cpu time spent up to now is      176.1 secs

     total energy              =    -421.78413329 Ry
     estimated scf accuracy    <       0.00000352 Ry

     iteration # 55     ecut=    35.00 Ry     beta= 0.50
     Davidson diagonalization with overlap
     ethr =  7.45E-09,  avg # of iterations =  1.0

     total cpu time spent up to now is      178.6 secs

     total energy              =    -421.78413348 Ry
     estimated scf accuracy    <       0.00000292 Ry

     iteration # 56     ecut=    35.00 Ry     beta= 0.50
     Davidson diagonalization with overlap
     ethr =  7.45E-09,  avg # of iterations =  1.0

     total cpu time spent up to now is      181.2 secs

     total energy              =    -421.78413236 Ry
     estimated scf accuracy    <       0.00000324 Ry

     iteration # 57     ecut=    35.00 Ry     beta= 0.50
     Davidson diagonalization with overlap
     ethr =  7.45E-09,  avg # of iterations =  2.0

     total cpu time spent up to now is      184.2 secs

     total energy              =    -421.78413181 Ry
     estimated scf accuracy    <       0.00000100 Ry

     iteration # 58     ecut=    35.00 Ry     beta= 0.50
     Davidson diagonalization with overlap
     ethr =  3.57E-09,  avg # of iterations =  3.7

     total cpu time spent up to now is      187.4 secs

     total energy              =    -421.78414606 Ry
     estimated scf accuracy    <       0.00003973 Ry

     iteration # 59     ecut=    35.00 Ry     beta= 0.50
     Davidson diagonalization with overlap
     ethr =  3.57E-09,  avg # of iterations =  2.0

     total cpu time spent up to now is      190.4 secs

     total energy              =    -421.78414507 Ry
     estimated scf accuracy    <       0.00003167 Ry

     iteration # 60     ecut=    35.00 Ry     beta= 0.50
     Davidson diagonalization with overlap
     ethr =  3.57E-09,  avg # of iterations =  1.0

     total cpu time spent up to now is      192.9 secs

     total energy              =    -421.78414405 Ry
     estimated scf accuracy    <       0.00002924 Ry

     iteration # 61     ecut=    35.00 Ry     beta= 0.50
     Davidson diagonalization with overlap
     ethr =  3.57E-09,  avg # of iterations =  1.0

     total cpu time spent up to now is      195.4 secs

     total energy              =    -421.78414249 Ry
     estimated scf accuracy    <       0.00002692 Ry

     iteration # 62     ecut=    35.00 Ry     beta= 0.50
     Davidson diagonalization with overlap
     ethr =  3.57E-09,  avg # of iterations =  1.1

     total cpu time spent up to now is      198.0 secs

     total energy              =    -421.78414179 Ry
     estimated scf accuracy    <       0.00002362 Ry

     iteration # 63     ecut=    35.00 Ry     beta= 0.50
     Davidson diagonalization with overlap
     ethr =  3.57E-09,  avg # of iterations =  1.0

     total cpu time spent up to now is      200.6 secs

     total energy              =    -421.78414060 Ry
     estimated scf accuracy    <       0.00002195 Ry

     iteration # 64     ecut=    35.00 Ry     beta= 0.50
     Davidson diagonalization with overlap
     ethr =  3.57E-09,  avg # of iterations =  1.1

     total cpu time spent up to now is      203.1 secs

     total energy              =    -421.78413444 Ry
     estimated scf accuracy    <       0.00001937 Ry

     iteration # 65     ecut=    35.00 Ry     beta= 0.50
     Davidson diagonalization with overlap
     ethr =  3.57E-09,  avg # of iterations =  3.6

     total cpu time spent up to now is      206.5 secs

     total energy              =    -421.78413337 Ry
     estimated scf accuracy    <       0.00000661 Ry

     iteration # 66     ecut=    35.00 Ry     beta= 0.50
     Davidson diagonalization with overlap
     ethr =  3.57E-09,  avg # of iterations =  2.0

     total cpu time spent up to now is      209.5 secs

     total energy              =    -421.78413143 Ry
     estimated scf accuracy    <       0.00000333 Ry

     iteration # 67     ecut=    35.00 Ry     beta= 0.50
     Davidson diagonalization with overlap
     ethr =  3.57E-09,  avg # of iterations =  3.6

     total cpu time spent up to now is      213.2 secs

     End of self-consistent calculation

          k = 0.0000 0.0000 0.0000 (  1067 PWs)   bands (ev):

   -16.7279 -16.7269 -16.7243 -16.6909 -16.6896 -16.4825 -16.4818 -16.4795
   -16.4673 -16.4660  -4.6377   7.9611   8.1673   8.1736

          k = 0.1414 0.1414-0.1414 (  1065 PWs)   bands (ev):

   -16.7421 -16.7391 -16.7216 -16.6682 -16.6671 -16.5010 -16.5010 -16.4887
   -16.4512 -16.4497  -4.1583   4.2922   7.4930   7.5017

          k = 0.2828 0.2828-0.2828 (  1065 PWs)   bands (ev):

   -16.7516 -16.7482 -16.7112 -16.6504 -16.6486 -16.5143 -16.5130 -16.4999
   -16.4427 -16.4397  -2.9308   1.1413   6.8490   6.8576

          k = 0.2828 0.0000 0.0000 (  1054 PWs)   bands (ev):

   -16.7399 -16.7395 -16.7343 -16.6673 -16.6409 -16.5452 -16.4866 -16.4614
   -16.4608 -16.4511  -3.9913   4.2829   6.5620   6.5627

          k = 0.4243 0.1414-0.1414 (  1078 PWs)   bands (ev):

   -16.7625 -16.7516 -16.7074 -16.6413 -16.6139 -16.5708 -16.5144 -16.4889
   -16.4425 -16.4278  -2.9421   1.8009   5.2545   5.9959

          k =-0.1414-0.4243 0.4243 (  1073 PWs)   bands (ev):

   -16.7707 -16.7588 -16.6824 -16.6300 -16.6208 -16.5474 -16.5402 -16.5161
   -16.4312 -16.4193  -2.1799   0.5733   4.4493   6.2625

          k = 0.0000-0.2828 0.2828 (  1073 PWs)   bands (ev):

   -16.7572 -16.7544 -16.6995 -16.6579 -16.6344 -16.5346 -16.5163 -16.4957
   -16.4406 -16.4332  -3.3926   2.6044   5.0174   7.1698

          k = 0.5657 0.0000 0.0000 (  1082 PWs)   bands (ev):

   -16.7581 -16.7578 -16.7064 -16.6347 -16.6103 -16.5591 -16.5414 -16.4856
   -16.4320 -16.4317  -2.1116   0.7801   5.2670   5.2676

          k = 0.0000-0.5657 0.5657 (  1073 PWs)   bands (ev):

   -16.7746 -16.7613 -16.6730 -16.6316 -16.5832 -16.5711 -16.5581 -16.5195
   -16.4265 -16.4140  -1.0513  -0.3929   4.0362   5.3820

          k =-0.1414-0.4243 0.7071 (  1068 PWs)   bands (ev):

   -16.7743 -16.7660 -16.6668 -16.6128 -16.6027 -16.5802 -16.5490 -16.5248
   -16.4197 -16.4180  -1.7424   0.4076   4.0892   5.0690

          k =-0.1414-0.1414-0.1414 (  1065 PWs)   bands (ev):

   -16.7418 -16.7392 -16.7220 -16.6681 -16.6670 -16.5010 -16.5009 -16.4891
   -16.4511 -16.4498  -4.1582   4.2912   7.4942   7.5015

          k =-0.1414 0.1414 0.1414 (  1065 PWs)   bands (ev):

   -16.7423 -16.7404 -16.7194 -16.6686 -16.6676 -16.5021 -16.5010 -16.4870
   -16.4516 -16.4499  -4.1586   4.2982   7.4898   7.4990

          k = 0.1414-0.1414 0.1414 (  1065 PWs)   bands (ev):

   -16.7423 -16.7404 -16.7194 -16.6686 -16.6676 -16.5021 -16.5010 -16.4870
   -16.4516 -16.4499  -4.1586   4.2982   7.4898   7.4991

          k =-0.2828-0.2828-0.2828 (  1065 PWs)   bands (ev):

   -16.7513 -16.7483 -16.7116 -16.6502 -16.6486 -16.5142 -16.5129 -16.5003
   -16.4425 -16.4399  -2.9304   1.1399   6.8501   6.8573

          k =-0.2828 0.2828 0.2828 (  1065 PWs)   bands (ev):

   -16.7516 -16.7494 -16.7090 -16.6505 -16.6499 -16.5145 -16.5137 -16.4982
   -16.4425 -16.4404  -2.9332   1.1491   6.8466   6.8557

          k = 0.2828-0.2828 0.2828 (  1065 PWs)   bands (ev):

   -16.7516 -16.7494 -16.7090 -16.6505 -16.6499 -16.5145 -16.5137 -16.4982
   -16.4425 -16.4404  -2.9332   1.1491   6.8466   6.8557

          k = 0.0000-0.2828 0.0000 (  1054 PWs)   bands (ev):

   -16.7399 -16.7395 -16.7343 -16.6673 -16.6409 -16.5452 -16.4866 -16.4614
   -16.4608 -16.4511  -3.9913   4.2829   6.5620   6.5627

          k = 0.0000 0.0000-0.2828 (  1054 PWs)   bands (ev):

   -16.7407 -16.7373 -16.7350 -16.6682 -16.6405 -16.5453 -16.4876 -16.4621
   -16.4591 -16.4510  -3.9913   4.2832   6.5574   6.5664

          k =-0.4243-0.1414-0.1414 (  1078 PWs)   bands (ev):

   -16.7626 -16.7514 -16.7075 -16.6412 -16.6139 -16.5708 -16.5144 -16.4891
   -16.4423 -16.4279  -2.9419   1.8000   5.2545   5.9966

          k =-0.4243 0.1414 0.1414 (  1078 PWs)   bands (ev):

   -16.7640 -16.7510 -16.7053 -16.6419 -16.6148 -16.5716 -16.5149 -16.4870
   -16.4416 -16.4293  -2.9436   1.8080   5.2472   5.9973

          k = 0.4243-0.1414 0.1414 (  1078 PWs)   bands (ev):

   -16.7636 -16.7513 -16.7055 -16.6418 -16.6147 -16.5714 -16.5148 -16.4872
   -16.4419 -16.4289  -2.9436   1.8076   5.2483   5.9966

          k =-0.1414-0.4243 0.1414 (  1078 PWs)   bands (ev):

   -16.7625 -16.7516 -16.7074 -16.6413 -16.6139 -16.5708 -16.5144 -16.4889
   -16.4425 -16.4278  -2.9421   1.8009   5.2545   5.9959

          k = 0.1414-0.1414-0.4243 (  1078 PWs)   bands (ev):

   -16.7615 -16.7527 -16.7066 -16.6425 -16.6138 -16.5704 -16.5156 -16.4880
   -16.4431 -16.4270  -2.9433   1.8059   5.2542   5.9919

          k = 0.1414-0.1414 0.4243 (  1078 PWs)   bands (ev):

   -16.7615 -16.7527 -16.7066 -16.6425 -16.6138 -16.5704 -16.5156 -16.4880
   -16.4431 -16.4270  -2.9433   1.8059   5.2543   5.9919

          k =-0.1414-0.1414-0.4243 (  1078 PWs)   bands (ev):

   -16.7644 -16.7493 -16.7067 -16.6424 -16.6139 -16.5716 -16.5155 -16.4877
   -16.4402 -16.4296  -2.9422   1.8018   5.2485   6.0003

          k = 0.1414 0.1414-0.4243 (  1078 PWs)   bands (ev):

   -16.7646 -16.7492 -16.7063 -16.6425 -16.6140 -16.5717 -16.5156 -16.4874
   -16.4401 -16.4298  -2.9425   1.8030   5.2474   6.0005

          k =-0.1414 0.4243 0.1414 (  1078 PWs)   bands (ev):

   -16.7636 -16.7513 -16.7055 -16.6418 -16.6147 -16.5714 -16.5149 -16.4872
   -16.4419 -16.4289  -2.9436   1.8077   5.2483   5.9966

          k =-0.1414-0.4243-0.1414 (  1078 PWs)   bands (ev):

   -16.7626 -16.7514 -16.7075 -16.6412 -16.6139 -16.5708 -16.5144 -16.4891
   -16.4423 -16.4279  -2.9419   1.8000   5.2545   5.9966

          k = 0.1414-0.4243 0.1414 (  1078 PWs)   bands (ev):

   -16.7640 -16.7510 -16.7053 -16.6419 -16.6148 -16.5716 -16.5149 -16.4870
   -16.4416 -16.4293  -2.9436   1.8080   5.2472   5.9973

          k = 0.1414 0.4243 0.4243 (  1073 PWs)   bands (ev):

   -16.7709 -16.7586 -16.6825 -16.6300 -16.6207 -16.5476 -16.5402 -16.5159
   -16.4310 -16.4195  -2.1792   0.5718   4.4495   6.2632

          k = 0.1414-0.4243-0.4243 (  1073 PWs)   bands (ev):

   -16.7715 -16.7582 -16.6811 -16.6307 -16.6215 -16.5479 -16.5405 -16.5148
   -16.4305 -16.4202  -2.1827   0.5805   4.4440   6.2641

          k =-0.1414 0.4243-0.4243 (  1073 PWs)   bands (ev):

   -16.7712 -16.7585 -16.6812 -16.6306 -16.6214 -16.5476 -16.5405 -16.5151
   -16.4308 -16.4199  -2.1829   0.5807   4.4447   6.2633

          k = 0.4243 0.1414-0.4243 (  1073 PWs)   bands (ev):

   -16.7707 -16.7588 -16.6824 -16.6300 -16.6208 -16.5474 -16.5402 -16.5161
   -16.4312 -16.4193  -2.1799   0.5733   4.4493   6.2625

          k =-0.4243 0.4243 0.1414 (  1073 PWs)   bands (ev):

   -16.7697 -16.7599 -16.6822 -16.6291 -16.6221 -16.5457 -16.5414 -16.5164
   -16.4318 -16.4186  -2.1836   0.5820   4.4487   6.2582

          k =-0.4243 0.4243-0.1414 (  1073 PWs)   bands (ev):

   -16.7697 -16.7599 -16.6822 -16.6291 -16.6221 -16.5457 -16.5414 -16.5164
   -16.4318 -16.4186  -2.1836   0.5819   4.4487   6.2582

          k = 0.4243 0.4243 0.1414 (  1073 PWs)   bands (ev):

   -16.7724 -16.7567 -16.6820 -16.6298 -16.6218 -16.5487 -16.5411 -16.5140
   -16.4292 -16.4212  -2.1784   0.5706   4.4457   6.2675

          k =-0.4243-0.4243 0.1414 (  1073 PWs)   bands (ev):

   -16.7725 -16.7566 -16.6818 -16.6299 -16.6219 -16.5488 -16.5411 -16.5138
   -16.4291 -16.4213  -2.1790   0.5719   4.4449   6.2676

          k = 0.4243-0.1414-0.4243 (  1073 PWs)   bands (ev):

   -16.7712 -16.7585 -16.6812 -16.6306 -16.6214 -16.5476 -16.5405 -16.5151
   -16.4308 -16.4199  -2.1829   0.5807   4.4447   6.2633

          k = 0.4243 0.1414 0.4243 (  1073 PWs)   bands (ev):

   -16.7709 -16.7586 -16.6825 -16.6300 -16.6207 -16.5476 -16.5402 -16.5159
   -16.4310 -16.4195  -2.1792   0.5718   4.4494   6.2632

          k =-0.4243 0.1414-0.4243 (  1073 PWs)   bands (ev):

   -16.7715 -16.7582 -16.6811 -16.6307 -16.6215 -16.5479 -16.5405 -16.5148
   -16.4305 -16.4202  -2.1827   0.5805   4.4440   6.2641

          k =-0.0000 0.2828 0.2828 (  1073 PWs)   bands (ev):

   -16.7569 -16.7546 -16.6998 -16.6578 -16.6343 -16.5346 -16.5162 -16.4959
   -16.4407 -16.4331  -3.3925   2.6035   5.0174   7.1708

          k = 0.2828-0.0000-0.2828 (  1073 PWs)   bands (ev):

   -16.7572 -16.7544 -16.6995 -16.6579 -16.6344 -16.5346 -16.5163 -16.4957
   -16.4406 -16.4332  -3.3926   2.6044   5.0174   7.1698

          k =-0.2828 0.2828-0.0000 (  1073 PWs)   bands (ev):

   -16.7574 -16.7550 -16.6980 -16.6578 -16.6354 -16.5356 -16.5164 -16.4941
   -16.4399 -16.4344  -3.3934   2.6095   5.0174   7.1641

          k = 0.2828 0.2828-0.0000 (  1073 PWs)   bands (ev):

   -16.7568 -16.7544 -16.7012 -16.6561 -16.6348 -16.5348 -16.5159 -16.4958
   -16.4418 -16.4322  -3.3917   2.5984   5.0177   7.1756

          k = 0.2828-0.0000 0.2828 (  1073 PWs)   bands (ev):

   -16.7569 -16.7546 -16.6998 -16.6578 -16.6343 -16.5346 -16.5162 -16.4959
   -16.4407 -16.4331  -3.3925   2.6035   5.0174   7.1708

          k = 0.0000-0.5657 0.0000 (  1082 PWs)   bands (ev):

   -16.7581 -16.7578 -16.7064 -16.6347 -16.6104 -16.5591 -16.5414 -16.4856
   -16.4320 -16.4317  -2.1116   0.7801   5.2670   5.2676

          k = 0.0000 0.0000-0.5657 (  1082 PWs)   bands (ev):

   -16.7592 -16.7557 -16.7066 -16.6347 -16.6113 -16.5589 -16.5423 -16.4854
   -16.4329 -16.4299  -2.1116   0.7802   5.2632   5.2706

          k = 0.0000 0.5657 0.5657 (  1073 PWs)   bands (ev):

   -16.7749 -16.7610 -16.6727 -16.6318 -16.5832 -16.5711 -16.5584 -16.5192
   -16.4263 -16.4143  -1.0505  -0.3938   4.0357   5.3826

          k = 0.5657 0.0000-0.5657 (  1073 PWs)   bands (ev):

   -16.7746 -16.7613 -16.6730 -16.6316 -16.5832 -16.5711 -16.5581 -16.5195
   -16.4265 -16.4140  -1.0514  -0.3928   4.0362   5.3820

          k =-0.5657 0.5657 0.0000 (  1073 PWs)   bands (ev):

   -16.7729 -16.7625 -16.6745 -16.6300 -16.5842 -16.5720 -16.5562 -16.5208
   -16.4274 -16.4125  -1.0559  -0.3875   4.0392   5.3780

          k = 0.5657 0.5657 0.0000 (  1073 PWs)   bands (ev):

   -16.7761 -16.7591 -16.6715 -16.6333 -16.5840 -16.5719 -16.5595 -16.5174
   -16.4245 -16.4155  -1.0459  -0.3990   4.0324   5.3858

          k = 0.5657 0.0000 0.5657 (  1073 PWs)   bands (ev):

   -16.7749 -16.7610 -16.6727 -16.6318 -16.5832 -16.5711 -16.5584 -16.5192
   -16.4263 -16.4143  -1.0505  -0.3938   4.0356   5.3826

          k = 0.1414-0.4243-0.7071 (  1068 PWs)   bands (ev):

   -16.7717 -16.7690 -16.6658 -16.6132 -16.6031 -16.5804 -16.5481 -16.5251
   -16.4224 -16.4155  -1.7472   0.4170   4.0920   5.0610

          k = 0.4243 0.1414-0.7071 (  1068 PWs)   bands (ev):

   -16.7743 -16.7660 -16.6668 -16.6128 -16.6027 -16.5802 -16.5490 -16.5248
   -16.4197 -16.4180  -1.7424   0.4076   4.0892   5.0690

          k =-0.7071 0.4243 0.1414 (  1068 PWs)   bands (ev):

   -16.7733 -16.7670 -16.6662 -16.6139 -16.6026 -16.5798 -16.5493 -16.5246
   -16.4214 -16.4162  -1.7446   0.4119   4.0903   5.0653

          k = 0.1414-0.7071 0.4243 (  1068 PWs)   bands (ev):

   -16.7731 -16.7677 -16.6658 -16.6139 -16.6023 -16.5795 -16.5495 -16.5242
   -16.4213 -16.4168  -1.7446   0.4119   4.0905   5.0655

          k =-0.4243 0.7071-0.1414 (  1068 PWs)   bands (ev):

   -16.7733 -16.7670 -16.6662 -16.6139 -16.6026 -16.5798 -16.5493 -16.5246
   -16.4214 -16.4162  -1.7446   0.4119   4.0903   5.0653

          k =-0.4243-0.7071 0.1414 (  1068 PWs)   bands (ev):

   -16.7731 -16.7672 -16.6661 -16.6139 -16.6026 -16.5798 -16.5492 -16.5247
   -16.4216 -16.4160  -1.7450   0.4127   4.0906   5.0647

          k = 0.7071-0.1414-0.4243 (  1068 PWs)   bands (ev):

   -16.7731 -16.7677 -16.6658 -16.6139 -16.6023 -16.5795 -16.5495 -16.5242
   -16.4213 -16.4168  -1.7446   0.4119   4.0905   5.0655

          k =-0.7071 0.1414-0.4243 (  1068 PWs)   bands (ev):

   -16.7729 -16.7679 -16.6657 -16.6140 -16.6023 -16.5795 -16.5495 -16.5242
   -16.4216 -16.4166  -1.7450   0.4126   4.0907   5.0649

          k = 0.4243-0.1414-0.7071 (  1068 PWs)   bands (ev):

   -16.7717 -16.7690 -16.6658 -16.6132 -16.6031 -16.5804 -16.5481 -16.5251
   -16.4224 -16.4155  -1.7472   0.4170   4.0920   5.0610

          k =-0.7071-0.4243 0.1414 (  1068 PWs)   bands (ev):

   -16.7731 -16.7672 -16.6661 -16.6139 -16.6026 -16.5798 -16.5492 -16.5246
   -16.4216 -16.4160  -1.7450   0.4127   4.0905   5.0647

          k =-0.1414-0.7071 0.4243 (  1068 PWs)   bands (ev):

   -16.7729 -16.7679 -16.6657 -16.6140 -16.6023 -16.5795 -16.5495 -16.5242
   -16.4216 -16.4166  -1.7450   0.4127   4.0907   5.0649

     highest occupied level (ev):     8.1736

!    total energy              =    -421.78413204 Ry
     estimated scf accuracy    <       0.00000001 Ry

     The total energy is the sum of the following terms:
     one-electron contribution =    -275.51553870 Ry
     hartree contribution      =     162.78023950 Ry
     xc contribution           =    -111.70063890 Ry
     ewald contribution        =    -197.34819394 Ry

     convergence has been achieved in  67 iterations

     Forces acting on atoms (cartesian axes, Ry/au):

     atom    1 type  1   force =    -0.00027920   -0.00031483   -0.00334725
     atom    2 type  1   force =     0.00027920    0.00031483    0.00334725
     The non-local contrib.  to forces
     atom    1 type  1   force =     0.00053482    0.00052890    0.00656152
     atom    2 type  1   force =    -0.00053333   -0.00052694   -0.00655976
     The ionic contribution  to forces
     atom    1 type  1   force =     0.00001545    0.00001545    0.00001545
     atom    2 type  1   force =    -0.00001545   -0.00001545   -0.00001545
     The local contribution  to forces
     atom    1 type  1   force =    -0.00075895   -0.00074100   -0.00908950
     atom    2 type  1   force =     0.00075758    0.00073870    0.00908649
     The core correction contribution to forces
     atom    1 type  1   force =    -0.00001599   -0.00001571   -0.00019077
     atom    2 type  1   force =     0.00001594    0.00001562    0.00019068
     The Hubbard contrib.    to forces
     atom    1 type  1   force =     0.00000000    0.00000000    0.00000000
     atom    2 type  1   force =     0.00000000    0.00000000    0.00000000
     The SCF correction term to forces
     atom    1 type  1   force =    -0.00005343   -0.00010073   -0.00064157
     atom    2 type  1   force =     0.00005558    0.00010464    0.00064767

     Total force =     0.004771     Total SCF correction =     0.000926
     SCF correction compared to forces is large: reduce conv_thr to get better values


     Computing stress (Cartesian axis) and pressure

          total   stress  (Ry/bohr**3)                   (kbar)     P=      -19.25
  -0.00013578  -0.00000360  -0.00000034          -19.97       -0.53       -0.05
  -0.00000360  -0.00013564  -0.00000029           -0.53      -19.95       -0.04
  -0.00000034  -0.00000029  -0.00012111           -0.05       -0.04      -17.82


     init_run     :      2.58s CPU      1.95s WALL (       1 calls)
     electrons    :    303.50s CPU    211.12s WALL (       1 calls)
     forces       :      0.39s CPU      0.29s WALL (       1 calls)
     stress       :      5.97s CPU      4.08s WALL (       1 calls)

     Called by init_run:
     wfcinit      :      2.13s CPU      1.51s WALL (       1 calls)
     potinit      :      0.01s CPU      0.01s WALL (       1 calls)
     hinit0       :      0.40s CPU      0.40s WALL (       1 calls)

     Called by electrons:
     c_bands      :    252.67s CPU    175.06s WALL (      68 calls)
     sum_band     :     46.51s CPU     32.41s WALL (      68 calls)
     v_of_rho     :      0.65s CPU      0.64s WALL (      68 calls)
     newd         :      2.76s CPU      1.95s WALL (      68 calls)
     mix_rho      :      0.44s CPU      0.47s WALL (      68 calls)

     Called by c_bands:
     init_us_2    :     11.32s CPU      7.91s WALL (    8757 calls)
     init_us_2:cp :     11.22s CPU      7.82s WALL (    8757 calls)
     cegterg      :    222.77s CPU    152.04s WALL (    4284 calls)

     Called by *egterg:
     cdiaghg      :     13.37s CPU      8.98s WALL (   14462 calls)
     h_psi        :    183.70s CPU    125.85s WALL (   14588 calls)
     s_psi        :      4.63s CPU      3.09s WALL (   14588 calls)
     g_psi        :      2.05s CPU      1.34s WALL (   10241 calls)

     Called by h_psi:
     h_psi:calbec :      5.21s CPU      3.80s WALL (   14588 calls)
     vloc_psi     :    172.15s CPU    117.56s WALL (   14588 calls)
     add_vuspsi   :      4.69s CPU      3.22s WALL (   14588 calls)

     General routines
     calbec       :      6.83s CPU      4.78s WALL (   19187 calls)
     fft          :      0.35s CPU      0.28s WALL (     281 calls)
     ffts         :      0.09s CPU      0.09s WALL (      68 calls)
     fftw         :    162.32s CPU    110.91s WALL (  354440 calls)

     Parallel routines

     PWSCF        :   5m12.57s CPU   3m37.59s WALL


   This run was terminated on:  10:35:12  16Oct2023            

=------------------------------------------------------------------------------=
   JOB DONE.
=------------------------------------------------------------------------------=
