
     Program PWSCF v.7.2 starts on  3Nov2023 at 11: 6: 3 

     This program is part of the open-source Quantum ESPRESSO suite
     for quantum simulation of materials; please cite
         "P. Giannozzi et al., J. Phys.:Condens. Matter 21 395502 (2009);
         "P. Giannozzi et al., J. Phys.:Condens. Matter 29 465901 (2017);
         "P. Giannozzi et al., J. Chem. Phys. 152 154105 (2020);
          URL http://www.quantum-espresso.org", 
     in publications or presentations arising from this work. More details at
     http://www.quantum-espresso.org/quote

     Parallel version (MPI), running on     8 processors

     MPI processes distributed on     8 nodes
     185441 MiB available memory on the printing compute node when the environment starts

     Waiting for input...
     Reading input from standard input

     Current dimensions of program PWSCF are:
     Max number of different atomic species (ntypx) = 10
     Max number of k-points (npk) =  40000
     Max angular momentum in pseudopotentials (lmaxx) =  4
     Message from routine setup:
     using ibrav=0 with symmetry is DISCOURAGED, use correct ibrav instead

     R & G space division:  proc/nbgrp/npool/nimage =       8
     Subspace diagonalization in iterative solution of the eigenvalue problem:
     a serial algorithm will be used


     Parallelization info
     --------------------
     sticks:   dense  smooth     PW     G-vecs:    dense   smooth      PW
     Min          79      39     13                 1301      461      90
     Max          80      40     14                 1303      463      91
     Sum         637     313    109                10417     3695     725

     Using Slab Decomposition



     bravais-lattice index     =            0
     lattice parameter (alat)  =       5.3450  a.u.
     unit-cell volume          =     107.9734 (a.u.)^3
     number of atoms/cell      =            1
     number of atomic types    =            1
     number of electrons       =        11.00
     number of Kohn-Sham states=           10
     kinetic-energy cutoff     =      40.0000  Ry
     charge density cutoff     =     320.0000  Ry
     scf convergence threshold =      1.0E-07
     mixing beta               =       0.5000
     number of iterations used =            8  plain     mixing
     energy convergence thresh.=      1.0E-04
     force convergence thresh. =      1.0E-03
     press convergence thresh. =      5.0E-01
     Exchange-correlation=  SLA  PZ   NOGX NOGC
                           (   1   1   0   0   0   0   0)
     nstep                     =           50


     celldm(1)=   5.344953  celldm(2)=   0.000000  celldm(3)=   0.000000
     celldm(4)=   0.000000  celldm(5)=   0.000000  celldm(6)=   0.000000

     crystal axes: (cart. coord. in units of alat)
               a(1) = (   0.000000   0.707107   0.707107 )  
               a(2) = (   0.707107   0.000000   0.707107 )  
               a(3) = (   0.707107   0.707107   0.000000 )  

     reciprocal axes: (cart. coord. in units 2 pi/alat)
               b(1) = ( -0.707107  0.707107  0.707107 )  
               b(2) = (  0.707107 -0.707107  0.707107 )  
               b(3) = (  0.707107  0.707107 -0.707107 )  


     PseudoPot. # 1 for Au read from file:
     /home/gridsan/epan1/labutil/lab3_samples/pseudopotentials/Au.pz-d-rrkjus.UPF
     MD5 check sum: 424ffd4ac9c90487cbadcd287136c95b
     Pseudo is Ultrasoft, Zval = 11.0
     Generated by new atomic code, or converted to UPF format
     Using radial grid of 1279 points,  3 beta functions with: 
                l(1) =   2
                l(2) =   2
                l(3) =   1
     Q(r) pseudized with 0 coefficients 


     atomic species   valence    mass     pseudopotential
        Au            11.00   196.96657     Au( 1.00)

     Starting magnetic structure 
     atomic species   magnetization
        Au           0.700

     48 Sym. Ops., with inversion, found



   Cartesian axes

     site n.     atom                  positions (alat units)
         1           Au  tau(   1) = (   0.0000000   0.0000000   0.0000000  )

     number of k points=     8  Methfessel-Paxton smearing, width (Ry)=  0.0200
                       cart. coord. in units 2pi/alat
        k(    1) = (   0.0000000   0.0000000   0.0000000), wk =   0.0156250
        k(    2) = (   0.1767767   0.1767767  -0.1767767), wk =   0.1250000
        k(    3) = (  -0.3535534  -0.3535534   0.3535534), wk =   0.0625000
        k(    4) = (   0.3535534   0.0000000   0.0000000), wk =   0.0937500
        k(    5) = (  -0.1767767  -0.5303301   0.5303301), wk =   0.3750000
        k(    6) = (   0.0000000  -0.3535534   0.3535534), wk =   0.1875000
        k(    7) = (  -0.7071068   0.0000000   0.0000000), wk =   0.0468750
        k(    8) = (  -0.7071068   0.3535534   0.0000000), wk =   0.0937500

     Dense  grid:    10417 G-vectors     FFT dimensions: (  32,  32,  32)

     Smooth grid:     3695 G-vectors     FFT dimensions: (  24,  24,  24)

     Estimated max dynamical RAM per process >       4.79 MB

     Estimated total dynamical RAM >      38.29 MB
     Generating pointlists ...
     new r_m :   0.4125 (alat units)  2.2048 (a.u.) for type    1

     Initial potential from superposition of free atoms

     starting charge      10.9999, renormalised to      11.0000
     Starting wfcs are    9 randomized atomic wfcs +    1 random wfcs

     total cpu time spent up to now is        0.5 secs

     Self-consistent Calculation

     iteration #  1     ecut=    40.00 Ry     beta= 0.50
     Davidson diagonalization with overlap
     ethr =  1.00E-02,  avg # of iterations =  5.5

     total cpu time spent up to now is        0.6 secs

     total energy              =     -66.53612679 Ry
     estimated scf accuracy    <       0.45246632 Ry

     total magnetization       =     1.04 Bohr mag/cell
     absolute magnetization    =     1.20 Bohr mag/cell

     iteration #  2     ecut=    40.00 Ry     beta= 0.50
     Davidson diagonalization with overlap
     ethr =  4.11E-03,  avg # of iterations =  1.6

     total cpu time spent up to now is        0.6 secs

     total energy              =     -66.75766307 Ry
     estimated scf accuracy    <       0.10444999 Ry

     total magnetization       =     0.74 Bohr mag/cell
     absolute magnetization    =     0.75 Bohr mag/cell

     iteration #  3     ecut=    40.00 Ry     beta= 0.50
     Davidson diagonalization with overlap
     ethr =  9.50E-04,  avg # of iterations =  1.3

     total cpu time spent up to now is        0.7 secs

     total energy              =     -66.83220702 Ry
     estimated scf accuracy    <       0.03619288 Ry

     total magnetization       =     0.42 Bohr mag/cell
     absolute magnetization    =     0.43 Bohr mag/cell

     iteration #  4     ecut=    40.00 Ry     beta= 0.50
     Davidson diagonalization with overlap
     ethr =  3.29E-04,  avg # of iterations =  1.5
     Minimization algorithm failed to find Fermi energy: reverting to bisection
     Possible cause: smearing is larger than the electronic band-gap.

     total cpu time spent up to now is        0.8 secs

     total energy              =     -66.85497337 Ry
     estimated scf accuracy    <       0.00396385 Ry

     total magnetization       =    -0.02 Bohr mag/cell
     absolute magnetization    =     0.06 Bohr mag/cell

     iteration #  5     ecut=    40.00 Ry     beta= 0.50
     Davidson diagonalization with overlap
     ethr =  3.60E-05,  avg # of iterations =  2.2

     total cpu time spent up to now is        0.9 secs

     total energy              =     -66.85611388 Ry
     estimated scf accuracy    <       0.00026241 Ry

     total magnetization       =    -0.02 Bohr mag/cell
     absolute magnetization    =     0.04 Bohr mag/cell

     iteration #  6     ecut=    40.00 Ry     beta= 0.50
     Davidson diagonalization with overlap
     ethr =  2.39E-06,  avg # of iterations =  2.3

     total cpu time spent up to now is        0.9 secs

     total energy              =     -66.85621232 Ry
     estimated scf accuracy    <       0.00000429 Ry

     total magnetization       =    -0.01 Bohr mag/cell
     absolute magnetization    =     0.01 Bohr mag/cell

     iteration #  7     ecut=    40.00 Ry     beta= 0.50
     Davidson diagonalization with overlap
     ethr =  3.90E-08,  avg # of iterations =  1.5

     total cpu time spent up to now is        1.0 secs

     total energy              =     -66.85621728 Ry
     estimated scf accuracy    <       0.00000154 Ry

     total magnetization       =    -0.00 Bohr mag/cell
     absolute magnetization    =     0.00 Bohr mag/cell

     iteration #  8     ecut=    40.00 Ry     beta= 0.50
     Davidson diagonalization with overlap
     ethr =  1.40E-08,  avg # of iterations =  1.8

     total cpu time spent up to now is        1.1 secs

     total energy              =     -66.85621829 Ry
     estimated scf accuracy    <       0.00000017 Ry

     total magnetization       =    -0.00 Bohr mag/cell
     absolute magnetization    =     0.00 Bohr mag/cell

     iteration #  9     ecut=    40.00 Ry     beta= 0.50
     Davidson diagonalization with overlap
     ethr =  1.51E-09,  avg # of iterations =  1.5

     Magnetic moment per site  (integrated on atomic sphere of radius R)
     atom   1 (R=0.413)  charge=  9.2929  magn= -0.0000

     total cpu time spent up to now is        1.2 secs

     End of self-consistent calculation

 ------ SPIN UP ------------


          k = 0.0000 0.0000 0.0000 (   459 PWs)   bands (ev):

     6.3982  11.9959  11.9959  11.9959  13.6921  13.6921  33.5440  37.4130
    37.4130  37.4130

          k = 0.1768 0.1768-0.1768 (   477 PWs)   bands (ev):

     8.3171  11.8343  12.3076  12.3076  13.8814  13.8814  28.7596  34.3881
    37.9709  37.9709

          k =-0.3536-0.3536 0.3536 (   464 PWs)   bands (ev):

     9.1006  11.9497  11.9497  15.0416  15.0416  15.8051  20.3605  32.6177
    35.5439  35.5439

          k = 0.3536 0.0000 0.0000 (   456 PWs)   bands (ev):

     8.9841  10.7513  12.7499  13.3749  13.3749  14.3153  32.6233  32.6233
    34.1186  34.4179

          k =-0.1768-0.5303 0.5303 (   459 PWs)   bands (ev):

    10.0380  11.0323  12.3627  13.3151  15.1432  18.1503  22.7094  29.1289
    31.3150  34.9833

          k = 0.0000-0.3536 0.3536 (   463 PWs)   bands (ev):

    10.4328  11.3944  11.7574  13.0170  13.6895  16.8164  25.9771  27.7767
    35.0048  36.2094

          k =-0.7071 0.0000 0.0000 (   460 PWs)   bands (ev):

     9.3589   9.7112  14.9914  15.4068  15.4068  17.9310  23.1114  27.6571
    27.6571  34.6510

          k =-0.7071 0.3536 0.0000 (   464 PWs)   bands (ev):

    10.5675  11.4683  11.4683  13.5205  15.4091  22.0360  23.6314  23.6314
    26.9273  41.9116

 ------ SPIN DOWN ----------


          k = 0.0000 0.0000 0.0000 (   459 PWs)   bands (ev):

     6.3972  11.9960  11.9960  11.9960  13.6925  13.6925  33.5423  37.4122
    37.4122  37.4122

          k = 0.1768 0.1768-0.1768 (   477 PWs)   bands (ev):

     8.3163  11.8342  12.3078  12.3078  13.8817  13.8817  28.7591  34.3868
    37.9702  37.9702

          k =-0.3536-0.3536 0.3536 (   464 PWs)   bands (ev):

     9.1002  11.9499  11.9499  15.0420  15.0420  15.8041  20.3604  32.6165
    35.5430  35.5430

          k = 0.3536 0.0000 0.0000 (   456 PWs)   bands (ev):

     8.9833  10.7512  12.7499  13.3751  13.3751  14.3157  32.6226  32.6226
    34.1179  34.4174

          k =-0.1768-0.5303 0.5303 (   459 PWs)   bands (ev):

    10.0378  11.0322  12.3625  13.3153  15.1436  18.1501  22.7088  29.1283
    31.3142  34.9825

          k = 0.0000-0.3536 0.3536 (   463 PWs)   bands (ev):

    10.4323  11.3943  11.7573  13.0173  13.6897  16.8165  25.9766  27.7761
    35.0038  36.2087

          k =-0.7071 0.0000 0.0000 (   460 PWs)   bands (ev):

     9.3587   9.7110  14.9918  15.4072  15.4072  17.9298  23.1112  27.6562
    27.6562  34.6506

          k =-0.7071 0.3536 0.0000 (   464 PWs)   bands (ev):

    10.5674  11.4681  11.4681  13.5207  15.4095  22.0356  23.6307  23.6307
    26.9270  41.9106

     the Fermi energy is    17.9056 ev

!    total energy              =     -66.85621839 Ry
     estimated scf accuracy    <       0.00000002 Ry
     smearing contrib. (-TS)   =       0.00032334 Ry
     internal energy E=F+TS    =     -66.85654173 Ry

     The total energy is F=E-TS. E is the sum of the following terms:
     one-electron contribution =      10.20738654 Ry
     hartree contribution      =       6.82056852 Ry
     xc contribution           =     -10.49180992 Ry
     ewald contribution        =     -73.39268687 Ry

     total magnetization       =    -0.00 Bohr mag/cell
     absolute magnetization    =     0.00 Bohr mag/cell

     convergence has been achieved in   9 iterations

     Forces acting on atoms (cartesian axes, Ry/au):

     atom    1 type  1   force =     0.00000000    0.00000000    0.00000000
     The non-local contrib.  to forces
     atom    1 type  1   force =     0.00000000   -0.00000000    0.00000000
     The ionic contribution  to forces
     atom    1 type  1   force =    -0.00000000   -0.00000000   -0.00000000
     The local contribution  to forces
     atom    1 type  1   force =     0.00000000    0.00000000    0.00000000
     The core correction contribution to forces
     atom    1 type  1   force =     0.00000000    0.00000000    0.00000000
     The Hubbard contrib.    to forces
     atom    1 type  1   force =     0.00000000    0.00000000    0.00000000
     The SCF correction term to forces
     atom    1 type  1   force =     0.00000000    0.00000000    0.00000000

     Total force =     0.000000     Total SCF correction =     0.000000


     Computing stress (Cartesian axis) and pressure

          total   stress  (Ry/bohr**3)                   (kbar)     P=       95.52
   0.00064933   0.00000000   0.00000000           95.52        0.00        0.00
   0.00000000   0.00064933   0.00000000            0.00       95.52        0.00
   0.00000000   0.00000000   0.00064933            0.00        0.00       95.52


     BFGS Geometry Optimization
     Energy error            =      0.0E+00 Ry
     Gradient error          =      0.0E+00 Ry/Bohr
     Cell gradient error     =      9.6E+01 kbar

     number of scf cycles    =   1
     number of bfgs steps    =   0

     enthalpy           new  =     -66.8562183899 Ry

     new trust radius        =       0.0337357637 bohr
     new conv_thr            =       0.0000001000 Ry

     new unit-cell volume =    113.31741 a.u.^3 (    16.79191 Ang^3 )
     density =     19.47788 g/cm^3

CELL_PARAMETERS (angstrom)
   0.000000000   2.032466259   2.032466259
   2.032466259   0.000000000   2.032466259
   2.032466259   2.032466259   0.000000000

ATOMIC_POSITIONS (angstrom)
Au            0.0000000000        0.0000000000        0.0000000000



     Writing config-only to output data dir /home/gridsan/epan1/labutil/lab3_samples/problem3/Lab3/Au_a_4.0_ecut_40_nk_4/pwscf.save/
     NEW-OLD atomic charge density approx. for the potential
     extrapolated charge   11.51876, renormalised to   11.00000
     Generating pointlists ...

     total cpu time spent up to now is        1.4 secs

     Self-consistent Calculation

     iteration #  1     ecut=    40.00 Ry     beta= 0.50
     Davidson diagonalization with overlap
     ethr =  1.00E-06,  avg # of iterations =  3.2
     Minimization algorithm failed to find Fermi energy: reverting to bisection
     Possible cause: smearing is larger than the electronic band-gap.

     total cpu time spent up to now is        1.5 secs

     total energy              =     -66.81522330 Ry
     estimated scf accuracy    <       0.03510434 Ry

     total magnetization       =    -0.00 Bohr mag/cell
     absolute magnetization    =     0.00 Bohr mag/cell

     iteration #  2     ecut=    40.00 Ry     beta= 0.50
     Davidson diagonalization with overlap
     ethr =  3.19E-04,  avg # of iterations =  2.0
     Minimization algorithm failed to find Fermi energy: reverting to bisection
     Possible cause: smearing is larger than the electronic band-gap.

     total cpu time spent up to now is        1.6 secs

     total energy              =     -66.85942287 Ry
     estimated scf accuracy    <       0.04375524 Ry

     total magnetization       =    -0.00 Bohr mag/cell
     absolute magnetization    =     0.00 Bohr mag/cell

     iteration #  3     ecut=    40.00 Ry     beta= 0.50
     Davidson diagonalization with overlap
     ethr =  3.19E-04,  avg # of iterations =  1.0
     Minimization algorithm failed to find Fermi energy: reverting to bisection
     Possible cause: smearing is larger than the electronic band-gap.

     total cpu time spent up to now is        1.7 secs

     total energy              =     -66.85820394 Ry
     estimated scf accuracy    <       0.01058422 Ry

     total magnetization       =    -0.00 Bohr mag/cell
     absolute magnetization    =     0.00 Bohr mag/cell

     iteration #  4     ecut=    40.00 Ry     beta= 0.50
     Davidson diagonalization with overlap
     ethr =  9.62E-05,  avg # of iterations =  1.0
     Minimization algorithm failed to find Fermi energy: reverting to bisection
     Possible cause: smearing is larger than the electronic band-gap.

     total cpu time spent up to now is        1.7 secs

     total energy              =     -66.85735533 Ry
     estimated scf accuracy    <       0.00250399 Ry

     total magnetization       =    -0.00 Bohr mag/cell
     absolute magnetization    =     0.00 Bohr mag/cell

     iteration #  5     ecut=    40.00 Ry     beta= 0.50
     Davidson diagonalization with overlap
     ethr =  2.28E-05,  avg # of iterations =  2.0
     Minimization algorithm failed to find Fermi energy: reverting to bisection
     Possible cause: smearing is larger than the electronic band-gap.

     total cpu time spent up to now is        1.8 secs

     total energy              =     -66.85790611 Ry
     estimated scf accuracy    <       0.00000934 Ry

     total magnetization       =    -0.00 Bohr mag/cell
     absolute magnetization    =     0.00 Bohr mag/cell

     iteration #  6     ecut=    40.00 Ry     beta= 0.50
     Davidson diagonalization with overlap
     ethr =  8.49E-08,  avg # of iterations =  2.2
     Minimization algorithm failed to find Fermi energy: reverting to bisection
     Possible cause: smearing is larger than the electronic band-gap.

     total cpu time spent up to now is        1.9 secs

     total energy              =     -66.85784315 Ry
     estimated scf accuracy    <       0.00021815 Ry

     total magnetization       =    -0.00 Bohr mag/cell
     absolute magnetization    =     0.00 Bohr mag/cell

     iteration #  7     ecut=    40.00 Ry     beta= 0.50
     Davidson diagonalization with overlap
     ethr =  8.49E-08,  avg # of iterations =  2.2
     Minimization algorithm failed to find Fermi energy: reverting to bisection
     Possible cause: smearing is larger than the electronic band-gap.

     total cpu time spent up to now is        2.0 secs

     total energy              =     -66.85789560 Ry
     estimated scf accuracy    <       0.00000321 Ry

     total magnetization       =    -0.00 Bohr mag/cell
     absolute magnetization    =     0.00 Bohr mag/cell

     iteration #  8     ecut=    40.00 Ry     beta= 0.50
     Davidson diagonalization with overlap
     ethr =  2.91E-08,  avg # of iterations =  1.0
     Minimization algorithm failed to find Fermi energy: reverting to bisection
     Possible cause: smearing is larger than the electronic band-gap.

     total cpu time spent up to now is        2.1 secs

     total energy              =     -66.85789463 Ry
     estimated scf accuracy    <       0.00000145 Ry

     total magnetization       =    -0.00 Bohr mag/cell
     absolute magnetization    =     0.00 Bohr mag/cell

     iteration #  9     ecut=    40.00 Ry     beta= 0.50
     Davidson diagonalization with overlap
     ethr =  1.32E-08,  avg # of iterations =  2.0
     Minimization algorithm failed to find Fermi energy: reverting to bisection
     Possible cause: smearing is larger than the electronic band-gap.

     total cpu time spent up to now is        2.1 secs

     total energy              =     -66.85789501 Ry
     estimated scf accuracy    <       0.00000063 Ry

     total magnetization       =    -0.00 Bohr mag/cell
     absolute magnetization    =     0.00 Bohr mag/cell

     iteration # 10     ecut=    40.00 Ry     beta= 0.50
     Davidson diagonalization with overlap
     ethr =  5.70E-09,  avg # of iterations =  2.0
     Minimization algorithm failed to find Fermi energy: reverting to bisection
     Possible cause: smearing is larger than the electronic band-gap.

     Magnetic moment per site  (integrated on atomic sphere of radius R)
     atom   1 (R=0.413)  charge=  9.2346  magn= -0.0000

     total cpu time spent up to now is        2.2 secs

     End of self-consistent calculation

 ------ SPIN UP ------------


          k = 0.0000 0.0000 0.0000 (   459 PWs)   bands (ev):

     5.7721  11.1332  11.1332  11.1332  12.6964  12.6964  32.2767  35.8477
    35.8477  35.8477

          k = 0.1740 0.1740-0.1740 (   477 PWs)   bands (ev):

     7.6214  10.9922  11.4234  11.4234  12.8749  12.8749  27.2444  33.0360
    36.1749  36.1749

          k =-0.3479-0.3479 0.3479 (   464 PWs)   bands (ev):

     8.4178  11.0945  11.0945  13.9386  13.9386  14.8723  18.9474  31.3730
    33.8814  33.8814

          k = 0.3479 0.0000 0.0000 (   456 PWs)   bands (ev):

     8.2656   9.9858  11.8394  12.4100  12.4100  13.2707  31.0250  31.0250
    32.5565  32.6679

          k =-0.1740-0.5219 0.5219 (   459 PWs)   bands (ev):

     9.3137  10.2553  11.4828  12.3570  14.0313  16.9295  21.3636  27.5716
    29.7716  33.4064

          k = 0.0000-0.3479 0.3479 (   463 PWs)   bands (ev):

     9.6608  10.5840  10.9302  12.0839  12.6987  15.6206  24.5220  26.2477
    33.5418  34.4415

          k =-0.6958 0.0000 0.0000 (   460 PWs)   bands (ev):

     8.6909   9.0184  13.8914  14.2730  14.2730  16.8995  21.5707  26.3016
    26.3016  32.9908

          k =-0.6958 0.3479 0.0000 (   464 PWs)   bands (ev):

     9.8268  10.6531  10.6531  12.5493  14.2750  20.6012  22.2948  22.2948
    25.4549  40.1873

 ------ SPIN DOWN ----------


          k = 0.0000 0.0000 0.0000 (   459 PWs)   bands (ev):

     5.7721  11.1332  11.1332  11.1332  12.6964  12.6964  32.2767  35.8477
    35.8477  35.8477

          k = 0.1740 0.1740-0.1740 (   477 PWs)   bands (ev):

     7.6214  10.9922  11.4234  11.4234  12.8749  12.8749  27.2444  33.0360
    36.1749  36.1749

          k =-0.3479-0.3479 0.3479 (   464 PWs)   bands (ev):

     8.4178  11.0945  11.0945  13.9386  13.9386  14.8723  18.9474  31.3730
    33.8814  33.8814

          k = 0.3479 0.0000 0.0000 (   456 PWs)   bands (ev):

     8.2656   9.9858  11.8394  12.4100  12.4100  13.2707  31.0250  31.0250
    32.5565  32.6679

          k =-0.1740-0.5219 0.5219 (   459 PWs)   bands (ev):

     9.3137  10.2553  11.4828  12.3570  14.0313  16.9295  21.3636  27.5716
    29.7716  33.4064

          k = 0.0000-0.3479 0.3479 (   463 PWs)   bands (ev):

     9.6608  10.5840  10.9302  12.0839  12.6987  15.6206  24.5220  26.2477
    33.5418  34.4415

          k =-0.6958 0.0000 0.0000 (   460 PWs)   bands (ev):

     8.6909   9.0184  13.8914  14.2730  14.2730  16.8995  21.5707  26.3016
    26.3016  32.9908

          k =-0.6958 0.3479 0.0000 (   464 PWs)   bands (ev):

     9.8268  10.6531  10.6531  12.5493  14.2750  20.6012  22.2948  22.2948
    25.4549  40.1873

     the Fermi energy is    16.7328 ev

!    total energy              =     -66.85789517 Ry
     estimated scf accuracy    <       0.00000005 Ry
     smearing contrib. (-TS)   =       0.00001156 Ry
     internal energy E=F+TS    =     -66.85790672 Ry

     The total energy is F=E-TS. E is the sum of the following terms:
     one-electron contribution =       8.56267253 Ry
     hartree contribution      =       7.25118474 Ry
     xc contribution           =     -10.45143902 Ry
     ewald contribution        =     -72.22032497 Ry

     total magnetization       =    -0.00 Bohr mag/cell
     absolute magnetization    =     0.00 Bohr mag/cell

     convergence has been achieved in  10 iterations

     Forces acting on atoms (cartesian axes, Ry/au):

     atom    1 type  1   force =     0.00000000    0.00000000    0.00000000
     The non-local contrib.  to forces
     atom    1 type  1   force =     0.00000000    0.00000000    0.00000000
     The ionic contribution  to forces
     atom    1 type  1   force =    -0.00000000   -0.00000000   -0.00000000
     The local contribution  to forces
     atom    1 type  1   force =     0.00000000    0.00000000    0.00000000
     The core correction contribution to forces
     atom    1 type  1   force =     0.00000000    0.00000000    0.00000000
     The Hubbard contrib.    to forces
     atom    1 type  1   force =     0.00000000    0.00000000    0.00000000
     The SCF correction term to forces
     atom    1 type  1   force =     0.00000000    0.00000000    0.00000000

     Total force =     0.000000     Total SCF correction =     0.000000


     Computing stress (Cartesian axis) and pressure

          total   stress  (Ry/bohr**3)                   (kbar)     P=       -0.08
  -0.00000058   0.00000000   0.00000000           -0.08        0.00        0.00
   0.00000000  -0.00000058   0.00000000            0.00       -0.08        0.00
   0.00000000   0.00000000  -0.00000058            0.00        0.00       -0.08

     Energy error            =      1.7E-03 Ry
     Gradient error          =      0.0E+00 Ry/Bohr
     Cell gradient error     =      8.5E-02 kbar

     number of scf cycles    =   2
     number of bfgs steps    =   1

     enthalpy           old  =     -66.8562183899 Ry
     enthalpy           new  =     -66.8578951660 Ry

     CASE: enthalpy          _new < enthalpy          _old

     small trust_radius: resetting bfgs history

     new trust radius        =       0.0000307319 bohr
     new conv_thr            =       0.0000000010 Ry

     new unit-cell volume =    113.31250 a.u.^3 (    16.79118 Ang^3 )
     density =     19.47872 g/cm^3

CELL_PARAMETERS (angstrom)
   0.000000000   2.032436921   2.032436921
   2.032436921   0.000000000   2.032436921
   2.032436921   2.032436921   0.000000000

ATOMIC_POSITIONS (angstrom)
Au            0.0000000000        0.0000000000        0.0000000000



     Writing config-only to output data dir /home/gridsan/epan1/labutil/lab3_samples/problem3/Lab3/Au_a_4.0_ecut_40_nk_4/pwscf.save/
     NEW-OLD atomic charge density approx. for the potential
     extrapolated charge   10.99952, renormalised to   11.00000
     Generating pointlists ...

     total cpu time spent up to now is        2.5 secs

     Self-consistent Calculation

     iteration #  1     ecut=    40.00 Ry     beta= 0.50
     Davidson diagonalization with overlap
     ethr =  1.00E-06,  avg # of iterations =  2.0
     Minimization algorithm failed to find Fermi energy: reverting to bisection
     Possible cause: smearing is larger than the electronic band-gap.

     Threshold (ethr) on eigenvalues was too large:
     Diagonalizing with lowered threshold

     Davidson diagonalization with overlap
     ethr =  2.24E-09,  avg # of iterations =  1.0
     Minimization algorithm failed to find Fermi energy: reverting to bisection
     Possible cause: smearing is larger than the electronic band-gap.

     total cpu time spent up to now is        2.6 secs

     total energy              =     -66.85789499 Ry
     estimated scf accuracy    <       0.00000025 Ry

     total magnetization       =    -0.00 Bohr mag/cell
     absolute magnetization    =     0.00 Bohr mag/cell

     iteration #  2     ecut=    40.00 Ry     beta= 0.50
     Davidson diagonalization with overlap
     ethr =  2.26E-09,  avg # of iterations =  2.0
     Minimization algorithm failed to find Fermi energy: reverting to bisection
     Possible cause: smearing is larger than the electronic band-gap.

     total cpu time spent up to now is        2.7 secs

     total energy              =     -66.85789512 Ry
     estimated scf accuracy    <       0.00000008 Ry

     total magnetization       =    -0.00 Bohr mag/cell
     absolute magnetization    =     0.00 Bohr mag/cell

     iteration #  3     ecut=    40.00 Ry     beta= 0.50
     Davidson diagonalization with overlap
     ethr =  6.83E-10,  avg # of iterations =  1.0
     Minimization algorithm failed to find Fermi energy: reverting to bisection
     Possible cause: smearing is larger than the electronic band-gap.

     total cpu time spent up to now is        2.7 secs

     total energy              =     -66.85789513 Ry
     estimated scf accuracy    <          4.6E-09 Ry

     total magnetization       =    -0.00 Bohr mag/cell
     absolute magnetization    =     0.00 Bohr mag/cell

     iteration #  4     ecut=    40.00 Ry     beta= 0.50
     Davidson diagonalization with overlap
     ethr =  4.19E-11,  avg # of iterations =  1.0
     Minimization algorithm failed to find Fermi energy: reverting to bisection
     Possible cause: smearing is larger than the electronic band-gap.

     total cpu time spent up to now is        2.8 secs

     total energy              =     -66.85789512 Ry
     estimated scf accuracy    <          4.3E-09 Ry

     total magnetization       =    -0.00 Bohr mag/cell
     absolute magnetization    =     0.00 Bohr mag/cell

     iteration #  5     ecut=    40.00 Ry     beta= 0.50
     Davidson diagonalization with overlap
     ethr =  3.90E-11,  avg # of iterations =  1.5
     Minimization algorithm failed to find Fermi energy: reverting to bisection
     Possible cause: smearing is larger than the electronic band-gap.

     Magnetic moment per site  (integrated on atomic sphere of radius R)
     atom   1 (R=0.413)  charge=  9.2348  magn= -0.0000

     total cpu time spent up to now is        2.9 secs

     End of self-consistent calculation

 ------ SPIN UP ------------


          k = 0.0000 0.0000 0.0000 (   459 PWs)   bands (ev):

     5.7727  11.1333  11.1333  11.1333  12.6966  12.6966  32.2779  35.8491
    35.8491  35.8491

          k = 0.1740 0.1740-0.1740 (   477 PWs)   bands (ev):

     7.6220  10.9925  11.4236  11.4236  12.8751  12.8751  27.2455  33.0373
    36.1763  36.1763

          k =-0.3479-0.3479 0.3479 (   464 PWs)   bands (ev):

     8.4181  11.0946  11.0946  13.9387  13.9387  14.8732  18.9482  31.3742
    33.8828  33.8828

          k = 0.3479 0.0000 0.0000 (   456 PWs)   bands (ev):

     8.2662   9.9859  11.8396  12.4102  12.4102  13.2709  31.0263  31.0263
    32.5579  32.6691

          k =-0.1740-0.5219 0.5219 (   459 PWs)   bands (ev):

     9.3139  10.2555  11.4831  12.3572  14.0315  16.9301  21.3646  27.5727
    29.7728  33.4077

          k = 0.0000-0.3479 0.3479 (   463 PWs)   bands (ev):

     9.6612  10.5842  10.9304  12.0841  12.6988  15.6211  24.5231  26.2488
    33.5431  34.4429

          k =-0.6958 0.0000 0.0000 (   460 PWs)   bands (ev):

     8.6911   9.0185  13.8916  14.2732  14.2732  16.9004  21.5717  26.3028
    26.3028  32.9920

          k =-0.6958 0.3479 0.0000 (   464 PWs)   bands (ev):

     9.8270  10.6533  10.6533  12.5495  14.2752  20.6022  22.2958  22.2958
    25.4559  40.1888

 ------ SPIN DOWN ----------


          k = 0.0000 0.0000 0.0000 (   459 PWs)   bands (ev):

     5.7727  11.1333  11.1333  11.1333  12.6966  12.6966  32.2779  35.8491
    35.8491  35.8491

          k = 0.1740 0.1740-0.1740 (   477 PWs)   bands (ev):

     7.6220  10.9925  11.4236  11.4236  12.8751  12.8751  27.2455  33.0373
    36.1763  36.1763

          k =-0.3479-0.3479 0.3479 (   464 PWs)   bands (ev):

     8.4181  11.0946  11.0946  13.9387  13.9387  14.8732  18.9482  31.3742
    33.8828  33.8828

          k = 0.3479 0.0000 0.0000 (   456 PWs)   bands (ev):

     8.2662   9.9859  11.8396  12.4102  12.4102  13.2709  31.0263  31.0263
    32.5579  32.6691

          k =-0.1740-0.5219 0.5219 (   459 PWs)   bands (ev):

     9.3139  10.2555  11.4831  12.3572  14.0315  16.9301  21.3646  27.5727
    29.7728  33.4077

          k = 0.0000-0.3479 0.3479 (   463 PWs)   bands (ev):

     9.6612  10.5842  10.9304  12.0841  12.6988  15.6211  24.5231  26.2488
    33.5431  34.4429

          k =-0.6958 0.0000 0.0000 (   460 PWs)   bands (ev):

     8.6911   9.0185  13.8916  14.2732  14.2732  16.9004  21.5717  26.3028
    26.3028  32.9920

          k =-0.6958 0.3479 0.0000 (   464 PWs)   bands (ev):

     9.8270  10.6533  10.6533  12.5495  14.2752  20.6022  22.2958  22.2958
    25.4559  40.1888

     the Fermi energy is    16.7335 ev

!    total energy              =     -66.85789512 Ry
     estimated scf accuracy    <          8.8E-11 Ry
     smearing contrib. (-TS)   =       0.00001147 Ry
     internal energy E=F+TS    =     -66.85790660 Ry

     The total energy is F=E-TS. E is the sum of the following terms:
     one-electron contribution =       8.56363951 Ry
     hartree contribution      =       7.25144391 Ry
     xc contribution           =     -10.45162254 Ry
     ewald contribution        =     -72.22136747 Ry

     total magnetization       =    -0.00 Bohr mag/cell
     absolute magnetization    =     0.00 Bohr mag/cell

     convergence has been achieved in   5 iterations

     Forces acting on atoms (cartesian axes, Ry/au):

     atom    1 type  1   force =     0.00000000    0.00000000    0.00000000
     The non-local contrib.  to forces
     atom    1 type  1   force =    -0.00000000    0.00000000    0.00000000
     The ionic contribution  to forces
     atom    1 type  1   force =    -0.00000000   -0.00000000   -0.00000000
     The local contribution  to forces
     atom    1 type  1   force =     0.00000000    0.00000000    0.00000000
     The core correction contribution to forces
     atom    1 type  1   force =     0.00000000    0.00000000    0.00000000
     The Hubbard contrib.    to forces
     atom    1 type  1   force =     0.00000000    0.00000000    0.00000000
     The SCF correction term to forces
     atom    1 type  1   force =     0.00000000    0.00000000    0.00000000

     Total force =     0.000000     Total SCF correction =     0.000000


     Computing stress (Cartesian axis) and pressure

          total   stress  (Ry/bohr**3)                   (kbar)     P=        1.87
   0.00001272  -0.00000000   0.00000000            1.87       -0.00        0.00
  -0.00000000   0.00001272   0.00000000           -0.00        1.87        0.00
   0.00000000   0.00000000   0.00001272            0.00        0.00        1.87

     Energy error            =      4.1E-08 Ry
     Gradient error          =      0.0E+00 Ry/Bohr
     Cell gradient error     =      1.9E+00 kbar

     number of scf cycles    =   3
     number of bfgs steps    =   2

     enthalpy           old  =     -66.8578951660 Ry
     enthalpy           new  =     -66.8578951249 Ry

     CASE: enthalpy          _new > enthalpy          _old

     new trust radius        =       0.0000009926 bohr

     trust_radius < trust_radius_min

     resetting bfgs history

     Message from routine bfgs:
     history already reset at previous step: stopping
     new conv_thr            =       0.0000000010 Ry

     new unit-cell volume =    113.31250 a.u.^3 (    16.79118 Ang^3 )
     density =     19.47872 g/cm^3

CELL_PARAMETERS (angstrom)
   0.000000000   2.032436921   2.032436921
   2.032436921   0.000000000   2.032436921
   2.032436921   2.032436921   0.000000000

ATOMIC_POSITIONS (angstrom)
Au            0.0000000000        0.0000000000        0.0000000000



     Writing config-only to output data dir /home/gridsan/epan1/labutil/lab3_samples/problem3/Lab3/Au_a_4.0_ecut_40_nk_4/pwscf.save/
     NEW-OLD atomic charge density approx. for the potential
     Generating pointlists ...

     total cpu time spent up to now is        3.1 secs

     Self-consistent Calculation

     iteration #  1     ecut=    40.00 Ry     beta= 0.50
     Davidson diagonalization with overlap
     ethr =  1.00E-06,  avg # of iterations =  1.0
     Minimization algorithm failed to find Fermi energy: reverting to bisection
     Possible cause: smearing is larger than the electronic band-gap.

     Threshold (ethr) on eigenvalues was too large:
     Diagonalizing with lowered threshold

     Davidson diagonalization with overlap
     ethr =  1.50E-12,  avg # of iterations =  1.0
     Minimization algorithm failed to find Fermi energy: reverting to bisection
     Possible cause: smearing is larger than the electronic band-gap.

     Magnetic moment per site  (integrated on atomic sphere of radius R)
     atom   1 (R=0.413)  charge=  9.2348  magn= -0.0000

     total cpu time spent up to now is        3.2 secs

     End of self-consistent calculation

 ------ SPIN UP ------------


          k = 0.0000 0.0000 0.0000 (   459 PWs)   bands (ev):

     5.7726  11.1332  11.1332  11.1332  12.6965  12.6965  32.2779  35.8491
    35.8491  35.8491

          k = 0.1740 0.1740-0.1740 (   477 PWs)   bands (ev):

     7.6220  10.9924  11.4235  11.4235  12.8750  12.8750  27.2455  33.0373
    36.1763  36.1763

          k =-0.3479-0.3479 0.3479 (   464 PWs)   bands (ev):

     8.4180  11.0945  11.0945  13.9387  13.9387  14.8732  18.9481  31.3742
    33.8828  33.8828

          k = 0.3479 0.0000 0.0000 (   456 PWs)   bands (ev):

     8.2662   9.9859  11.8396  12.4101  12.4101  13.2708  31.0263  31.0263
    32.5579  32.6691

          k =-0.1740-0.5219 0.5219 (   459 PWs)   bands (ev):

     9.3138  10.2555  11.4831  12.3571  14.0314  16.9301  21.3645  27.5727
    29.7728  33.4077

          k = 0.0000-0.3479 0.3479 (   463 PWs)   bands (ev):

     9.6612  10.5841  10.9303  12.0840  12.6987  15.6210  24.5231  26.2487
    33.5431  34.4429

          k =-0.6958 0.0000 0.0000 (   460 PWs)   bands (ev):

     8.6911   9.0185  13.8915  14.2731  14.2731  16.9004  21.5716  26.3028
    26.3028  32.9920

          k =-0.6958 0.3479 0.0000 (   464 PWs)   bands (ev):

     9.8270  10.6532  10.6532  12.5494  14.2751  20.6022  22.2958  22.2958
    25.4559  40.1888

 ------ SPIN DOWN ----------


          k = 0.0000 0.0000 0.0000 (   459 PWs)   bands (ev):

     5.7726  11.1332  11.1332  11.1332  12.6965  12.6965  32.2779  35.8491
    35.8491  35.8491

          k = 0.1740 0.1740-0.1740 (   477 PWs)   bands (ev):

     7.6220  10.9924  11.4235  11.4235  12.8750  12.8750  27.2455  33.0373
    36.1763  36.1763

          k =-0.3479-0.3479 0.3479 (   464 PWs)   bands (ev):

     8.4180  11.0945  11.0945  13.9387  13.9387  14.8732  18.9481  31.3742
    33.8828  33.8828

          k = 0.3479 0.0000 0.0000 (   456 PWs)   bands (ev):

     8.2662   9.9859  11.8396  12.4101  12.4101  13.2708  31.0263  31.0263
    32.5579  32.6691

          k =-0.1740-0.5219 0.5219 (   459 PWs)   bands (ev):

     9.3138  10.2555  11.4831  12.3571  14.0314  16.9301  21.3645  27.5727
    29.7728  33.4077

          k = 0.0000-0.3479 0.3479 (   463 PWs)   bands (ev):

     9.6612  10.5841  10.9303  12.0840  12.6987  15.6210  24.5231  26.2487
    33.5431  34.4429

          k =-0.6958 0.0000 0.0000 (   460 PWs)   bands (ev):

     8.6911   9.0185  13.8915  14.2731  14.2731  16.9004  21.5716  26.3028
    26.3028  32.9920

          k =-0.6958 0.3479 0.0000 (   464 PWs)   bands (ev):

     9.8270  10.6532  10.6532  12.5494  14.2751  20.6022  22.2958  22.2958
    25.4559  40.1888

     the Fermi energy is    16.7334 ev

!    total energy              =     -66.85789512 Ry
     estimated scf accuracy    <          1.6E-10 Ry
     smearing contrib. (-TS)   =       0.00001146 Ry
     internal energy E=F+TS    =     -66.85790658 Ry

     The total energy is F=E-TS. E is the sum of the following terms:
     one-electron contribution =       8.56358713 Ry
     hartree contribution      =       7.25151206 Ry
     xc contribution           =     -10.45163828 Ry
     ewald contribution        =     -72.22136749 Ry

     total magnetization       =    -0.00 Bohr mag/cell
     absolute magnetization    =     0.00 Bohr mag/cell

     convergence has been achieved in   1 iterations

     Forces acting on atoms (cartesian axes, Ry/au):

     atom    1 type  1   force =     0.00000000    0.00000000    0.00000000
     The non-local contrib.  to forces
     atom    1 type  1   force =    -0.00000000    0.00000000    0.00000000
     The ionic contribution  to forces
     atom    1 type  1   force =    -0.00000000   -0.00000000   -0.00000000
     The local contribution  to forces
     atom    1 type  1   force =     0.00000000    0.00000000    0.00000000
     The core correction contribution to forces
     atom    1 type  1   force =     0.00000000    0.00000000    0.00000000
     The Hubbard contrib.    to forces
     atom    1 type  1   force =     0.00000000    0.00000000    0.00000000
     The SCF correction term to forces
     atom    1 type  1   force =     0.00000000    0.00000000    0.00000000

     Total force =     0.000000     Total SCF correction =     0.000000


     Computing stress (Cartesian axis) and pressure

          total   stress  (Ry/bohr**3)                   (kbar)     P=        2.07
   0.00001405   0.00000000   0.00000000            2.07        0.00        0.00
   0.00000000   0.00001405   0.00000000            0.00        2.07        0.00
   0.00000000   0.00000000   0.00001405            0.00        0.00        2.07

     Message from routine bfgs:
     history already reset at previous step: exiting
     Energy error            =      4.1E-08 Ry
     Gradient error          =      0.0E+00 Ry/Bohr
     Cell gradient error     =      2.1E+00 kbar
Begin final coordinates
     new unit-cell volume =    113.31250 a.u.^3 (    16.79118 Ang^3 )
     density =     19.47872 g/cm^3

CELL_PARAMETERS (angstrom)
   0.000000000   2.032436921   2.032436921
   2.032436921   0.000000000   2.032436921
   2.032436921   2.032436921   0.000000000

ATOMIC_POSITIONS (angstrom)
Au            0.0000000000        0.0000000000        0.0000000000
End final coordinates



     Writing config-only to output data dir /home/gridsan/epan1/labutil/lab3_samples/problem3/Lab3/Au_a_4.0_ecut_40_nk_4/pwscf.save/

     init_run     :      0.33s CPU      0.33s WALL (       1 calls)
     electrons    :      2.06s CPU      2.08s WALL (       4 calls)
     update_pot   :      0.24s CPU      0.23s WALL (       3 calls)
     forces       :      0.18s CPU      0.14s WALL (       4 calls)
     stress       :      0.39s CPU      0.35s WALL (       4 calls)

     Called by init_run:
     wfcinit      :      0.01s CPU      0.01s WALL (       1 calls)
     potinit      :      0.14s CPU      0.14s WALL (       1 calls)
     hinit0       :      0.17s CPU      0.17s WALL (       1 calls)

     Called by electrons:
     c_bands      :      1.55s CPU      1.57s WALL (      27 calls)
     sum_band     :      0.38s CPU      0.36s WALL (      27 calls)
     v_of_rho     :      0.04s CPU      0.04s WALL (      29 calls)
     newd         :      0.07s CPU      0.07s WALL (      29 calls)
     mix_rho      :      0.02s CPU      0.02s WALL (      27 calls)

     Called by c_bands:
     init_us_2    :      0.03s CPU      0.03s WALL (    1008 calls)
     init_us_2:cp :      0.03s CPU      0.03s WALL (    1008 calls)
     cegterg      :      1.34s CPU      1.27s WALL (     432 calls)

     Called by *egterg:
     cdiaghg      :      0.22s CPU      0.21s WALL (    1129 calls)
     h_psi        :      0.94s CPU      0.89s WALL (    1225 calls)
     s_psi        :      0.01s CPU      0.01s WALL (    1225 calls)
     g_psi        :      0.00s CPU      0.00s WALL (     777 calls)

     Called by h_psi:
     h_psi:calbec :      0.06s CPU      0.05s WALL (    1225 calls)
     vloc_psi     :      0.86s CPU      0.82s WALL (    1225 calls)
     add_vuspsi   :      0.01s CPU      0.01s WALL (    1225 calls)

     General routines
     calbec       :      0.09s CPU      0.08s WALL (    1977 calls)
     fft          :      0.11s CPU      0.11s WALL (     330 calls)
     ffts         :      0.12s CPU      0.12s WALL (     112 calls)
     fftw         :      0.92s CPU      0.87s WALL (   24950 calls)
     interpolate  :      0.12s CPU      0.12s WALL (      58 calls)
     davcio       :      0.00s CPU      0.00s WALL (      16 calls)

     Parallel routines

     PWSCF        :      3.37s CPU      3.41s WALL


   This run was terminated on:  11: 6: 6   3Nov2023            

=------------------------------------------------------------------------------=
   JOB DONE.
=------------------------------------------------------------------------------=
