
     Program PWSCF v.7.2 starts on 16Oct2023 at 10:31: 3 

     This program is part of the open-source Quantum ESPRESSO suite
     for quantum simulation of materials; please cite
         "P. Giannozzi et al., J. Phys.:Condens. Matter 21 395502 (2009);
         "P. Giannozzi et al., J. Phys.:Condens. Matter 29 465901 (2017);
         "P. Giannozzi et al., J. Chem. Phys. 152 154105 (2020);
          URL http://www.quantum-espresso.org", 
     in publications or presentations arising from this work. More details at
     http://www.quantum-espresso.org/quote

     Parallel version (MPI), running on     1 processors

     MPI processes distributed on     1 nodes
     33609 MiB available memory on the printing compute node when the environment starts

     Waiting for input...
     Reading input from standard input
Warning: card &CELL ignored
Warning: card / ignored

     Current dimensions of program PWSCF are:
     Max number of different atomic species (ntypx) = 10
     Max number of k-points (npk) =  40000
     Max angular momentum in pseudopotentials (lmaxx) =  4
     file Ge.pz-dn-rrkjus_psl.0.2.2.UPF: wavefunction(s)  3D renormalized
     Message from routine setup:
     using ibrav=0 with symmetry is DISCOURAGED, use correct ibrav instead

     Subspace diagonalization in iterative solution of the eigenvalue problem:
     a serial algorithm will be used


     G-vector sticks info
     --------------------
     sticks:   dense  smooth     PW     G-vecs:    dense   smooth      PW
     Sum         517     517    163                 7991     7991    1411

     Using Slab Decomposition



     bravais-lattice index     =            0
     lattice parameter (alat)  =       7.4246  a.u.
     unit-cell volume          =     289.4059 (a.u.)^3
     number of atoms/cell      =            2
     number of atomic types    =            1
     number of electrons       =        28.00
     number of Kohn-Sham states=           14
     kinetic-energy cutoff     =      35.0000  Ry
     charge density cutoff     =     140.0000  Ry
     scf convergence threshold =      1.0E-07
     mixing beta               =       0.5000
     number of iterations used =            8  plain     mixing
     Exchange-correlation= LDA
                           (   1   1   0   0   0   0   0)

     celldm(1)=   7.424618  celldm(2)=   0.000000  celldm(3)=   0.000000
     celldm(4)=   0.000000  celldm(5)=   0.000000  celldm(6)=   0.000000

     crystal axes: (cart. coord. in units of alat)
               a(1) = (   0.000000   0.707107   0.707107 )  
               a(2) = (   0.707107   0.000000   0.707107 )  
               a(3) = (   0.707107   0.707107   0.000000 )  

     reciprocal axes: (cart. coord. in units 2 pi/alat)
               b(1) = ( -0.707107  0.707107  0.707107 )  
               b(2) = (  0.707107 -0.707107  0.707107 )  
               b(3) = (  0.707107  0.707107 -0.707107 )  


     PseudoPot. # 1 for Ge read from file:
     ../Ge.pz-dn-rrkjus_psl.0.2.2.UPF
     MD5 check sum: 9948ad5293734715c8cf6021b6c26e6d
     Pseudo is Ultrasoft + core correction, Zval = 14.0
     Generated using "atomic" code by A. Dal Corso  v.5.0.2 svn rev. 9415
     Using radial grid of 1207 points,  6 beta functions with: 
                l(1) =   0
                l(2) =   0
                l(3) =   1
                l(4) =   1
                l(5) =   2
                l(6) =   2
     Q(r) pseudized with 0 coefficients 


     atomic species   valence    mass     pseudopotential
        Ge            14.00    72.63000     Ge( 1.00)

     48 Sym. Ops., with inversion, found (24 have fractional translation)



   Cartesian axes

     site n.     atom                  positions (alat units)
         1           Ge  tau(   1) = (   0.0000000   0.0000000   0.0000000  )
         2           Ge  tau(   2) = (   0.3535535   0.3535535   0.3535535  )

     number of k points=    10
                       cart. coord. in units 2pi/alat
        k(    1) = (   0.0000000   0.0000000   0.0000000), wk =   0.0160000
        k(    2) = (   0.1414214   0.1414214  -0.1414214), wk =   0.1280000
        k(    3) = (   0.2828427   0.2828427  -0.2828427), wk =   0.1280000
        k(    4) = (   0.2828427   0.0000000   0.0000000), wk =   0.0960000
        k(    5) = (   0.4242641   0.1414214  -0.1414214), wk =   0.3840000
        k(    6) = (  -0.1414214  -0.4242641   0.4242641), wk =   0.3840000
        k(    7) = (   0.0000000  -0.2828427   0.2828427), wk =   0.1920000
        k(    8) = (   0.5656854   0.0000000   0.0000000), wk =   0.0960000
        k(    9) = (   0.0000000  -0.5656854   0.5656854), wk =   0.1920000
        k(   10) = (  -0.1414214  -0.4242641   0.7071068), wk =   0.3840000

     Dense  grid:     7991 G-vectors     FFT dimensions: (  32,  32,  32)

     Estimated max dynamical RAM per process >      33.97 MB

     Check: negative core charge=   -0.000157

     Initial potential from superposition of free atoms

     starting charge      27.9988, renormalised to      28.0000
     Starting wfcs are   18 randomized atomic wfcs

     total cpu time spent up to now is        0.9 secs

     Self-consistent Calculation

     iteration #  1     ecut=    35.00 Ry     beta= 0.50
     Davidson diagonalization with overlap
     ethr =  1.00E-02,  avg # of iterations =  2.0

     Threshold (ethr) on eigenvalues was too large:
     Diagonalizing with lowered threshold

     Davidson diagonalization with overlap
     ethr =  1.32E-04,  avg # of iterations =  2.1

     total cpu time spent up to now is        1.9 secs

     total energy              =    -421.78434035 Ry
     estimated scf accuracy    <       0.03979432 Ry

     iteration #  2     ecut=    35.00 Ry     beta= 0.50
     Davidson diagonalization with overlap
     ethr =  1.42E-04,  avg # of iterations =  1.0

     total cpu time spent up to now is        2.3 secs

     total energy              =    -421.78275860 Ry
     estimated scf accuracy    <       0.00715085 Ry

     iteration #  3     ecut=    35.00 Ry     beta= 0.50
     Davidson diagonalization with overlap
     ethr =  2.55E-05,  avg # of iterations =  2.0

     total cpu time spent up to now is        2.8 secs

     total energy              =    -421.78334888 Ry
     estimated scf accuracy    <       0.00008791 Ry

     iteration #  4     ecut=    35.00 Ry     beta= 0.50
     Davidson diagonalization with overlap
     ethr =  3.14E-07,  avg # of iterations =  4.3

     total cpu time spent up to now is        3.6 secs

     total energy              =    -421.78337592 Ry
     estimated scf accuracy    <       0.00001016 Ry

     iteration #  5     ecut=    35.00 Ry     beta= 0.50
     Davidson diagonalization with overlap
     ethr =  3.63E-08,  avg # of iterations =  2.7

     total cpu time spent up to now is        4.2 secs

     total energy              =    -421.78337741 Ry
     estimated scf accuracy    <       0.00000038 Ry

     iteration #  6     ecut=    35.00 Ry     beta= 0.50
     Davidson diagonalization with overlap
     ethr =  1.35E-09,  avg # of iterations =  3.7

     total cpu time spent up to now is        4.9 secs

     total energy              =    -421.78337760 Ry
     estimated scf accuracy    <       0.00000013 Ry

     iteration #  7     ecut=    35.00 Ry     beta= 0.50
     Davidson diagonalization with overlap
     ethr =  4.58E-10,  avg # of iterations =  2.2

     total cpu time spent up to now is        5.4 secs

     End of self-consistent calculation

          k = 0.0000 0.0000 0.0000 (   965 PWs)   bands (ev):

   -16.0582 -16.0582 -16.0582 -16.0169 -16.0169 -15.7748 -15.7748 -15.7748
   -15.7563 -15.7563  -4.3164   8.9311   8.9311   8.9311

          k = 0.1414 0.1414-0.1414 (   995 PWs)   bands (ev):

   -16.0752 -16.0752 -16.0518 -15.9914 -15.9914 -15.7975 -15.7975 -15.7833
   -15.7384 -15.7384  -3.8100   5.0373   8.2116   8.2116

          k = 0.2828 0.2828-0.2828 (  1017 PWs)   bands (ev):

   -16.0856 -16.0856 -16.0404 -15.9708 -15.9708 -15.8112 -15.8112 -15.7968
   -15.7282 -15.7282  -2.5012   1.6846   7.5317   7.5317

          k = 0.2828 0.0000 0.0000 (   990 PWs)   bands (ev):

   -16.0727 -16.0727 -16.0693 -15.9913 -15.9592 -15.8495 -15.7800 -15.7519
   -15.7519 -15.7383  -3.6341   5.1150   7.2095   7.2095

          k = 0.4243 0.1414-0.1414 (  1011 PWs)   bands (ev):

   -16.1004 -16.0864 -16.0360 -15.9610 -15.9285 -15.8793 -15.8117 -15.7821
   -15.7290 -15.7128  -2.5220   2.4553   5.8449   6.6126

          k =-0.1414-0.4243 0.4243 (  1004 PWs)   bands (ev):

   -16.1095 -16.0949 -16.0069 -15.9472 -15.9369 -15.8516 -15.8424 -15.8137
   -15.7154 -15.7029  -1.6997   1.1284   4.9945   6.9003

          k = 0.0000-0.2828 0.2828 (  1007 PWs)   bands (ev):

   -16.0923 -16.0917 -16.0274 -15.9797 -15.9521 -15.8362 -15.8159 -15.7900
   -15.7275 -15.7181  -2.9986   3.3025   5.5673   7.8697

          k = 0.5657 0.0000 0.0000 (  1014 PWs)   bands (ev):

   -16.0935 -16.0935 -16.0368 -15.9538 -15.9241 -15.8642 -15.8435 -15.7786
   -15.7169 -15.7169  -1.6472   1.4149   5.8384   5.8384

          k = 0.0000-0.5657 0.5657 (  1015 PWs)   bands (ev):

   -16.1133 -16.0976 -15.9982 -15.9500 -15.8924 -15.8785 -15.8633 -15.8186
   -15.7104 -15.6965  -0.5084   0.1664   4.5119   5.9616

          k =-0.1414-0.4243 0.7071 (  1031 PWs)   bands (ev):

   -16.1117 -16.1061 -15.9894 -15.9283 -15.9163 -15.8887 -15.8530 -15.8247
   -15.7046 -15.6994  -1.2477   1.0242   4.5761   5.6097

     highest occupied level (ev):     8.9311

!    total energy              =    -421.78337760 Ry
     estimated scf accuracy    <       0.00000003 Ry

     The total energy is the sum of the following terms:
     one-electron contribution =    -269.29102729 Ry
     hartree contribution      =     160.38350673 Ry
     xc contribution           =    -111.76864989 Ry
     ewald contribution        =    -201.10720716 Ry

     convergence has been achieved in   7 iterations

     Forces acting on atoms (cartesian axes, Ry/au):

     atom    1 type  1   force =     0.00000000   -0.00000000    0.00000000
     atom    2 type  1   force =     0.00000000   -0.00000000    0.00000000
     The non-local contrib.  to forces
     atom    1 type  1   force =     0.00000000    0.00000000    0.00000000
     atom    2 type  1   force =     0.00000000   -0.00000000   -0.00000000
     The ionic contribution  to forces
     atom    1 type  1   force =     0.00000402    0.00000402    0.00000402
     atom    2 type  1   force =    -0.00000402   -0.00000402   -0.00000402
     The local contribution  to forces
     atom    1 type  1   force =     0.00000000    0.00000000    0.00000000
     atom    2 type  1   force =    -0.00013963   -0.00013963   -0.00013963
     The core correction contribution to forces
     atom    1 type  1   force =    -0.00000000   -0.00000000   -0.00000000
     atom    2 type  1   force =    -0.00001787   -0.00001787   -0.00001787
     The Hubbard contrib.    to forces
     atom    1 type  1   force =     0.00000000    0.00000000    0.00000000
     atom    2 type  1   force =     0.00000000    0.00000000    0.00000000
     The SCF correction term to forces
     atom    1 type  1   force =    -0.00000000   -0.00000000   -0.00000000
     atom    2 type  1   force =     0.00000000    0.00000000    0.00000000

     Total force =     0.000000     Total SCF correction =     0.000000


     Computing stress (Cartesian axis) and pressure

          total   stress  (Ry/bohr**3)                   (kbar)     P=       15.07
   0.00010245  -0.00000000   0.00000000           15.07       -0.00        0.00
  -0.00000000   0.00010245  -0.00000000           -0.00       15.07       -0.00
   0.00000000  -0.00000000   0.00010245            0.00       -0.00       15.07


     init_run     :      0.94s CPU      0.80s WALL (       1 calls)
     electrons    :      6.35s CPU      4.45s WALL (       1 calls)
     forces       :      0.13s CPU      0.09s WALL (       1 calls)
     stress       :      1.44s CPU      1.01s WALL (       1 calls)

     Called by init_run:
     wfcinit      :      0.50s CPU      0.37s WALL (       1 calls)
     potinit      :      0.01s CPU      0.01s WALL (       1 calls)
     hinit0       :      0.40s CPU      0.40s WALL (       1 calls)

     Called by electrons:
     c_bands      :      4.72s CPU      3.32s WALL (       8 calls)
     sum_band     :      1.31s CPU      0.86s WALL (       8 calls)
     v_of_rho     :      0.04s CPU      0.04s WALL (       8 calls)
     newd         :      0.27s CPU      0.20s WALL (       8 calls)
     mix_rho      :      0.02s CPU      0.02s WALL (       8 calls)

     Called by c_bands:
     init_us_2    :      0.24s CPU      0.16s WALL (     190 calls)
     init_us_2:cp :      0.24s CPU      0.16s WALL (     190 calls)
     cegterg      :      4.21s CPU      2.91s WALL (      80 calls)

     Called by *egterg:
     cdiaghg      :      0.27s CPU      0.17s WALL (     270 calls)
     h_psi        :      3.84s CPU      2.69s WALL (     290 calls)
     s_psi        :      0.09s CPU      0.06s WALL (     290 calls)
     g_psi        :      0.04s CPU      0.02s WALL (     200 calls)

     Called by h_psi:
     h_psi:calbec :      0.10s CPU      0.07s WALL (     290 calls)
     vloc_psi     :      3.60s CPU      2.51s WALL (     290 calls)
     add_vuspsi   :      0.09s CPU      0.06s WALL (     290 calls)

     General routines
     calbec       :      0.14s CPU      0.10s WALL (     420 calls)
     fft          :      0.18s CPU      0.17s WALL (      41 calls)
     ffts         :      0.01s CPU      0.01s WALL (       8 calls)
     fftw         :      3.41s CPU      2.36s WALL (    7092 calls)

     Parallel routines

     PWSCF        :      9.01s CPU      6.57s WALL


   This run was terminated on:  10:31:10  16Oct2023            

=------------------------------------------------------------------------------=
   JOB DONE.
=------------------------------------------------------------------------------=
