
     Program PWSCF v.7.2 starts on  3Nov2023 at 10:57:58 

     This program is part of the open-source Quantum ESPRESSO suite
     for quantum simulation of materials; please cite
         "P. Giannozzi et al., J. Phys.:Condens. Matter 21 395502 (2009);
         "P. Giannozzi et al., J. Phys.:Condens. Matter 29 465901 (2017);
         "P. Giannozzi et al., J. Chem. Phys. 152 154105 (2020);
          URL http://www.quantum-espresso.org", 
     in publications or presentations arising from this work. More details at
     http://www.quantum-espresso.org/quote

     Parallel version (MPI), running on     8 processors

     MPI processes distributed on     8 nodes
     185886 MiB available memory on the printing compute node when the environment starts

     Waiting for input...
     Reading input from standard input

     Current dimensions of program PWSCF are:
     Max number of different atomic species (ntypx) = 10
     Max number of k-points (npk) =  40000
     Max angular momentum in pseudopotentials (lmaxx) =  4
     file Cu.pz-d-rrkjus.UPF: wavefunction(s)  3D renormalized
     Message from routine setup:
     using ibrav=0 with symmetry is DISCOURAGED, use correct ibrav instead

     R & G space division:  proc/nbgrp/npool/nimage =       8
     Subspace diagonalization in iterative solution of the eigenvalue problem:
     a serial algorithm will be used


     Parallelization info
     --------------------
     sticks:   dense  smooth     PW     G-vecs:    dense   smooth      PW
     Min          59      30     10                  858      305      65
     Max          60      31     11                  861      308      68
     Sum         475     241     85                 6879     2445     531

     Using Slab Decomposition



     bravais-lattice index     =            0
     lattice parameter (alat)  =       4.6768  a.u.
     unit-cell volume          =      72.3337 (a.u.)^3
     number of atoms/cell      =            1
     number of atomic types    =            1
     number of electrons       =        11.00
     number of Kohn-Sham states=           10
     kinetic-energy cutoff     =      40.0000  Ry
     charge density cutoff     =     320.0000  Ry
     scf convergence threshold =      1.0E-07
     mixing beta               =       0.5000
     number of iterations used =            8  plain     mixing
     energy convergence thresh.=      1.0E-04
     force convergence thresh. =      1.0E-03
     press convergence thresh. =      5.0E-01
     Exchange-correlation=  SLA  PZ   NOGX NOGC
                           (   1   1   0   0   0   0   0)
     nstep                     =           50


     celldm(1)=   4.676834  celldm(2)=   0.000000  celldm(3)=   0.000000
     celldm(4)=   0.000000  celldm(5)=   0.000000  celldm(6)=   0.000000

     crystal axes: (cart. coord. in units of alat)
               a(1) = (   0.000000   0.707107   0.707107 )  
               a(2) = (   0.707107   0.000000   0.707107 )  
               a(3) = (   0.707107   0.707107   0.000000 )  

     reciprocal axes: (cart. coord. in units 2 pi/alat)
               b(1) = ( -0.707107  0.707107  0.707107 )  
               b(2) = (  0.707107 -0.707107  0.707107 )  
               b(3) = (  0.707107  0.707107 -0.707107 )  


     PseudoPot. # 1 for Cu read from file:
     /home/gridsan/epan1/labutil/lab3_samples/pseudopotentials/Cu.pz-d-rrkjus.UPF
     MD5 check sum: fd38ae683e239c95a66f426e1f8e5fc7
     Pseudo is Ultrasoft, Zval = 11.0
     Generated by new atomic code, or converted to UPF format
     Using radial grid of  899 points,  3 beta functions with: 
                l(1) =   2
                l(2) =   2
                l(3) =   1
     Q(r) pseudized with 0 coefficients 


     atomic species   valence    mass     pseudopotential
        Cu            11.00    63.54600     Cu( 1.00)

     Starting magnetic structure 
     atomic species   magnetization
        Cu           0.700

     48 Sym. Ops., with inversion, found



   Cartesian axes

     site n.     atom                  positions (alat units)
         1           Cu  tau(   1) = (   0.0000000   0.0000000   0.0000000  )

     number of k points=   120  Methfessel-Paxton smearing, width (Ry)=  0.0200

     Number of k-points >= 100: set verbosity='high' to print them.

     Dense  grid:     6879 G-vectors     FFT dimensions: (  27,  27,  27)

     Smooth grid:     2445 G-vectors     FFT dimensions: (  20,  20,  20)

     Estimated max dynamical RAM per process >       4.76 MB

     Estimated total dynamical RAM >      38.06 MB
     Generating pointlists ...
     new r_m :   0.4125 (alat units)  1.9292 (a.u.) for type    1

     Initial potential from superposition of free atoms

     starting charge      10.9997, renormalised to      11.0000
     Starting wfcs are    6 randomized atomic wfcs +    4 random wfcs

     total cpu time spent up to now is        0.5 secs

     Self-consistent Calculation

     iteration #  1     ecut=    40.00 Ry     beta= 0.50
     Davidson diagonalization with overlap
     ethr =  1.00E-02,  avg # of iterations =  6.0

     total cpu time spent up to now is        1.6 secs

     total energy              =     -86.96622152 Ry
     estimated scf accuracy    <       1.45682381 Ry

     total magnetization       =     1.75 Bohr mag/cell
     absolute magnetization    =     1.88 Bohr mag/cell

     iteration #  2     ecut=    40.00 Ry     beta= 0.50
     Davidson diagonalization with overlap
     ethr =  1.00E-02,  avg # of iterations =  1.5

     total cpu time spent up to now is        2.2 secs

     total energy              =     -87.61713280 Ry
     estimated scf accuracy    <       0.72931855 Ry

     total magnetization       =     0.33 Bohr mag/cell
     absolute magnetization    =     0.51 Bohr mag/cell

     iteration #  3     ecut=    40.00 Ry     beta= 0.50
     Davidson diagonalization with overlap
     ethr =  6.63E-03,  avg # of iterations =  1.0

     negative rho (up, down):  0.000E+00 2.402E-07

     total cpu time spent up to now is        2.8 secs

     total energy              =     -87.79761932 Ry
     estimated scf accuracy    <       0.21549511 Ry

     total magnetization       =     0.30 Bohr mag/cell
     absolute magnetization    =     0.51 Bohr mag/cell

     iteration #  4     ecut=    40.00 Ry     beta= 0.50
     Davidson diagonalization with overlap
     ethr =  1.96E-03,  avg # of iterations =  1.5

     total cpu time spent up to now is        3.4 secs

     total energy              =     -87.83015511 Ry
     estimated scf accuracy    <       0.04548597 Ry

     total magnetization       =    -0.03 Bohr mag/cell
     absolute magnetization    =     0.05 Bohr mag/cell

     iteration #  5     ecut=    40.00 Ry     beta= 0.50
     Davidson diagonalization with overlap
     ethr =  4.14E-04,  avg # of iterations =  1.2

     total cpu time spent up to now is        3.9 secs

     total energy              =     -87.84165456 Ry
     estimated scf accuracy    <       0.00134828 Ry

     total magnetization       =    -0.04 Bohr mag/cell
     absolute magnetization    =     0.04 Bohr mag/cell

     iteration #  6     ecut=    40.00 Ry     beta= 0.50
     Davidson diagonalization with overlap
     ethr =  1.23E-05,  avg # of iterations =  1.7

     total cpu time spent up to now is        4.5 secs

     total energy              =     -87.84242050 Ry
     estimated scf accuracy    <       0.00029526 Ry

     total magnetization       =     0.01 Bohr mag/cell
     absolute magnetization    =     0.03 Bohr mag/cell

     iteration #  7     ecut=    40.00 Ry     beta= 0.50
     Davidson diagonalization with overlap
     ethr =  2.68E-06,  avg # of iterations =  1.4

     total cpu time spent up to now is        5.1 secs

     total energy              =     -87.84248463 Ry
     estimated scf accuracy    <       0.00002835 Ry

     total magnetization       =     0.00 Bohr mag/cell
     absolute magnetization    =     0.01 Bohr mag/cell

     iteration #  8     ecut=    40.00 Ry     beta= 0.50
     Davidson diagonalization with overlap
     ethr =  2.58E-07,  avg # of iterations =  1.5

     total cpu time spent up to now is        5.7 secs

     total energy              =     -87.84249245 Ry
     estimated scf accuracy    <       0.00000094 Ry

     total magnetization       =    -0.00 Bohr mag/cell
     absolute magnetization    =     0.00 Bohr mag/cell

     iteration #  9     ecut=    40.00 Ry     beta= 0.50
     Davidson diagonalization with overlap
     ethr =  8.57E-09,  avg # of iterations =  1.5

     total cpu time spent up to now is        6.3 secs

     total energy              =     -87.84249264 Ry
     estimated scf accuracy    <       0.00000012 Ry

     total magnetization       =    -0.00 Bohr mag/cell
     absolute magnetization    =     0.00 Bohr mag/cell

     iteration # 10     ecut=    40.00 Ry     beta= 0.50
     Davidson diagonalization with overlap
     ethr =  1.06E-09,  avg # of iterations =  1.2

     Magnetic moment per site  (integrated on atomic sphere of radius R)
     atom   1 (R=0.412)  charge=  9.7759  magn=  0.0000

     total cpu time spent up to now is        6.9 secs

     End of self-consistent calculation

     Number of k-points >= 100: set verbosity='high' to print the bands.

     the Fermi energy is    15.6970 ev

!    total energy              =     -87.84249266 Ry
     estimated scf accuracy    <          7.8E-10 Ry
     smearing contrib. (-TS)   =      -0.00003749 Ry
     internal energy E=F+TS    =     -87.84245517 Ry

     The total energy is F=E-TS. E is the sum of the following terms:
     one-electron contribution =      -8.03797564 Ry
     hartree contribution      =      18.15903759 Ry
     xc contribution           =     -14.08616069 Ry
     ewald contribution        =     -83.87735643 Ry

     total magnetization       =    -0.00 Bohr mag/cell
     absolute magnetization    =     0.00 Bohr mag/cell

     convergence has been achieved in  10 iterations

     Forces acting on atoms (cartesian axes, Ry/au):

     atom    1 type  1   force =     0.00000000    0.00000000    0.00000000
     The non-local contrib.  to forces
     atom    1 type  1   force =     0.00000000    0.00000000    0.00000000
     The ionic contribution  to forces
     atom    1 type  1   force =    -0.00000000   -0.00000000   -0.00000000
     The local contribution  to forces
     atom    1 type  1   force =     0.00000000   -0.00000000   -0.00000000
     The core correction contribution to forces
     atom    1 type  1   force =     0.00000000    0.00000000    0.00000000
     The Hubbard contrib.    to forces
     atom    1 type  1   force =     0.00000000    0.00000000    0.00000000
     The SCF correction term to forces
     atom    1 type  1   force =    -0.00000000    0.00000000   -0.00000000

     Total force =     0.000000     Total SCF correction =     0.000000


     Computing stress (Cartesian axis) and pressure

          total   stress  (Ry/bohr**3)                   (kbar)     P=       82.04
   0.00055767  -0.00000000  -0.00000000           82.04       -0.00       -0.00
  -0.00000000   0.00055767  -0.00000000           -0.00       82.04       -0.00
  -0.00000000  -0.00000000   0.00055767           -0.00       -0.00       82.04


     BFGS Geometry Optimization
     Energy error            =      0.0E+00 Ry
     Gradient error          =      0.0E+00 Ry/Bohr
     Cell gradient error     =      8.2E+01 kbar

     number of scf cycles    =   1
     number of bfgs steps    =   0

     enthalpy           new  =     -87.8424926630 Ry

     new trust radius        =       0.0237145851 bohr
     new conv_thr            =       0.0000001000 Ry

     new unit-cell volume =     75.40145 a.u.^3 (    11.17334 Ang^3 )
     density =      9.44396 g/cm^3

CELL_PARAMETERS (angstrom)
  -0.000000000   1.774397943   1.774397943
   1.774397943  -0.000000000   1.774397943
   1.774397943   1.774397943  -0.000000000

ATOMIC_POSITIONS (angstrom)
Cu            0.0000000000        0.0000000000        0.0000000000



     Writing config-only to output data dir /home/gridsan/epan1/labutil/lab3_samples/problem3/Lab3/Cu_a_3.5_ecut_40_nk_15/pwscf.save/
     NEW-OLD atomic charge density approx. for the potential
     extrapolated charge   11.44753, renormalised to   11.00000
     Generating pointlists ...

     total cpu time spent up to now is        7.2 secs

     Self-consistent Calculation

     iteration #  1     ecut=    40.00 Ry     beta= 0.50
     Davidson diagonalization with overlap
     ethr =  1.00E-06,  avg # of iterations =  4.2

     total cpu time spent up to now is        8.4 secs

     total energy              =     -87.68896729 Ry
     estimated scf accuracy    <       0.14660186 Ry

     total magnetization       =     0.00 Bohr mag/cell
     absolute magnetization    =     0.00 Bohr mag/cell

     iteration #  2     ecut=    40.00 Ry     beta= 0.50
     Davidson diagonalization with overlap
     ethr =  1.33E-03,  avg # of iterations =  2.0

     total cpu time spent up to now is        9.1 secs

     total energy              =     -87.84622526 Ry
     estimated scf accuracy    <       0.22725753 Ry

     total magnetization       =    -0.00 Bohr mag/cell
     absolute magnetization    =     0.00 Bohr mag/cell

     iteration #  3     ecut=    40.00 Ry     beta= 0.50
     Davidson diagonalization with overlap
     ethr =  1.33E-03,  avg # of iterations =  1.0

     total cpu time spent up to now is        9.7 secs

     total energy              =     -87.84543131 Ry
     estimated scf accuracy    <       0.04928305 Ry

     total magnetization       =    -0.00 Bohr mag/cell
     absolute magnetization    =     0.00 Bohr mag/cell

     iteration #  4     ecut=    40.00 Ry     beta= 0.50
     Davidson diagonalization with overlap
     ethr =  4.48E-04,  avg # of iterations =  1.0

     total cpu time spent up to now is       10.4 secs

     total energy              =     -87.84340669 Ry
     estimated scf accuracy    <       0.01378109 Ry

     total magnetization       =    -0.00 Bohr mag/cell
     absolute magnetization    =     0.00 Bohr mag/cell

     iteration #  5     ecut=    40.00 Ry     beta= 0.50
     Davidson diagonalization with overlap
     ethr =  1.25E-04,  avg # of iterations =  1.0

     total cpu time spent up to now is       11.1 secs

     total energy              =     -87.84281901 Ry
     estimated scf accuracy    <       0.00283821 Ry

     total magnetization       =     0.00 Bohr mag/cell
     absolute magnetization    =     0.00 Bohr mag/cell

     iteration #  6     ecut=    40.00 Ry     beta= 0.50
     Davidson diagonalization with overlap
     ethr =  2.58E-05,  avg # of iterations =  1.0

     total cpu time spent up to now is       11.7 secs

     total energy              =     -87.84333728 Ry
     estimated scf accuracy    <       0.00000188 Ry

     total magnetization       =     0.00 Bohr mag/cell
     absolute magnetization    =     0.00 Bohr mag/cell

     iteration #  7     ecut=    40.00 Ry     beta= 0.50
     Davidson diagonalization with overlap
     ethr =  1.71E-08,  avg # of iterations =  2.6

     total cpu time spent up to now is       12.5 secs

     total energy              =     -87.84331684 Ry
     estimated scf accuracy    <       0.00009846 Ry

     total magnetization       =     0.00 Bohr mag/cell
     absolute magnetization    =     0.00 Bohr mag/cell

     iteration #  8     ecut=    40.00 Ry     beta= 0.50
     Davidson diagonalization with overlap
     ethr =  1.71E-08,  avg # of iterations =  2.2

     total cpu time spent up to now is       13.3 secs

     total energy              =     -87.84333411 Ry
     estimated scf accuracy    <       0.00000027 Ry

     total magnetization       =    -0.00 Bohr mag/cell
     absolute magnetization    =     0.00 Bohr mag/cell

     iteration #  9     ecut=    40.00 Ry     beta= 0.50
     Davidson diagonalization with overlap
     ethr =  2.44E-09,  avg # of iterations =  2.7

     total cpu time spent up to now is       14.1 secs

     total energy              =     -87.84333182 Ry
     estimated scf accuracy    <       0.00001018 Ry

     total magnetization       =    -0.00 Bohr mag/cell
     absolute magnetization    =     0.00 Bohr mag/cell

     iteration # 10     ecut=    40.00 Ry     beta= 0.50
     Davidson diagonalization with overlap
     ethr =  2.44E-09,  avg # of iterations =  2.1

     Magnetic moment per site  (integrated on atomic sphere of radius R)
     atom   1 (R=0.412)  charge=  9.7328  magn=  0.0000

     total cpu time spent up to now is       14.8 secs

     End of self-consistent calculation

     Number of k-points >= 100: set verbosity='high' to print the bands.

     the Fermi energy is    14.8490 ev

!    total energy              =     -87.84333368 Ry
     estimated scf accuracy    <          4.8E-09 Ry
     smearing contrib. (-TS)   =      -0.00007578 Ry
     internal energy E=F+TS    =     -87.84325789 Ry

     The total energy is F=E-TS. E is the sum of the following terms:
     one-electron contribution =      -9.79546112 Ry
     hartree contribution      =      18.73733269 Ry
     xc contribution           =     -14.06108533 Ry
     ewald contribution        =     -82.72404414 Ry

     total magnetization       =    -0.00 Bohr mag/cell
     absolute magnetization    =     0.00 Bohr mag/cell

     convergence has been achieved in  10 iterations

     Forces acting on atoms (cartesian axes, Ry/au):

     atom    1 type  1   force =     0.00000000    0.00000000    0.00000000
     The non-local contrib.  to forces
     atom    1 type  1   force =     0.00000000    0.00000000   -0.00000000
     The ionic contribution  to forces
     atom    1 type  1   force =    -0.00000000   -0.00000000   -0.00000000
     The local contribution  to forces
     atom    1 type  1   force =    -0.00000000   -0.00000000    0.00000000
     The core correction contribution to forces
     atom    1 type  1   force =     0.00000000    0.00000000    0.00000000
     The Hubbard contrib.    to forces
     atom    1 type  1   force =     0.00000000    0.00000000    0.00000000
     The SCF correction term to forces
     atom    1 type  1   force =     0.00000000   -0.00000000   -0.00000000

     Total force =     0.000000     Total SCF correction =     0.000000


     Computing stress (Cartesian axis) and pressure

          total   stress  (Ry/bohr**3)                   (kbar)     P=        3.38
   0.00002297   0.00000000   0.00000000            3.38        0.00        0.00
   0.00000000   0.00002297   0.00000000            0.00        3.38        0.00
   0.00000000   0.00000000   0.00002297            0.00        0.00        3.38

     Energy error            =      8.4E-04 Ry
     Gradient error          =      0.0E+00 Ry/Bohr
     Cell gradient error     =      3.4E+00 kbar

     number of scf cycles    =   2
     number of bfgs steps    =   1

     enthalpy           old  =     -87.8424926630 Ry
     enthalpy           new  =     -87.8433336780 Ry

     CASE: enthalpy          _new < enthalpy          _old

     new trust radius        =       0.0010559880 bohr
     new conv_thr            =       0.0000000010 Ry

     new unit-cell volume =     75.53907 a.u.^3 (    11.19374 Ang^3 )
     density =      9.42676 g/cm^3

CELL_PARAMETERS (angstrom)
  -0.000000000   1.775476865   1.775476865
   1.775476865  -0.000000000   1.775476865
   1.775476865   1.775476865  -0.000000000

ATOMIC_POSITIONS (angstrom)
Cu            0.0000000000        0.0000000000        0.0000000000



     Writing config-only to output data dir /home/gridsan/epan1/labutil/lab3_samples/problem3/Lab3/Cu_a_3.5_ecut_40_nk_15/pwscf.save/
     NEW-OLD atomic charge density approx. for the potential
     extrapolated charge   11.02004, renormalised to   11.00000
     Generating pointlists ...

     total cpu time spent up to now is       15.4 secs

     Self-consistent Calculation

     iteration #  1     ecut=    40.00 Ry     beta= 0.50
     Davidson diagonalization with overlap
     ethr =  1.00E-06,  avg # of iterations =  2.0

     total cpu time spent up to now is       16.2 secs

     total energy              =     -87.84305752 Ry
     estimated scf accuracy    <       0.00026420 Ry

     total magnetization       =     0.00 Bohr mag/cell
     absolute magnetization    =     0.00 Bohr mag/cell

     iteration #  2     ecut=    40.00 Ry     beta= 0.50
     Davidson diagonalization with overlap
     ethr =  2.40E-06,  avg # of iterations =  2.0

     total cpu time spent up to now is       16.9 secs

     total energy              =     -87.84332831 Ry
     estimated scf accuracy    <       0.00045113 Ry

     total magnetization       =     0.00 Bohr mag/cell
     absolute magnetization    =     0.00 Bohr mag/cell

     iteration #  3     ecut=    40.00 Ry     beta= 0.50
     Davidson diagonalization with overlap
     ethr =  2.40E-06,  avg # of iterations =  1.0

     total cpu time spent up to now is       17.5 secs

     total energy              =     -87.84334810 Ry
     estimated scf accuracy    <       0.00007876 Ry

     total magnetization       =     0.00 Bohr mag/cell
     absolute magnetization    =     0.00 Bohr mag/cell

     iteration #  4     ecut=    40.00 Ry     beta= 0.50
     Davidson diagonalization with overlap
     ethr =  7.16E-07,  avg # of iterations =  1.0

     total cpu time spent up to now is       18.1 secs

     total energy              =     -87.84332615 Ry
     estimated scf accuracy    <       0.00004977 Ry

     total magnetization       =     0.00 Bohr mag/cell
     absolute magnetization    =     0.00 Bohr mag/cell

     iteration #  5     ecut=    40.00 Ry     beta= 0.50
     Davidson diagonalization with overlap
     ethr =  4.52E-07,  avg # of iterations =  1.0

     total cpu time spent up to now is       18.6 secs

     total energy              =     -87.84333356 Ry
     estimated scf accuracy    <       0.00000045 Ry

     total magnetization       =     0.00 Bohr mag/cell
     absolute magnetization    =     0.00 Bohr mag/cell

     iteration #  6     ecut=    40.00 Ry     beta= 0.50
     Davidson diagonalization with overlap
     ethr =  4.12E-09,  avg # of iterations =  2.0

     total cpu time spent up to now is       19.4 secs

     total energy              =     -87.84333356 Ry
     estimated scf accuracy    <       0.00000123 Ry

     total magnetization       =    -0.00 Bohr mag/cell
     absolute magnetization    =     0.00 Bohr mag/cell

     iteration #  7     ecut=    40.00 Ry     beta= 0.50
     Davidson diagonalization with overlap
     ethr =  4.12E-09,  avg # of iterations =  2.0

     total cpu time spent up to now is       20.1 secs

     total energy              =     -87.84333384 Ry
     estimated scf accuracy    <       0.00000001 Ry

     total magnetization       =    -0.00 Bohr mag/cell
     absolute magnetization    =     0.00 Bohr mag/cell

     iteration #  8     ecut=    40.00 Ry     beta= 0.50
     Davidson diagonalization with overlap
     ethr =  9.11E-11,  avg # of iterations =  1.6

     Magnetic moment per site  (integrated on atomic sphere of radius R)
     atom   1 (R=0.412)  charge=  9.7309  magn=  0.0000

     total cpu time spent up to now is       20.7 secs

     End of self-consistent calculation

     Number of k-points >= 100: set verbosity='high' to print the bands.

     the Fermi energy is    14.8127 ev

!    total energy              =     -87.84333384 Ry
     estimated scf accuracy    <          6.1E-10 Ry
     smearing contrib. (-TS)   =      -0.00007724 Ry
     internal energy E=F+TS    =     -87.84325660 Ry

     The total energy is F=E-TS. E is the sum of the following terms:
     one-electron contribution =      -9.87187539 Ry
     hartree contribution      =      18.76231108 Ry
     xc contribution           =     -14.05991792 Ry
     ewald contribution        =     -82.67377436 Ry

     total magnetization       =    -0.00 Bohr mag/cell
     absolute magnetization    =     0.00 Bohr mag/cell

     convergence has been achieved in   8 iterations

     Forces acting on atoms (cartesian axes, Ry/au):

     atom    1 type  1   force =     0.00000000    0.00000000    0.00000000
     The non-local contrib.  to forces
     atom    1 type  1   force =     0.00000000    0.00000000    0.00000000
     The ionic contribution  to forces
     atom    1 type  1   force =    -0.00000000   -0.00000000   -0.00000000
     The local contribution  to forces
     atom    1 type  1   force =    -0.00000000   -0.00000000    0.00000000
     The core correction contribution to forces
     atom    1 type  1   force =     0.00000000    0.00000000    0.00000000
     The Hubbard contrib.    to forces
     atom    1 type  1   force =     0.00000000    0.00000000    0.00000000
     The SCF correction term to forces
     atom    1 type  1   force =     0.00000000   -0.00000000   -0.00000000

     Total force =     0.000000     Total SCF correction =     0.000000


     Computing stress (Cartesian axis) and pressure

          total   stress  (Ry/bohr**3)                   (kbar)     P=       -1.97
  -0.00001341  -0.00000000   0.00000000           -1.97       -0.00        0.00
   0.00000000  -0.00001341  -0.00000000            0.00       -1.97       -0.00
  -0.00000000   0.00000000  -0.00001341           -0.00        0.00       -1.97

     Energy error            =      1.6E-07 Ry
     Gradient error          =      0.0E+00 Ry/Bohr
     Cell gradient error     =      2.0E+00 kbar

     number of scf cycles    =   3
     number of bfgs steps    =   2

     enthalpy           old  =     -87.8433336780 Ry
     enthalpy           new  =     -87.8433338383 Ry

     CASE: enthalpy          _new < enthalpy          _old

     new trust radius        =       0.0003895744 bohr
     new conv_thr            =       0.0000000010 Ry

     new unit-cell volume =     75.48830 a.u.^3 (    11.18621 Ang^3 )
     density =      9.43310 g/cm^3

CELL_PARAMETERS (angstrom)
  -0.000000000   1.775078951   1.775078951
   1.775078951  -0.000000000   1.775078951
   1.775078951   1.775078951  -0.000000000

ATOMIC_POSITIONS (angstrom)
Cu            0.0000000000        0.0000000000        0.0000000000



     Writing config-only to output data dir /home/gridsan/epan1/labutil/lab3_samples/problem3/Lab3/Cu_a_3.5_ecut_40_nk_15/pwscf.save/
     NEW-OLD atomic charge density approx. for the potential
     extrapolated charge   10.99260, renormalised to   11.00000
     Generating pointlists ...

     total cpu time spent up to now is       21.0 secs

     Self-consistent Calculation

     iteration #  1     ecut=    40.00 Ry     beta= 0.50
     Davidson diagonalization with overlap
     ethr =  1.00E-06,  avg # of iterations =  2.0

     total cpu time spent up to now is       21.8 secs

     total energy              =     -87.84329690 Ry
     estimated scf accuracy    <       0.00003556 Ry

     total magnetization       =    -0.00 Bohr mag/cell
     absolute magnetization    =     0.00 Bohr mag/cell

     iteration #  2     ecut=    40.00 Ry     beta= 0.50
     Davidson diagonalization with overlap
     ethr =  3.23E-07,  avg # of iterations =  2.0

     total cpu time spent up to now is       22.5 secs

     total energy              =     -87.84333332 Ry
     estimated scf accuracy    <       0.00006097 Ry

     total magnetization       =     0.00 Bohr mag/cell
     absolute magnetization    =     0.00 Bohr mag/cell

     iteration #  3     ecut=    40.00 Ry     beta= 0.50
     Davidson diagonalization with overlap
     ethr =  3.23E-07,  avg # of iterations =  1.0

     total cpu time spent up to now is       23.1 secs

     total energy              =     -87.84333627 Ry
     estimated scf accuracy    <       0.00001055 Ry

     total magnetization       =     0.00 Bohr mag/cell
     absolute magnetization    =     0.00 Bohr mag/cell

     iteration #  4     ecut=    40.00 Ry     beta= 0.50
     Davidson diagonalization with overlap
     ethr =  9.59E-08,  avg # of iterations =  1.0

     total cpu time spent up to now is       23.7 secs

     total energy              =     -87.84333303 Ry
     estimated scf accuracy    <       0.00000737 Ry

     total magnetization       =     0.00 Bohr mag/cell
     absolute magnetization    =     0.00 Bohr mag/cell

     iteration #  5     ecut=    40.00 Ry     beta= 0.50
     Davidson diagonalization with overlap
     ethr =  6.70E-08,  avg # of iterations =  1.0

     total cpu time spent up to now is       24.3 secs

     total energy              =     -87.84333407 Ry
     estimated scf accuracy    <       0.00000009 Ry

     total magnetization       =     0.00 Bohr mag/cell
     absolute magnetization    =     0.00 Bohr mag/cell

     iteration #  6     ecut=    40.00 Ry     beta= 0.50
     Davidson diagonalization with overlap
     ethr =  8.08E-10,  avg # of iterations =  2.0

     total cpu time spent up to now is       25.1 secs

     total energy              =     -87.84333407 Ry
     estimated scf accuracy    <       0.00000025 Ry

     total magnetization       =     0.00 Bohr mag/cell
     absolute magnetization    =     0.00 Bohr mag/cell

     iteration #  7     ecut=    40.00 Ry     beta= 0.50
     Davidson diagonalization with overlap
     ethr =  8.08E-10,  avg # of iterations =  2.0

     Magnetic moment per site  (integrated on atomic sphere of radius R)
     atom   1 (R=0.412)  charge=  9.7316  magn=  0.0000

     total cpu time spent up to now is       26.0 secs

     End of self-consistent calculation

     Number of k-points >= 100: set verbosity='high' to print the bands.

     the Fermi energy is    14.8261 ev

!    total energy              =     -87.84333412 Ry
     estimated scf accuracy    <          1.9E-10 Ry
     smearing contrib. (-TS)   =      -0.00007668 Ry
     internal energy E=F+TS    =     -87.84325744 Ry

     The total energy is F=E-TS. E is the sum of the following terms:
     one-electron contribution =      -9.84359422 Ry
     hartree contribution      =      18.75296409 Ry
     xc contribution           =     -14.06032021 Ry
     ewald contribution        =     -82.69230711 Ry

     total magnetization       =     0.00 Bohr mag/cell
     absolute magnetization    =     0.00 Bohr mag/cell

     convergence has been achieved in   7 iterations

     Forces acting on atoms (cartesian axes, Ry/au):

     atom    1 type  1   force =     0.00000000    0.00000000    0.00000000
     The non-local contrib.  to forces
     atom    1 type  1   force =     0.00000000    0.00000000    0.00000000
     The ionic contribution  to forces
     atom    1 type  1   force =    -0.00000000   -0.00000000   -0.00000000
     The local contribution  to forces
     atom    1 type  1   force =    -0.00000000    0.00000000    0.00000000
     The core correction contribution to forces
     atom    1 type  1   force =     0.00000000    0.00000000    0.00000000
     The Hubbard contrib.    to forces
     atom    1 type  1   force =     0.00000000    0.00000000    0.00000000
     The SCF correction term to forces
     atom    1 type  1   force =    -0.00000000   -0.00000000    0.00000000

     Total force =     0.000000     Total SCF correction =     0.000000


     Computing stress (Cartesian axis) and pressure

          total   stress  (Ry/bohr**3)                   (kbar)     P=       -0.55
  -0.00000373  -0.00000000  -0.00000000           -0.55       -0.00       -0.00
  -0.00000000  -0.00000373  -0.00000000           -0.00       -0.55       -0.00
  -0.00000000  -0.00000000  -0.00000373           -0.00       -0.00       -0.55

     Energy error            =      2.9E-07 Ry
     Gradient error          =      0.0E+00 Ry/Bohr
     Cell gradient error     =      5.5E-01 kbar

     number of scf cycles    =   4
     number of bfgs steps    =   3

     enthalpy           old  =     -87.8433338383 Ry
     enthalpy           new  =     -87.8433341235 Ry

     CASE: enthalpy          _new < enthalpy          _old

     new trust radius        =       0.0001502925 bohr
     new conv_thr            =       0.0000000010 Ry

     new unit-cell volume =     75.46871 a.u.^3 (    11.18331 Ang^3 )
     density =      9.43554 g/cm^3

CELL_PARAMETERS (angstrom)
  -0.000000000   1.774925424   1.774925424
   1.774925424  -0.000000000   1.774925424
   1.774925424   1.774925424  -0.000000000

ATOMIC_POSITIONS (angstrom)
Cu            0.0000000000        0.0000000000        0.0000000000



     Writing config-only to output data dir /home/gridsan/epan1/labutil/lab3_samples/problem3/Lab3/Cu_a_3.5_ecut_40_nk_15/pwscf.save/
     NEW-OLD atomic charge density approx. for the potential
     extrapolated charge   10.99715, renormalised to   11.00000
     Generating pointlists ...

     total cpu time spent up to now is       26.4 secs

     Self-consistent Calculation

     iteration #  1     ecut=    40.00 Ry     beta= 0.50
     Davidson diagonalization with overlap
     ethr =  1.00E-06,  avg # of iterations =  2.0

     Threshold (ethr) on eigenvalues was too large:
     Diagonalizing with lowered threshold

     Davidson diagonalization with overlap
     ethr =  4.84E-08,  avg # of iterations =  1.0

     total cpu time spent up to now is       27.8 secs

     total energy              =     -87.84332853 Ry
     estimated scf accuracy    <       0.00000536 Ry

     total magnetization       =     0.00 Bohr mag/cell
     absolute magnetization    =     0.00 Bohr mag/cell

     iteration #  2     ecut=    40.00 Ry     beta= 0.50
     Davidson diagonalization with overlap
     ethr =  4.87E-08,  avg # of iterations =  2.0

     total cpu time spent up to now is       28.5 secs

     total energy              =     -87.84333401 Ry
     estimated scf accuracy    <       0.00000914 Ry

     total magnetization       =     0.00 Bohr mag/cell
     absolute magnetization    =     0.00 Bohr mag/cell

     iteration #  3     ecut=    40.00 Ry     beta= 0.50
     Davidson diagonalization with overlap
     ethr =  4.87E-08,  avg # of iterations =  1.0

     total cpu time spent up to now is       29.2 secs

     total energy              =     -87.84333448 Ry
     estimated scf accuracy    <       0.00000158 Ry

     total magnetization       =     0.00 Bohr mag/cell
     absolute magnetization    =     0.00 Bohr mag/cell

     iteration #  4     ecut=    40.00 Ry     beta= 0.50
     Davidson diagonalization with overlap
     ethr =  1.44E-08,  avg # of iterations =  1.0

     total cpu time spent up to now is       29.8 secs

     total energy              =     -87.84333397 Ry
     estimated scf accuracy    <       0.00000119 Ry

     total magnetization       =     0.00 Bohr mag/cell
     absolute magnetization    =     0.00 Bohr mag/cell

     iteration #  5     ecut=    40.00 Ry     beta= 0.50
     Davidson diagonalization with overlap
     ethr =  1.08E-08,  avg # of iterations =  1.0

     total cpu time spent up to now is       30.4 secs

     total energy              =     -87.84333411 Ry
     estimated scf accuracy    <       0.00000002 Ry

     total magnetization       =    -0.00 Bohr mag/cell
     absolute magnetization    =     0.00 Bohr mag/cell

     iteration #  6     ecut=    40.00 Ry     beta= 0.50
     Davidson diagonalization with overlap
     ethr =  2.26E-10,  avg # of iterations =  2.0

     total cpu time spent up to now is       31.2 secs

     total energy              =     -87.84333412 Ry
     estimated scf accuracy    <       0.00000004 Ry

     total magnetization       =     0.00 Bohr mag/cell
     absolute magnetization    =     0.00 Bohr mag/cell

     iteration #  7     ecut=    40.00 Ry     beta= 0.50
     Davidson diagonalization with overlap
     ethr =  2.26E-10,  avg # of iterations =  1.3

     Magnetic moment per site  (integrated on atomic sphere of radius R)
     atom   1 (R=0.412)  charge=  9.7318  magn=  0.0000

     total cpu time spent up to now is       31.8 secs

     End of self-consistent calculation

     Number of k-points >= 100: set verbosity='high' to print the bands.

     the Fermi energy is    14.8313 ev

!    total energy              =     -87.84333413 Ry
     estimated scf accuracy    <          3.1E-12 Ry
     smearing contrib. (-TS)   =      -0.00007648 Ry
     internal energy E=F+TS    =     -87.84325765 Ry

     The total energy is F=E-TS. E is the sum of the following terms:
     one-electron contribution =      -9.83272546 Ry
     hartree contribution      =      18.74941517 Ry
     xc contribution           =     -14.06048754 Ry
     ewald contribution        =     -82.69945981 Ry

     total magnetization       =     0.00 Bohr mag/cell
     absolute magnetization    =     0.00 Bohr mag/cell

     convergence has been achieved in   7 iterations

     Forces acting on atoms (cartesian axes, Ry/au):

     atom    1 type  1   force =     0.00000000    0.00000000    0.00000000
     The non-local contrib.  to forces
     atom    1 type  1   force =     0.00000000    0.00000000    0.00000000
     The ionic contribution  to forces
     atom    1 type  1   force =    -0.00000000   -0.00000000   -0.00000000
     The local contribution  to forces
     atom    1 type  1   force =    -0.00000000    0.00000000   -0.00000000
     The core correction contribution to forces
     atom    1 type  1   force =     0.00000000    0.00000000    0.00000000
     The Hubbard contrib.    to forces
     atom    1 type  1   force =     0.00000000    0.00000000    0.00000000
     The SCF correction term to forces
     atom    1 type  1   force =    -0.00000000    0.00000000    0.00000000

     Total force =     0.000000     Total SCF correction =     0.000000


     Computing stress (Cartesian axis) and pressure

          total   stress  (Ry/bohr**3)                   (kbar)     P=        0.25
   0.00000170  -0.00000000  -0.00000000            0.25       -0.00       -0.00
  -0.00000000   0.00000170   0.00000000           -0.00        0.25        0.00
   0.00000000   0.00000000   0.00000170            0.00        0.00        0.25

     Energy error            =      3.1E-09 Ry
     Gradient error          =      0.0E+00 Ry/Bohr
     Cell gradient error     =      2.5E-01 kbar
Begin final coordinates
     new unit-cell volume =     75.46871 a.u.^3 (    11.18331 Ang^3 )
     density =      9.43554 g/cm^3

CELL_PARAMETERS (angstrom)
  -0.000000000   1.774925424   1.774925424
   1.774925424  -0.000000000   1.774925424
   1.774925424   1.774925424  -0.000000000

ATOMIC_POSITIONS (angstrom)
Cu            0.0000000000        0.0000000000        0.0000000000
End final coordinates



     Writing config-only to output data dir /home/gridsan/epan1/labutil/lab3_samples/problem3/Lab3/Cu_a_3.5_ecut_40_nk_15/pwscf.save/

     lsda relaxation :  a final configuration with zero
                        absolute magnetization has been found

     the program is checking if it is really the minimum energy structure
     by performing a new scf iteration without any "electronic" history

     Initial potential from superposition of free atoms

     starting charge      10.9997, renormalised to      11.0000

     total cpu time spent up to now is       32.1 secs

     Self-consistent Calculation

     iteration #  1     ecut=    40.00 Ry     beta= 0.50
     Davidson diagonalization with overlap
     ethr =  1.00E-06,  avg # of iterations =  4.2

     total cpu time spent up to now is       33.3 secs

     total energy              =     -86.93207767 Ry
     estimated scf accuracy    <       1.49572849 Ry

     total magnetization       =     1.81 Bohr mag/cell
     absolute magnetization    =     1.93 Bohr mag/cell

     iteration #  2     ecut=    40.00 Ry     beta= 0.50
     Davidson diagonalization with overlap
     ethr =  1.00E-02,  avg # of iterations =  1.5

     total cpu time spent up to now is       34.0 secs

     total energy              =     -87.61052204 Ry
     estimated scf accuracy    <       0.79417671 Ry

     total magnetization       =     0.31 Bohr mag/cell
     absolute magnetization    =     0.49 Bohr mag/cell

     iteration #  3     ecut=    40.00 Ry     beta= 0.50
     Davidson diagonalization with overlap
     ethr =  7.22E-03,  avg # of iterations =  1.0

     negative rho (up, down):  0.000E+00 9.210E-07

     total cpu time spent up to now is       34.6 secs

     total energy              =     -87.79472660 Ry
     estimated scf accuracy    <       0.22978153 Ry

     total magnetization       =     0.31 Bohr mag/cell
     absolute magnetization    =     0.52 Bohr mag/cell

     iteration #  4     ecut=    40.00 Ry     beta= 0.50
     Davidson diagonalization with overlap
     ethr =  2.09E-03,  avg # of iterations =  1.5

     negative rho (up, down):  0.000E+00 2.046E-07

     total cpu time spent up to now is       35.3 secs

     total energy              =     -87.82834236 Ry
     estimated scf accuracy    <       0.05779105 Ry

     total magnetization       =    -0.03 Bohr mag/cell
     absolute magnetization    =     0.06 Bohr mag/cell

     iteration #  5     ecut=    40.00 Ry     beta= 0.50
     Davidson diagonalization with overlap
     ethr =  5.25E-04,  avg # of iterations =  1.1

     total cpu time spent up to now is       35.9 secs

     total energy              =     -87.84237799 Ry
     estimated scf accuracy    <       0.00136876 Ry

     total magnetization       =    -0.04 Bohr mag/cell
     absolute magnetization    =     0.04 Bohr mag/cell

     iteration #  6     ecut=    40.00 Ry     beta= 0.50
     Davidson diagonalization with overlap
     ethr =  1.24E-05,  avg # of iterations =  1.5

     total cpu time spent up to now is       36.6 secs

     total energy              =     -87.84324673 Ry
     estimated scf accuracy    <       0.00033720 Ry

     total magnetization       =     0.01 Bohr mag/cell
     absolute magnetization    =     0.04 Bohr mag/cell

     iteration #  7     ecut=    40.00 Ry     beta= 0.50
     Davidson diagonalization with overlap
     ethr =  3.07E-06,  avg # of iterations =  1.1

     total cpu time spent up to now is       37.2 secs

     total energy              =     -87.84332517 Ry
     estimated scf accuracy    <       0.00003238 Ry

     total magnetization       =     0.00 Bohr mag/cell
     absolute magnetization    =     0.01 Bohr mag/cell

     iteration #  8     ecut=    40.00 Ry     beta= 0.50
     Davidson diagonalization with overlap
     ethr =  2.94E-07,  avg # of iterations =  1.5

     total cpu time spent up to now is       37.9 secs

     total energy              =     -87.84333385 Ry
     estimated scf accuracy    <       0.00000073 Ry

     total magnetization       =    -0.00 Bohr mag/cell
     absolute magnetization    =     0.00 Bohr mag/cell

     iteration #  9     ecut=    40.00 Ry     beta= 0.50
     Davidson diagonalization with overlap
     ethr =  6.66E-09,  avg # of iterations =  1.8

     total cpu time spent up to now is       38.6 secs

     total energy              =     -87.84333410 Ry
     estimated scf accuracy    <       0.00000011 Ry

     total magnetization       =    -0.00 Bohr mag/cell
     absolute magnetization    =     0.00 Bohr mag/cell

     iteration # 10     ecut=    40.00 Ry     beta= 0.50
     Davidson diagonalization with overlap
     ethr =  9.83E-10,  avg # of iterations =  1.2

     total cpu time spent up to now is       39.3 secs

     total energy              =     -87.84333413 Ry
     estimated scf accuracy    <          1.0E-09 Ry

     total magnetization       =    -0.00 Bohr mag/cell
     absolute magnetization    =     0.00 Bohr mag/cell

     iteration # 11     ecut=    40.00 Ry     beta= 0.50
     Davidson diagonalization with overlap
     ethr =  9.43E-12,  avg # of iterations =  2.1

     Magnetic moment per site  (integrated on atomic sphere of radius R)
     atom   1 (R=0.412)  charge=  9.7318  magn= -0.0000

     total cpu time spent up to now is       40.0 secs

     End of self-consistent calculation

     Number of k-points >= 100: set verbosity='high' to print the bands.

     the Fermi energy is    14.8313 ev

!    total energy              =     -87.84333413 Ry
     estimated scf accuracy    <          1.7E-10 Ry
     smearing contrib. (-TS)   =      -0.00007647 Ry
     internal energy E=F+TS    =     -87.84325766 Ry

     The total energy is F=E-TS. E is the sum of the following terms:
     one-electron contribution =      -9.83266012 Ry
     hartree contribution      =      18.74933316 Ry
     xc contribution           =     -14.06047089 Ry
     ewald contribution        =     -82.69945981 Ry

     total magnetization       =    -0.00 Bohr mag/cell
     absolute magnetization    =     0.00 Bohr mag/cell

     convergence has been achieved in  11 iterations

     Forces acting on atoms (cartesian axes, Ry/au):

     atom    1 type  1   force =     0.00000000    0.00000000    0.00000000
     The non-local contrib.  to forces
     atom    1 type  1   force =     0.00000000    0.00000000   -0.00000000
     The ionic contribution  to forces
     atom    1 type  1   force =    -0.00000000   -0.00000000   -0.00000000
     The local contribution  to forces
     atom    1 type  1   force =     0.00000000   -0.00000000   -0.00000000
     The core correction contribution to forces
     atom    1 type  1   force =     0.00000000    0.00000000    0.00000000
     The Hubbard contrib.    to forces
     atom    1 type  1   force =     0.00000000    0.00000000    0.00000000
     The SCF correction term to forces
     atom    1 type  1   force =     0.00000000   -0.00000000    0.00000000

     Total force =     0.000000     Total SCF correction =     0.000000


     Computing stress (Cartesian axis) and pressure

          total   stress  (Ry/bohr**3)                   (kbar)     P=       -0.09
  -0.00000063  -0.00000000  -0.00000000           -0.09       -0.00       -0.00
  -0.00000000  -0.00000063  -0.00000000           -0.00       -0.09       -0.00
  -0.00000000   0.00000000  -0.00000063           -0.00        0.00       -0.09

     Energy error            =      3.0E-09 Ry
     Gradient error          =      0.0E+00 Ry/Bohr
     Cell gradient error     =      9.3E-02 kbar

     bfgs converged in   5 scf cycles and   4 bfgs steps
     (criteria: energy <  1.0E-04 Ry, force <  1.0E-03 Ry/Bohr, cell <  5.0E-01 kbar)

     End of BFGS Geometry Optimization

     Final enthalpy           =     -87.8433341265 Ry

     File /home/gridsan/epan1/labutil/lab3_samples/problem3/Lab3/Cu_a_3.5_ecut_40_nk_15/pwscf.bfgs deleted, as requested
Begin final coordinates
     new unit-cell volume =     75.46871 a.u.^3 (    11.18331 Ang^3 )
     density =      9.43554 g/cm^3

CELL_PARAMETERS (angstrom)
  -0.000000000   1.774925424   1.774925424
   1.774925424  -0.000000000   1.774925424
   1.774925424   1.774925424  -0.000000000

ATOMIC_POSITIONS (angstrom)
Cu            0.0000000000        0.0000000000        0.0000000000
End final coordinates



     Writing config-only to output data dir /home/gridsan/epan1/labutil/lab3_samples/problem3/Lab3/Cu_a_3.5_ecut_40_nk_15/pwscf.save/

     Final scf calculation at the relaxed structure.
     The G-vectors are recalculated for the final unit cell
     Results may differ from those at the preceding step.

     Parallelization info
     --------------------
     sticks:   dense  smooth     PW     G-vecs:    dense   smooth      PW
     Min          62      31     10                  922      329      66
     Max          63      32     11                  926      331      69
     Sum         499     253     85                 7391     2637     537

     Using Slab Decomposition



     bravais-lattice index     =            0
     lattice parameter (alat)  =       4.6768  a.u.
     unit-cell volume          =      75.4687 (a.u.)^3
     number of atoms/cell      =            1
     number of atomic types    =            1
     number of electrons       =        11.00
     number of Kohn-Sham states=           10
     kinetic-energy cutoff     =      40.0000  Ry
     charge density cutoff     =     320.0000  Ry
     scf convergence threshold =      1.0E-09
     mixing beta               =       0.5000
     number of iterations used =            8  plain     mixing
     press convergence thresh. =      5.0E-01
     Exchange-correlation=  SLA  PZ   NOGX NOGC
                           (   1   1   0   0   0   0   0)

     celldm(1)=   4.676834  celldm(2)=   0.000000  celldm(3)=   0.000000
     celldm(4)=   0.000000  celldm(5)=   0.000000  celldm(6)=   0.000000

     crystal axes: (cart. coord. in units of alat)
               a(1) = (  -0.000000   0.717178   0.717178 )  
               a(2) = (   0.717178  -0.000000   0.717178 )  
               a(3) = (   0.717178   0.717178  -0.000000 )  

     reciprocal axes: (cart. coord. in units 2 pi/alat)
               b(1) = ( -0.697177  0.697177  0.697177 )  
               b(2) = (  0.697177 -0.697177  0.697177 )  
               b(3) = (  0.697177  0.697177 -0.697177 )  


     PseudoPot. # 1 for Cu read from file:
     /home/gridsan/epan1/labutil/lab3_samples/pseudopotentials/Cu.pz-d-rrkjus.UPF
     MD5 check sum: fd38ae683e239c95a66f426e1f8e5fc7
     Pseudo is Ultrasoft, Zval = 11.0
     Generated by new atomic code, or converted to UPF format
     Using radial grid of  899 points,  3 beta functions with: 
                l(1) =   2
                l(2) =   2
                l(3) =   1
     Q(r) pseudized with 0 coefficients 


     atomic species   valence    mass     pseudopotential
        Cu            11.00    63.54600     Cu( 1.00)

     Starting magnetic structure 
     atomic species   magnetization
        Cu          -0.000

     48 Sym. Ops., with inversion, found



   Cartesian axes

     site n.     atom                  positions (alat units)
         1           Cu  tau(   1) = (   0.0000000   0.0000000   0.0000000  )

     number of k points=   120  Methfessel-Paxton smearing, width (Ry)=  0.0200

     Number of k-points >= 100: set verbosity='high' to print them.

     Dense  grid:     7391 G-vectors     FFT dimensions: (  27,  27,  27)

     Smooth grid:     2637 G-vectors     FFT dimensions: (  20,  20,  20)

     Estimated max dynamical RAM per process >       5.00 MB

     Estimated total dynamical RAM >      40.03 MB
     Generating pointlists ...

     Initial potential from superposition of free atoms

     starting charge      10.9997, renormalised to      11.0000
     Starting wfcs are    6 randomized atomic wfcs +    4 random wfcs

     total cpu time spent up to now is       40.6 secs

     Self-consistent Calculation

     iteration #  1     ecut=    40.00 Ry     beta= 0.50
     Davidson diagonalization with overlap
     c_bands:  1 eigenvalues not converged
     c_bands:  1 eigenvalues not converged
     c_bands:  2 eigenvalues not converged
     c_bands:  1 eigenvalues not converged
     c_bands:  1 eigenvalues not converged
     c_bands:  2 eigenvalues not converged
     ethr =  1.00E-06,  avg # of iterations = 13.2

     total cpu time spent up to now is       43.0 secs

     total energy              =     -87.76303823 Ry
     estimated scf accuracy    <       0.24410124 Ry

     total magnetization       =    -0.00 Bohr mag/cell
     absolute magnetization    =     0.00 Bohr mag/cell

     iteration #  2     ecut=    40.00 Ry     beta= 0.50
     Davidson diagonalization with overlap
     ethr =  2.22E-03,  avg # of iterations =  1.5

     total cpu time spent up to now is       43.7 secs

     total energy              =     -87.83675160 Ry
     estimated scf accuracy    <       0.03780076 Ry

     total magnetization       =    -0.00 Bohr mag/cell
     absolute magnetization    =     0.00 Bohr mag/cell

     iteration #  3     ecut=    40.00 Ry     beta= 0.50
     Davidson diagonalization with overlap
     ethr =  3.44E-04,  avg # of iterations =  1.0

     total cpu time spent up to now is       44.3 secs

     total energy              =     -87.84327589 Ry
     estimated scf accuracy    <       0.00017891 Ry

     total magnetization       =    -0.00 Bohr mag/cell
     absolute magnetization    =     0.00 Bohr mag/cell

     iteration #  4     ecut=    40.00 Ry     beta= 0.50
     Davidson diagonalization with overlap
     ethr =  1.63E-06,  avg # of iterations =  2.3

     total cpu time spent up to now is       45.1 secs

     total energy              =     -87.84333664 Ry
     estimated scf accuracy    <       0.00006339 Ry

     total magnetization       =    -0.00 Bohr mag/cell
     absolute magnetization    =     0.00 Bohr mag/cell

     iteration #  5     ecut=    40.00 Ry     beta= 0.50
     Davidson diagonalization with overlap
     ethr =  5.76E-07,  avg # of iterations =  1.0

     total cpu time spent up to now is       45.7 secs

     total energy              =     -87.84334722 Ry
     estimated scf accuracy    <       0.00000005 Ry

     total magnetization       =    -0.00 Bohr mag/cell
     absolute magnetization    =     0.00 Bohr mag/cell

     iteration #  6     ecut=    40.00 Ry     beta= 0.50
     Davidson diagonalization with overlap
     ethr =  4.66E-10,  avg # of iterations =  2.8

     total cpu time spent up to now is       46.6 secs

     total energy              =     -87.84334728 Ry
     estimated scf accuracy    <       0.00000006 Ry

     total magnetization       =    -0.00 Bohr mag/cell
     absolute magnetization    =     0.00 Bohr mag/cell

     iteration #  7     ecut=    40.00 Ry     beta= 0.50
     Davidson diagonalization with overlap
     ethr =  4.66E-10,  avg # of iterations =  1.0

     total cpu time spent up to now is       47.2 secs

     total energy              =     -87.84334729 Ry
     estimated scf accuracy    <          3.0E-09 Ry

     total magnetization       =     0.00 Bohr mag/cell
     absolute magnetization    =     0.00 Bohr mag/cell

     iteration #  8     ecut=    40.00 Ry     beta= 0.50
     Davidson diagonalization with overlap
     ethr =  2.70E-11,  avg # of iterations =  1.1

     Magnetic moment per site  (integrated on atomic sphere of radius R)
     atom   1 (R=0.412)  charge=  9.7319  magn= -0.0000

     total cpu time spent up to now is       47.9 secs

     End of self-consistent calculation

     Number of k-points >= 100: set verbosity='high' to print the bands.

     the Fermi energy is    14.8312 ev

!    total energy              =     -87.84334729 Ry
     estimated scf accuracy    <          4.8E-12 Ry
     smearing contrib. (-TS)   =      -0.00007650 Ry
     internal energy E=F+TS    =     -87.84327079 Ry

     The total energy is F=E-TS. E is the sum of the following terms:
     one-electron contribution =      -9.83268072 Ry
     hartree contribution      =      18.74932728 Ry
     xc contribution           =     -14.06045754 Ry
     ewald contribution        =     -82.69945981 Ry

     total magnetization       =    -0.00 Bohr mag/cell
     absolute magnetization    =     0.00 Bohr mag/cell

     convergence has been achieved in   8 iterations

     Forces acting on atoms (cartesian axes, Ry/au):

     atom    1 type  1   force =     0.00000000    0.00000000    0.00000000
     The non-local contrib.  to forces
     atom    1 type  1   force =     0.00000000   -0.00000000   -0.00000000
     The ionic contribution  to forces
     atom    1 type  1   force =    -0.00000000   -0.00000000   -0.00000000
     The local contribution  to forces
     atom    1 type  1   force =    -0.00000000   -0.00000000    0.00000000
     The core correction contribution to forces
     atom    1 type  1   force =     0.00000000    0.00000000    0.00000000
     The Hubbard contrib.    to forces
     atom    1 type  1   force =     0.00000000    0.00000000    0.00000000
     The SCF correction term to forces
     atom    1 type  1   force =    -0.00000000   -0.00000000   -0.00000000

     Total force =     0.000000     Total SCF correction =     0.000000


     Computing stress (Cartesian axis) and pressure

          total   stress  (Ry/bohr**3)                   (kbar)     P=        0.30
   0.00000206  -0.00000000   0.00000000            0.30       -0.00        0.00
  -0.00000000   0.00000206   0.00000000           -0.00        0.30        0.00
   0.00000000   0.00000000   0.00000206            0.00        0.00        0.30


     init_run     :      0.56s CPU      0.66s WALL (       2 calls)
     electrons    :     43.61s CPU     45.00s WALL (       7 calls)
     update_pot   :      0.22s CPU      0.19s WALL (       4 calls)
     forces       :      0.57s CPU      0.56s WALL (       7 calls)
     stress       :      1.11s CPU      1.11s WALL (       7 calls)

     Called by init_run:
     wfcinit      :      0.24s CPU      0.32s WALL (       2 calls)
     potinit      :      0.16s CPU      0.15s WALL (       3 calls)
     hinit0       :      0.16s CPU      0.17s WALL (       2 calls)

     Called by electrons:
     c_bands      :     38.34s CPU     40.09s WALL (      62 calls)
     sum_band     :      4.85s CPU      4.50s WALL (      62 calls)
     v_of_rho     :      0.12s CPU      0.11s WALL (      68 calls)
     newd         :      0.14s CPU      0.13s WALL (      68 calls)
     mix_rho      :      0.07s CPU      0.07s WALL (      62 calls)

     Called by c_bands:
     init_us_2    :      0.76s CPU      0.72s WALL (   33600 calls)
     init_us_2:cp :      0.70s CPU      0.67s WALL (   33600 calls)
     cegterg      :     32.23s CPU     31.23s WALL (   14880 calls)

     Called by *egterg:
     cdiaghg      :      7.86s CPU      7.60s WALL (   41210 calls)
     h_psi        :     18.38s CPU     17.86s WALL (   43130 calls)
     s_psi        :      0.31s CPU      0.30s WALL (   43130 calls)
     g_psi        :      0.09s CPU      0.09s WALL (   27770 calls)

     Called by h_psi:
     h_psi:calbec :      1.79s CPU      1.74s WALL (   43130 calls)
     vloc_psi     :     15.99s CPU     15.55s WALL (   43130 calls)
     add_vuspsi   :      0.33s CPU      0.32s WALL (   43130 calls)

     General routines
     calbec       :      2.75s CPU      2.63s WALL (   66410 calls)
     fft          :      0.22s CPU      0.21s WALL (     760 calls)
     ffts         :      0.12s CPU      0.13s WALL (     260 calls)
     fftw         :     15.91s CPU     15.34s WALL (  874948 calls)
     interpolate  :      0.14s CPU      0.14s WALL (     136 calls)

     Parallel routines

     PWSCF        :     46.70s CPU     48.42s WALL


   This run was terminated on:  10:58:47   3Nov2023            

=------------------------------------------------------------------------------=
   JOB DONE.
=------------------------------------------------------------------------------=
