
     Program PWSCF v.7.2 starts on  3Nov2023 at 14:14: 9 

     This program is part of the open-source Quantum ESPRESSO suite
     for quantum simulation of materials; please cite
         "P. Giannozzi et al., J. Phys.:Condens. Matter 21 395502 (2009);
         "P. Giannozzi et al., J. Phys.:Condens. Matter 29 465901 (2017);
         "P. Giannozzi et al., J. Chem. Phys. 152 154105 (2020);
          URL http://www.quantum-espresso.org", 
     in publications or presentations arising from this work. More details at
     http://www.quantum-espresso.org/quote

     Parallel version (MPI), running on     8 processors

     MPI processes distributed on     8 nodes
     186955 MiB available memory on the printing compute node when the environment starts

     Waiting for input...
     Reading input from standard input

     Current dimensions of program PWSCF are:
     Max number of different atomic species (ntypx) = 10
     Max number of k-points (npk) =  40000
     Max angular momentum in pseudopotentials (lmaxx) =  4
     file Cu.pz-d-rrkjus.UPF: wavefunction(s)  3D renormalized
     Message from routine setup:
     using ibrav=0 with symmetry is DISCOURAGED, use correct ibrav instead

     R & G space division:  proc/nbgrp/npool/nimage =       8
     Subspace diagonalization in iterative solution of the eigenvalue problem:
     a serial algorithm will be used


     Parallelization info
     --------------------
     sticks:   dense  smooth     PW     G-vecs:    dense   smooth      PW
     Min          86      43     13                 2263      801     145
     Max          88      44     14                 2266      804     148
     Sum         697     349    109                18111     6423    1171

     Using Slab Decomposition



     bravais-lattice index     =            0
     lattice parameter (alat)  =       5.2270  a.u.
     unit-cell volume          =     187.0550 (a.u.)^3
     number of atoms/cell      =            2
     number of atomic types    =            2
     number of electrons       =        22.00
     number of Kohn-Sham states=           15
     kinetic-energy cutoff     =      40.0000  Ry
     charge density cutoff     =     320.0000  Ry
     scf convergence threshold =      1.0E-07
     mixing beta               =       0.5000
     number of iterations used =            8  plain     mixing
     energy convergence thresh.=      1.0E-04
     force convergence thresh. =      1.0E-03
     press convergence thresh. =      5.0E-01
     Exchange-correlation=  SLA  PZ   NOGX NOGC
                           (   1   1   0   0   0   0   0)
     nstep                     =           50


     celldm(1)=   5.226982  celldm(2)=   0.000000  celldm(3)=   0.000000
     celldm(4)=   0.000000  celldm(5)=   0.000000  celldm(6)=   0.000000

     crystal axes: (cart. coord. in units of alat)
               a(1) = (   1.000000   0.000000   0.000000 )  
               a(2) = (   0.000000   1.000000   0.000000 )  
               a(3) = (   0.000000   0.000000   1.309834 )  

     reciprocal axes: (cart. coord. in units 2 pi/alat)
               b(1) = (  1.000000  0.000000  0.000000 )  
               b(2) = (  0.000000  1.000000  0.000000 )  
               b(3) = (  0.000000  0.000000  0.763456 )  


     PseudoPot. # 1 for Au read from file:
     /home/gridsan/epan1/labutil/lab3_samples/pseudopotentials/Au.pz-d-rrkjus.UPF
     MD5 check sum: 424ffd4ac9c90487cbadcd287136c95b
     Pseudo is Ultrasoft, Zval = 11.0
     Generated by new atomic code, or converted to UPF format
     Using radial grid of 1279 points,  3 beta functions with: 
                l(1) =   2
                l(2) =   2
                l(3) =   1
     Q(r) pseudized with 0 coefficients 


     PseudoPot. # 2 for Cu read from file:
     /home/gridsan/epan1/labutil/lab3_samples/pseudopotentials/Cu.pz-d-rrkjus.UPF
     MD5 check sum: fd38ae683e239c95a66f426e1f8e5fc7
     Pseudo is Ultrasoft, Zval = 11.0
     Generated by new atomic code, or converted to UPF format
     Using radial grid of  899 points,  3 beta functions with: 
                l(1) =   2
                l(2) =   2
                l(3) =   1
     Q(r) pseudized with 0 coefficients 


     atomic species   valence    mass     pseudopotential
        Au            11.00   196.96657     Au( 1.00)
        Cu            11.00    63.54600     Cu( 1.00)

     Starting magnetic structure 
     atomic species   magnetization
        Au           0.700
        Cu           0.000

     16 Sym. Ops., with inversion, found



   Cartesian axes

     site n.     atom                  positions (alat units)
         1           Cu  tau(   1) = (   0.0000000   0.0000000   0.0000000  )
         2           Au  tau(   2) = (   0.5000000   0.5000000   0.6549168  )

     number of k points=    75  Methfessel-Paxton smearing, width (Ry)=  0.0200
                       cart. coord. in units 2pi/alat
        k(    1) = (   0.0000000   0.0000000   0.0000000), wk =   0.0013717
        k(    2) = (   0.0000000   0.0000000   0.0848284), wk =   0.0027435
        k(    3) = (   0.0000000   0.0000000   0.1696568), wk =   0.0027435
        k(    4) = (   0.0000000   0.0000000   0.2544852), wk =   0.0027435
        k(    5) = (   0.0000000   0.0000000   0.3393136), wk =   0.0027435
        k(    6) = (   0.0000000   0.1111111   0.0000000), wk =   0.0054870
        k(    7) = (   0.0000000   0.1111111   0.0848284), wk =   0.0109739
        k(    8) = (   0.0000000   0.1111111   0.1696568), wk =   0.0109739
        k(    9) = (   0.0000000   0.1111111   0.2544852), wk =   0.0109739
        k(   10) = (   0.0000000   0.1111111   0.3393136), wk =   0.0109739
        k(   11) = (   0.0000000   0.2222222   0.0000000), wk =   0.0054870
        k(   12) = (   0.0000000   0.2222222   0.0848284), wk =   0.0109739
        k(   13) = (   0.0000000   0.2222222   0.1696568), wk =   0.0109739
        k(   14) = (   0.0000000   0.2222222   0.2544852), wk =   0.0109739
        k(   15) = (   0.0000000   0.2222222   0.3393136), wk =   0.0109739
        k(   16) = (   0.0000000   0.3333333   0.0000000), wk =   0.0054870
        k(   17) = (   0.0000000   0.3333333   0.0848284), wk =   0.0109739
        k(   18) = (   0.0000000   0.3333333   0.1696568), wk =   0.0109739
        k(   19) = (   0.0000000   0.3333333   0.2544852), wk =   0.0109739
        k(   20) = (   0.0000000   0.3333333   0.3393136), wk =   0.0109739
        k(   21) = (   0.0000000   0.4444444   0.0000000), wk =   0.0054870
        k(   22) = (   0.0000000   0.4444444   0.0848284), wk =   0.0109739
        k(   23) = (   0.0000000   0.4444444   0.1696568), wk =   0.0109739
        k(   24) = (   0.0000000   0.4444444   0.2544852), wk =   0.0109739
        k(   25) = (   0.0000000   0.4444444   0.3393136), wk =   0.0109739
        k(   26) = (   0.1111111   0.1111111   0.0000000), wk =   0.0054870
        k(   27) = (   0.1111111   0.1111111   0.0848284), wk =   0.0109739
        k(   28) = (   0.1111111   0.1111111   0.1696568), wk =   0.0109739
        k(   29) = (   0.1111111   0.1111111   0.2544852), wk =   0.0109739
        k(   30) = (   0.1111111   0.1111111   0.3393136), wk =   0.0109739
        k(   31) = (   0.1111111   0.2222222   0.0000000), wk =   0.0109739
        k(   32) = (   0.1111111   0.2222222   0.0848284), wk =   0.0219479
        k(   33) = (   0.1111111   0.2222222   0.1696568), wk =   0.0219479
        k(   34) = (   0.1111111   0.2222222   0.2544852), wk =   0.0219479
        k(   35) = (   0.1111111   0.2222222   0.3393136), wk =   0.0219479
        k(   36) = (   0.1111111   0.3333333   0.0000000), wk =   0.0109739
        k(   37) = (   0.1111111   0.3333333   0.0848284), wk =   0.0219479
        k(   38) = (   0.1111111   0.3333333   0.1696568), wk =   0.0219479
        k(   39) = (   0.1111111   0.3333333   0.2544852), wk =   0.0219479
        k(   40) = (   0.1111111   0.3333333   0.3393136), wk =   0.0219479
        k(   41) = (   0.1111111   0.4444444   0.0000000), wk =   0.0109739
        k(   42) = (   0.1111111   0.4444444   0.0848284), wk =   0.0219479
        k(   43) = (   0.1111111   0.4444444   0.1696568), wk =   0.0219479
        k(   44) = (   0.1111111   0.4444444   0.2544852), wk =   0.0219479
        k(   45) = (   0.1111111   0.4444444   0.3393136), wk =   0.0219479
        k(   46) = (   0.2222222   0.2222222   0.0000000), wk =   0.0054870
        k(   47) = (   0.2222222   0.2222222   0.0848284), wk =   0.0109739
        k(   48) = (   0.2222222   0.2222222   0.1696568), wk =   0.0109739
        k(   49) = (   0.2222222   0.2222222   0.2544852), wk =   0.0109739
        k(   50) = (   0.2222222   0.2222222   0.3393136), wk =   0.0109739
        k(   51) = (   0.2222222   0.3333333   0.0000000), wk =   0.0109739
        k(   52) = (   0.2222222   0.3333333   0.0848284), wk =   0.0219479
        k(   53) = (   0.2222222   0.3333333   0.1696568), wk =   0.0219479
        k(   54) = (   0.2222222   0.3333333   0.2544852), wk =   0.0219479
        k(   55) = (   0.2222222   0.3333333   0.3393136), wk =   0.0219479
        k(   56) = (   0.2222222   0.4444444   0.0000000), wk =   0.0109739
        k(   57) = (   0.2222222   0.4444444   0.0848284), wk =   0.0219479
        k(   58) = (   0.2222222   0.4444444   0.1696568), wk =   0.0219479
        k(   59) = (   0.2222222   0.4444444   0.2544852), wk =   0.0219479
        k(   60) = (   0.2222222   0.4444444   0.3393136), wk =   0.0219479
        k(   61) = (   0.3333333   0.3333333   0.0000000), wk =   0.0054870
        k(   62) = (   0.3333333   0.3333333   0.0848284), wk =   0.0109739
        k(   63) = (   0.3333333   0.3333333   0.1696568), wk =   0.0109739
        k(   64) = (   0.3333333   0.3333333   0.2544852), wk =   0.0109739
        k(   65) = (   0.3333333   0.3333333   0.3393136), wk =   0.0109739
        k(   66) = (   0.3333333   0.4444444   0.0000000), wk =   0.0109739
        k(   67) = (   0.3333333   0.4444444   0.0848284), wk =   0.0219479
        k(   68) = (   0.3333333   0.4444444   0.1696568), wk =   0.0219479
        k(   69) = (   0.3333333   0.4444444   0.2544852), wk =   0.0219479
        k(   70) = (   0.3333333   0.4444444   0.3393136), wk =   0.0219479
        k(   71) = (   0.4444444   0.4444444   0.0000000), wk =   0.0054870
        k(   72) = (   0.4444444   0.4444444   0.0848284), wk =   0.0109739
        k(   73) = (   0.4444444   0.4444444   0.1696568), wk =   0.0109739
        k(   74) = (   0.4444444   0.4444444   0.2544852), wk =   0.0109739
        k(   75) = (   0.4444444   0.4444444   0.3393136), wk =   0.0109739

     Dense  grid:    18111 G-vectors     FFT dimensions: (  30,  30,  40)

     Smooth grid:     6423 G-vectors     FFT dimensions: (  24,  24,  27)

     Estimated max dynamical RAM per process >      11.51 MB

     Estimated total dynamical RAM >      92.08 MB
     Generating pointlists ...
     new r_m :   0.3976 (alat units)  2.0781 (a.u.) for type    1
     new r_m :   0.3976 (alat units)  2.0781 (a.u.) for type    2

     Initial potential from superposition of free atoms

     starting charge      21.9996, renormalised to      22.0000
     Starting wfcs are   15 randomized atomic wfcs

     total cpu time spent up to now is        1.0 secs

     Self-consistent Calculation

     iteration #  1     ecut=    40.00 Ry     beta= 0.50
     Davidson diagonalization with overlap
     ethr =  1.00E-02,  avg # of iterations =  4.1

     total cpu time spent up to now is        2.5 secs

     total energy              =    -154.23949460 Ry
     estimated scf accuracy    <       0.72175358 Ry

     total magnetization       =     1.23 Bohr mag/cell
     absolute magnetization    =     1.49 Bohr mag/cell

     iteration #  2     ecut=    40.00 Ry     beta= 0.50
     Davidson diagonalization with overlap
     ethr =  3.28E-03,  avg # of iterations =  2.0

     total cpu time spent up to now is        3.6 secs

     total energy              =    -154.55191545 Ry
     estimated scf accuracy    <       0.36878204 Ry

     total magnetization       =     0.29 Bohr mag/cell
     absolute magnetization    =     0.56 Bohr mag/cell

     iteration #  3     ecut=    40.00 Ry     beta= 0.50
     Davidson diagonalization with overlap
     ethr =  1.68E-03,  avg # of iterations =  1.4

     total cpu time spent up to now is        4.6 secs

     total energy              =    -154.66759341 Ry
     estimated scf accuracy    <       0.08830711 Ry

     total magnetization       =     0.26 Bohr mag/cell
     absolute magnetization    =     0.50 Bohr mag/cell

     iteration #  4     ecut=    40.00 Ry     beta= 0.50
     Davidson diagonalization with overlap
     ethr =  4.01E-04,  avg # of iterations =  1.8

     total cpu time spent up to now is        5.7 secs

     total energy              =    -154.71894116 Ry
     estimated scf accuracy    <       0.03437704 Ry

     total magnetization       =     0.13 Bohr mag/cell
     absolute magnetization    =     0.34 Bohr mag/cell

     iteration #  5     ecut=    40.00 Ry     beta= 0.50
     Davidson diagonalization with overlap
     ethr =  1.56E-04,  avg # of iterations =  2.0

     total cpu time spent up to now is        6.9 secs

     total energy              =    -154.72941218 Ry
     estimated scf accuracy    <       0.00648217 Ry

     total magnetization       =    -0.02 Bohr mag/cell
     absolute magnetization    =     0.05 Bohr mag/cell

     iteration #  6     ecut=    40.00 Ry     beta= 0.50
     Davidson diagonalization with overlap
     c_bands:  1 eigenvalues not converged
     ethr =  2.95E-05,  avg # of iterations =  2.8

     total cpu time spent up to now is        8.1 secs

     total energy              =    -154.73109798 Ry
     estimated scf accuracy    <       0.00036004 Ry

     total magnetization       =    -0.01 Bohr mag/cell
     absolute magnetization    =     0.02 Bohr mag/cell

     iteration #  7     ecut=    40.00 Ry     beta= 0.50
     Davidson diagonalization with overlap
     c_bands:  1 eigenvalues not converged
     ethr =  1.64E-06,  avg # of iterations =  3.9

     total cpu time spent up to now is        9.5 secs

     total energy              =    -154.73116502 Ry
     estimated scf accuracy    <       0.00007096 Ry

     total magnetization       =     0.00 Bohr mag/cell
     absolute magnetization    =     0.01 Bohr mag/cell

     iteration #  8     ecut=    40.00 Ry     beta= 0.50
     Davidson diagonalization with overlap
     ethr =  3.23E-07,  avg # of iterations =  1.5

     total cpu time spent up to now is       10.5 secs

     total energy              =    -154.73117701 Ry
     estimated scf accuracy    <       0.00000252 Ry

     total magnetization       =    -0.00 Bohr mag/cell
     absolute magnetization    =     0.00 Bohr mag/cell

     iteration #  9     ecut=    40.00 Ry     beta= 0.50
     Davidson diagonalization with overlap
     ethr =  1.15E-08,  avg # of iterations =  2.0

     Magnetic moment per site  (integrated on atomic sphere of radius R)
     atom   1 (R=0.398)  charge= 10.0441  magn=  0.0000
     atom   2 (R=0.398)  charge=  8.8262  magn=  0.0001

     total cpu time spent up to now is       12.0 secs

     End of self-consistent calculation

     Number of k-points >= 100: set verbosity='high' to print the bands.

     the Fermi energy is    15.9179 ev

!    total energy              =    -154.73117761 Ry
     estimated scf accuracy    <       0.00000004 Ry
     smearing contrib. (-TS)   =       0.00012750 Ry
     internal energy E=F+TS    =    -154.73130510 Ry

     The total energy is F=E-TS. E is the sum of the following terms:
     one-electron contribution =      -3.77758227 Ry
     hartree contribution      =      27.58083759 Ry
     xc contribution           =     -24.55883655 Ry
     ewald contribution        =    -153.97572388 Ry

     total magnetization       =    -0.00 Bohr mag/cell
     absolute magnetization    =     0.00 Bohr mag/cell

     convergence has been achieved in   9 iterations

     Forces acting on atoms (cartesian axes, Ry/au):

     atom    1 type  2   force =     0.00000000    0.00000000    0.00000000
     atom    2 type  1   force =     0.00000000    0.00000000    0.00000000
     The non-local contrib.  to forces
     atom    1 type  2   force =     0.00000000    0.00000000    0.00000000
     atom    2 type  1   force =     0.00000000    0.00000000    0.00000000
     The ionic contribution  to forces
     atom    1 type  2   force =    -0.00000000   -0.00000000   -0.00000000
     atom    2 type  1   force =     0.00000000    0.00000000    0.00000000
     The local contribution  to forces
     atom    1 type  2   force =     0.00000000    0.00000000    0.00000000
     atom    2 type  1   force =    -0.00000000   -0.00000000   -0.00000000
     The core correction contribution to forces
     atom    1 type  2   force =     0.00000000    0.00000000    0.00000000
     atom    2 type  1   force =     0.00000000    0.00000000    0.00000000
     The Hubbard contrib.    to forces
     atom    1 type  2   force =     0.00000000    0.00000000    0.00000000
     atom    2 type  1   force =     0.00000000    0.00000000    0.00000000
     The SCF correction term to forces
     atom    1 type  2   force =    -0.00000000    0.00000000   -0.00000000
     atom    2 type  1   force =    -0.00000000    0.00000000   -0.00000000

     Total force =     0.000000     Total SCF correction =     0.000000


     Computing stress (Cartesian axis) and pressure

          total   stress  (Ry/bohr**3)                   (kbar)     P=        9.79
   0.00006624   0.00000000   0.00000000            9.74        0.00        0.00
   0.00000000   0.00006624   0.00000000            0.00        9.74        0.00
   0.00000000   0.00000000   0.00006716            0.00        0.00        9.88


     BFGS Geometry Optimization
     Energy error            =      0.0E+00 Ry
     Gradient error          =      0.0E+00 Ry/Bohr
     Cell gradient error     =      9.9E+00 kbar

     number of scf cycles    =   1
     number of bfgs steps    =   0

     enthalpy           new  =    -154.7311776055 Ry

     new trust radius        =       0.0045928052 bohr
     new conv_thr            =       0.0000001000 Ry

     new unit-cell volume =    187.99017 a.u.^3 (    27.85727 Ang^3 )
     density =     15.52885 g/cm^3

CELL_PARAMETERS (angstrom)
   2.770580753   0.000000000   0.000000000
   0.000000000   2.770580753   0.000000000
   0.000000000   0.000000000   3.629083195

ATOMIC_POSITIONS (angstrom)
Cu            0.0000000000        0.0000000000        0.0000000000
Au            1.3852903767        1.3852903767        1.8145415974



     Writing config-only to output data dir /home/gridsan/epan1/labutil/lab3_samples/problem3/Lab3/CuAu_a_2.766_c_3.623_ecut_40_nk_9/pwscf.save/
     NEW-OLD atomic charge density approx. for the potential
     extrapolated charge   22.10944, renormalised to   22.00000
     Generating pointlists ...

     total cpu time spent up to now is       13.1 secs

     Self-consistent Calculation

     iteration #  1     ecut=    40.00 Ry     beta= 0.50
     Davidson diagonalization with overlap
     ethr =  1.00E-06,  avg # of iterations =  3.0

     total cpu time spent up to now is       14.7 secs

     total energy              =    -154.72701890 Ry
     estimated scf accuracy    <       0.00419137 Ry

     total magnetization       =     0.00 Bohr mag/cell
     absolute magnetization    =     0.00 Bohr mag/cell

     iteration #  2     ecut=    40.00 Ry     beta= 0.50
     Davidson diagonalization with overlap
     ethr =  1.91E-05,  avg # of iterations =  2.0

     total cpu time spent up to now is       16.0 secs

     total energy              =    -154.73060000 Ry
     estimated scf accuracy    <       0.01268049 Ry

     total magnetization       =     0.00 Bohr mag/cell
     absolute magnetization    =     0.00 Bohr mag/cell

     iteration #  3     ecut=    40.00 Ry     beta= 0.50
     Davidson diagonalization with overlap
     ethr =  1.91E-05,  avg # of iterations =  2.0

     total cpu time spent up to now is       17.2 secs

     total energy              =    -154.73135330 Ry
     estimated scf accuracy    <       0.00153346 Ry

     total magnetization       =     0.00 Bohr mag/cell
     absolute magnetization    =     0.00 Bohr mag/cell

     iteration #  4     ecut=    40.00 Ry     beta= 0.50
     Davidson diagonalization with overlap
     ethr =  6.97E-06,  avg # of iterations =  1.0

     total cpu time spent up to now is       18.2 secs

     total energy              =    -154.73123663 Ry
     estimated scf accuracy    <       0.00073285 Ry

     total magnetization       =     0.00 Bohr mag/cell
     absolute magnetization    =     0.00 Bohr mag/cell

     iteration #  5     ecut=    40.00 Ry     beta= 0.50
     Davidson diagonalization with overlap
     ethr =  3.33E-06,  avg # of iterations =  1.0

     total cpu time spent up to now is       19.1 secs

     total energy              =    -154.73128340 Ry
     estimated scf accuracy    <       0.00023184 Ry

     total magnetization       =     0.00 Bohr mag/cell
     absolute magnetization    =     0.00 Bohr mag/cell

     iteration #  6     ecut=    40.00 Ry     beta= 0.50
     Davidson diagonalization with overlap
     ethr =  1.05E-06,  avg # of iterations =  1.0

     total cpu time spent up to now is       20.1 secs

     total energy              =    -154.73125494 Ry
     estimated scf accuracy    <       0.00031739 Ry

     total magnetization       =     0.00 Bohr mag/cell
     absolute magnetization    =     0.00 Bohr mag/cell

     iteration #  7     ecut=    40.00 Ry     beta= 0.50
     Davidson diagonalization with overlap
     ethr =  1.05E-06,  avg # of iterations =  1.0

     total cpu time spent up to now is       21.1 secs

     total energy              =    -154.73117449 Ry
     estimated scf accuracy    <       0.00020904 Ry

     total magnetization       =     0.00 Bohr mag/cell
     absolute magnetization    =     0.00 Bohr mag/cell

     iteration #  8     ecut=    40.00 Ry     beta= 0.50
     Davidson diagonalization with overlap
     ethr =  9.50E-07,  avg # of iterations =  1.8

     total cpu time spent up to now is       22.2 secs

     total energy              =    -154.73120305 Ry
     estimated scf accuracy    <       0.00000205 Ry

     total magnetization       =     0.00 Bohr mag/cell
     absolute magnetization    =     0.00 Bohr mag/cell

     iteration #  9     ecut=    40.00 Ry     beta= 0.50
     Davidson diagonalization with overlap
     ethr =  9.32E-09,  avg # of iterations =  2.1

     total cpu time spent up to now is       23.7 secs

     total energy              =    -154.73120411 Ry
     estimated scf accuracy    <       0.00000081 Ry

     total magnetization       =     0.00 Bohr mag/cell
     absolute magnetization    =     0.00 Bohr mag/cell

     iteration # 10     ecut=    40.00 Ry     beta= 0.50
     Davidson diagonalization with overlap
     ethr =  3.67E-09,  avg # of iterations =  1.0

     total cpu time spent up to now is       24.9 secs

     total energy              =    -154.73120413 Ry
     estimated scf accuracy    <       0.00000014 Ry

     total magnetization       =     0.00 Bohr mag/cell
     absolute magnetization    =     0.00 Bohr mag/cell

     iteration # 11     ecut=    40.00 Ry     beta= 0.50
     Davidson diagonalization with overlap
     ethr =  6.54E-10,  avg # of iterations =  1.1

     Magnetic moment per site  (integrated on atomic sphere of radius R)
     atom   1 (R=0.398)  charge= 10.0369  magn= -0.0000
     atom   2 (R=0.398)  charge=  8.8215  magn=  0.0000

     total cpu time spent up to now is       26.0 secs

     End of self-consistent calculation

     Number of k-points >= 100: set verbosity='high' to print the bands.

     the Fermi energy is    15.8069 ev

!    total energy              =    -154.73120413 Ry
     estimated scf accuracy    <       0.00000004 Ry
     smearing contrib. (-TS)   =       0.00013497 Ry
     internal energy E=F+TS    =    -154.73133910 Ry

     The total energy is F=E-TS. E is the sum of the following terms:
     one-electron contribution =      -4.14882147 Ry
     hartree contribution      =      27.68881134 Ry
     xc contribution           =     -24.55135259 Ry
     ewald contribution        =    -153.71997639 Ry

     total magnetization       =     0.00 Bohr mag/cell
     absolute magnetization    =     0.00 Bohr mag/cell

     convergence has been achieved in  11 iterations

     Forces acting on atoms (cartesian axes, Ry/au):

     atom    1 type  2   force =     0.00000000    0.00000000    0.00000000
     atom    2 type  1   force =     0.00000000    0.00000000    0.00000000
     The non-local contrib.  to forces
     atom    1 type  2   force =     0.00000000    0.00000000    0.00000000
     atom    2 type  1   force =     0.00000000    0.00000000    0.00000000
     The ionic contribution  to forces
     atom    1 type  2   force =    -0.00000000   -0.00000000   -0.00000000
     atom    2 type  1   force =    -0.00000000   -0.00000000   -0.00000000
     The local contribution  to forces
     atom    1 type  2   force =     0.00000000    0.00000000    0.00000000
     atom    2 type  1   force =     0.00000000    0.00000000   -0.00000000
     The core correction contribution to forces
     atom    1 type  2   force =     0.00000000    0.00000000    0.00000000
     atom    2 type  1   force =     0.00000000    0.00000000    0.00000000
     The Hubbard contrib.    to forces
     atom    1 type  2   force =     0.00000000    0.00000000    0.00000000
     atom    2 type  1   force =     0.00000000    0.00000000    0.00000000
     The SCF correction term to forces
     atom    1 type  2   force =     0.00000000   -0.00000000   -0.00000000
     atom    2 type  1   force =    -0.00000000   -0.00000000   -0.00000000

     Total force =     0.000000     Total SCF correction =     0.000000


     Computing stress (Cartesian axis) and pressure

          total   stress  (Ry/bohr**3)                   (kbar)     P=       -1.45
  -0.00001214   0.00000000   0.00000000           -1.79        0.00        0.00
   0.00000000  -0.00001214   0.00000000            0.00       -1.79        0.00
   0.00000000   0.00000000  -0.00000530            0.00        0.00       -0.78

     Energy error            =      2.7E-05 Ry
     Gradient error          =      0.0E+00 Ry/Bohr
     Cell gradient error     =      1.8E+00 kbar

     number of scf cycles    =   2
     number of bfgs steps    =   1

     enthalpy           old  =    -154.7311776055 Ry
     enthalpy           new  =    -154.7312041251 Ry

     CASE: enthalpy          _new < enthalpy          _old

     new trust radius        =       0.0007174613 bohr
     new conv_thr            =       0.0000000010 Ry

     new unit-cell volume =    187.87070 a.u.^3 (    27.83957 Ang^3 )
     density =     15.53872 g/cm^3

CELL_PARAMETERS (angstrom)
   2.769855864   0.000000000   0.000000000
   0.000000000   2.769855864   0.000000000
   0.000000000   0.000000000   3.628675389

ATOMIC_POSITIONS (angstrom)
Cu            0.0000000000        0.0000000000        0.0000000000
Au            1.3849279320        1.3849279320        1.8143376946



     Writing config-only to output data dir /home/gridsan/epan1/labutil/lab3_samples/problem3/Lab3/CuAu_a_2.766_c_3.623_ecut_40_nk_9/pwscf.save/
     NEW-OLD atomic charge density approx. for the potential
     extrapolated charge   21.98601, renormalised to   22.00000
     Generating pointlists ...

     total cpu time spent up to now is       27.1 secs

     Self-consistent Calculation

     iteration #  1     ecut=    40.00 Ry     beta= 0.50
     Davidson diagonalization with overlap
     ethr =  1.00E-06,  avg # of iterations =  2.0

     total cpu time spent up to now is       28.5 secs

     total energy              =    -154.73114181 Ry
     estimated scf accuracy    <       0.00006287 Ry

     total magnetization       =     0.00 Bohr mag/cell
     absolute magnetization    =     0.00 Bohr mag/cell

     iteration #  2     ecut=    40.00 Ry     beta= 0.50
     Davidson diagonalization with overlap
     ethr =  2.86E-07,  avg # of iterations =  2.0

     total cpu time spent up to now is       29.8 secs

     total energy              =    -154.73119243 Ry
     estimated scf accuracy    <       0.00020497 Ry

     total magnetization       =     0.00 Bohr mag/cell
     absolute magnetization    =     0.00 Bohr mag/cell

     iteration #  3     ecut=    40.00 Ry     beta= 0.50
     Davidson diagonalization with overlap
     ethr =  2.86E-07,  avg # of iterations =  2.0

     total cpu time spent up to now is       31.0 secs

     total energy              =    -154.73120659 Ry
     estimated scf accuracy    <       0.00002068 Ry

     total magnetization       =     0.00 Bohr mag/cell
     absolute magnetization    =     0.00 Bohr mag/cell

     iteration #  4     ecut=    40.00 Ry     beta= 0.50
     Davidson diagonalization with overlap
     ethr =  9.40E-08,  avg # of iterations =  1.0

     total cpu time spent up to now is       32.0 secs

     total energy              =    -154.73120431 Ry
     estimated scf accuracy    <       0.00001038 Ry

     total magnetization       =     0.00 Bohr mag/cell
     absolute magnetization    =     0.00 Bohr mag/cell

     iteration #  5     ecut=    40.00 Ry     beta= 0.50
     Davidson diagonalization with overlap
     ethr =  4.72E-08,  avg # of iterations =  1.0

     total cpu time spent up to now is       33.0 secs

     total energy              =    -154.73120400 Ry
     estimated scf accuracy    <       0.00000193 Ry

     total magnetization       =     0.00 Bohr mag/cell
     absolute magnetization    =     0.00 Bohr mag/cell

     iteration #  6     ecut=    40.00 Ry     beta= 0.50
     Davidson diagonalization with overlap
     ethr =  8.76E-09,  avg # of iterations =  2.0

     total cpu time spent up to now is       34.1 secs

     total energy              =    -154.73120449 Ry
     estimated scf accuracy    <       0.00000003 Ry

     total magnetization       =     0.00 Bohr mag/cell
     absolute magnetization    =     0.00 Bohr mag/cell

     iteration #  7     ecut=    40.00 Ry     beta= 0.50
     Davidson diagonalization with overlap
     ethr =  1.52E-10,  avg # of iterations =  2.1

     total cpu time spent up to now is       35.4 secs

     total energy              =    -154.73120435 Ry
     estimated scf accuracy    <       0.00000028 Ry

     total magnetization       =     0.00 Bohr mag/cell
     absolute magnetization    =     0.00 Bohr mag/cell

     iteration #  8     ecut=    40.00 Ry     beta= 0.50
     Davidson diagonalization with overlap
     ethr =  1.52E-10,  avg # of iterations =  2.6

     total cpu time spent up to now is       36.9 secs

     total energy              =    -154.73120443 Ry
     estimated scf accuracy    <       0.00000006 Ry

     total magnetization       =     0.00 Bohr mag/cell
     absolute magnetization    =     0.00 Bohr mag/cell

     iteration #  9     ecut=    40.00 Ry     beta= 0.50
     Davidson diagonalization with overlap
     ethr =  1.52E-10,  avg # of iterations =  2.0

     Magnetic moment per site  (integrated on atomic sphere of radius R)
     atom   1 (R=0.398)  charge= 10.0378  magn= -0.0000
     atom   2 (R=0.398)  charge=  8.8220  magn=  0.0000

     total cpu time spent up to now is       38.3 secs

     End of self-consistent calculation

     Number of k-points >= 100: set verbosity='high' to print the bands.

     the Fermi energy is    15.8207 ev

!    total energy              =    -154.73120444 Ry
     estimated scf accuracy    <          3.5E-10 Ry
     smearing contrib. (-TS)   =       0.00013357 Ry
     internal energy E=F+TS    =    -154.73133801 Ry

     The total energy is F=E-TS. E is the sum of the following terms:
     one-electron contribution =      -4.10170483 Ry
     hartree contribution      =      27.67527778 Ry
     xc contribution           =     -24.55233492 Ry
     ewald contribution        =    -153.75257604 Ry

     total magnetization       =    -0.00 Bohr mag/cell
     absolute magnetization    =     0.00 Bohr mag/cell

     convergence has been achieved in   9 iterations

     Forces acting on atoms (cartesian axes, Ry/au):

     atom    1 type  2   force =     0.00000000    0.00000000    0.00000000
     atom    2 type  1   force =     0.00000000    0.00000000    0.00000000
     The non-local contrib.  to forces
     atom    1 type  2   force =     0.00000000    0.00000000    0.00000000
     atom    2 type  1   force =     0.00000000    0.00000000    0.00000000
     The ionic contribution  to forces
     atom    1 type  2   force =     0.00000000    0.00000000   -0.00000000
     atom    2 type  1   force =    -0.00000000   -0.00000000   -0.00000000
     The local contribution  to forces
     atom    1 type  2   force =     0.00000000    0.00000000    0.00000000
     atom    2 type  1   force =     0.00000000    0.00000000   -0.00000000
     The core correction contribution to forces
     atom    1 type  2   force =     0.00000000    0.00000000    0.00000000
     atom    2 type  1   force =     0.00000000    0.00000000    0.00000000
     The Hubbard contrib.    to forces
     atom    1 type  2   force =     0.00000000    0.00000000    0.00000000
     atom    2 type  1   force =     0.00000000    0.00000000    0.00000000
     The SCF correction term to forces
     atom    1 type  2   force =    -0.00000000    0.00000000    0.00000000
     atom    2 type  1   force =     0.00000000   -0.00000000   -0.00000000

     Total force =     0.000000     Total SCF correction =     0.000000


     Computing stress (Cartesian axis) and pressure

          total   stress  (Ry/bohr**3)                   (kbar)     P=        0.54
   0.00000201   0.00000000   0.00000000            0.30        0.00        0.00
   0.00000000   0.00000201   0.00000000            0.00        0.30        0.00
   0.00000000   0.00000000   0.00000694            0.00        0.00        1.02

     Energy error            =      3.1E-07 Ry
     Gradient error          =      0.0E+00 Ry/Bohr
     Cell gradient error     =      1.0E+00 kbar

     number of scf cycles    =   3
     number of bfgs steps    =   2

     enthalpy           old  =    -154.7312041251 Ry
     enthalpy           new  =    -154.7312044394 Ry

     CASE: enthalpy          _new < enthalpy          _old

     new trust radius        =       0.0003451646 bohr
     new conv_thr            =       0.0000000010 Ry

     new unit-cell volume =    187.89820 a.u.^3 (    27.84364 Ang^3 )
     density =     15.53645 g/cm^3

CELL_PARAMETERS (angstrom)
   2.769884162   0.000000000   0.000000000
   0.000000000   2.769884162   0.000000000
   0.000000000   0.000000000   3.629132283

ATOMIC_POSITIONS (angstrom)
Cu            0.0000000000        0.0000000000        0.0000000000
Au            1.3849420810        1.3849420810        1.8145661413



     Writing config-only to output data dir /home/gridsan/epan1/labutil/lab3_samples/problem3/Lab3/CuAu_a_2.766_c_3.623_ecut_40_nk_9/pwscf.save/
     NEW-OLD atomic charge density approx. for the potential
     extrapolated charge   22.00322, renormalised to   22.00000
     Generating pointlists ...

     total cpu time spent up to now is       39.4 secs

     Self-consistent Calculation

     iteration #  1     ecut=    40.00 Ry     beta= 0.50
     Davidson diagonalization with overlap
     ethr =  1.00E-06,  avg # of iterations =  2.0

     Threshold (ethr) on eigenvalues was too large:
     Diagonalizing with lowered threshold

     Davidson diagonalization with overlap
     ethr =  1.54E-08,  avg # of iterations =  1.0

     total cpu time spent up to now is       41.7 secs

     total energy              =    -154.73120108 Ry
     estimated scf accuracy    <       0.00000349 Ry

     total magnetization       =    -0.00 Bohr mag/cell
     absolute magnetization    =     0.00 Bohr mag/cell

     iteration #  2     ecut=    40.00 Ry     beta= 0.50
     Davidson diagonalization with overlap
     ethr =  1.59E-08,  avg # of iterations =  2.1

     total cpu time spent up to now is       43.0 secs

     total energy              =    -154.73120391 Ry
     estimated scf accuracy    <       0.00001117 Ry

     total magnetization       =    -0.00 Bohr mag/cell
     absolute magnetization    =     0.00 Bohr mag/cell

     iteration #  3     ecut=    40.00 Ry     beta= 0.50
     Davidson diagonalization with overlap
     ethr =  1.59E-08,  avg # of iterations =  2.0

     total cpu time spent up to now is       44.2 secs

     total energy              =    -154.73120466 Ry
     estimated scf accuracy    <       0.00000115 Ry

     total magnetization       =    -0.00 Bohr mag/cell
     absolute magnetization    =     0.00 Bohr mag/cell

     iteration #  4     ecut=    40.00 Ry     beta= 0.50
     Davidson diagonalization with overlap
     ethr =  5.23E-09,  avg # of iterations =  1.0

     total cpu time spent up to now is       45.2 secs

     total energy              =    -154.73120455 Ry
     estimated scf accuracy    <       0.00000057 Ry

     total magnetization       =    -0.00 Bohr mag/cell
     absolute magnetization    =     0.00 Bohr mag/cell

     iteration #  5     ecut=    40.00 Ry     beta= 0.50
     Davidson diagonalization with overlap
     ethr =  2.58E-09,  avg # of iterations =  1.0

     total cpu time spent up to now is       46.2 secs

     total energy              =    -154.73120451 Ry
     estimated scf accuracy    <       0.00000012 Ry

     total magnetization       =    -0.00 Bohr mag/cell
     absolute magnetization    =     0.00 Bohr mag/cell

     iteration #  6     ecut=    40.00 Ry     beta= 0.50
     Davidson diagonalization with overlap
     ethr =  5.35E-10,  avg # of iterations =  2.0

     total cpu time spent up to now is       47.4 secs

     total energy              =    -154.73120455 Ry
     estimated scf accuracy    <       0.00000002 Ry

     total magnetization       =    -0.00 Bohr mag/cell
     absolute magnetization    =     0.00 Bohr mag/cell

     iteration #  7     ecut=    40.00 Ry     beta= 0.50
     Davidson diagonalization with overlap
     ethr =  7.73E-11,  avg # of iterations =  1.0

     total cpu time spent up to now is       48.3 secs

     total energy              =    -154.73120455 Ry
     estimated scf accuracy    <       0.00000001 Ry

     total magnetization       =    -0.00 Bohr mag/cell
     absolute magnetization    =     0.00 Bohr mag/cell

     iteration #  8     ecut=    40.00 Ry     beta= 0.50
     Davidson diagonalization with overlap
     ethr =  5.25E-11,  avg # of iterations =  1.0

     total cpu time spent up to now is       49.4 secs

     total energy              =    -154.73120455 Ry
     estimated scf accuracy    <          2.5E-09 Ry

     total magnetization       =    -0.00 Bohr mag/cell
     absolute magnetization    =     0.00 Bohr mag/cell

     iteration #  9     ecut=    40.00 Ry     beta= 0.50
     Davidson diagonalization with overlap
     ethr =  1.14E-11,  avg # of iterations =  2.0

     Magnetic moment per site  (integrated on atomic sphere of radius R)
     atom   1 (R=0.398)  charge= 10.0376  magn=  0.0000
     atom   2 (R=0.398)  charge=  8.8219  magn=  0.0000

     total cpu time spent up to now is       50.5 secs

     End of self-consistent calculation

     Number of k-points >= 100: set verbosity='high' to print the bands.

     the Fermi energy is    15.8174 ev

!    total energy              =    -154.73120455 Ry
     estimated scf accuracy    <          4.4E-12 Ry
     smearing contrib. (-TS)   =       0.00013343 Ry
     internal energy E=F+TS    =    -154.73133797 Ry

     The total energy is F=E-TS. E is the sum of the following terms:
     one-electron contribution =      -4.11249236 Ry
     hartree contribution      =      27.67835242 Ry
     xc contribution           =     -24.55210480 Ry
     ewald contribution        =    -153.74509323 Ry

     total magnetization       =     0.00 Bohr mag/cell
     absolute magnetization    =     0.00 Bohr mag/cell

     convergence has been achieved in   9 iterations

     Forces acting on atoms (cartesian axes, Ry/au):

     atom    1 type  2   force =     0.00000000    0.00000000    0.00000000
     atom    2 type  1   force =     0.00000000    0.00000000    0.00000000
     The non-local contrib.  to forces
     atom    1 type  2   force =     0.00000000    0.00000000    0.00000000
     atom    2 type  1   force =     0.00000000    0.00000000    0.00000000
     The ionic contribution  to forces
     atom    1 type  2   force =     0.00000000    0.00000000   -0.00000000
     atom    2 type  1   force =     0.00000000    0.00000000   -0.00000000
     The local contribution  to forces
     atom    1 type  2   force =     0.00000000    0.00000000    0.00000000
     atom    2 type  1   force =     0.00000000    0.00000000   -0.00000000
     The core correction contribution to forces
     atom    1 type  2   force =     0.00000000    0.00000000    0.00000000
     atom    2 type  1   force =     0.00000000    0.00000000    0.00000000
     The Hubbard contrib.    to forces
     atom    1 type  2   force =     0.00000000    0.00000000    0.00000000
     atom    2 type  1   force =     0.00000000    0.00000000    0.00000000
     The SCF correction term to forces
     atom    1 type  2   force =    -0.00000000    0.00000000   -0.00000000
     atom    2 type  1   force =     0.00000000   -0.00000000   -0.00000000

     Total force =     0.000000     Total SCF correction =     0.000000


     Computing stress (Cartesian axis) and pressure

          total   stress  (Ry/bohr**3)                   (kbar)     P=        0.09
  -0.00000086   0.00000000   0.00000000           -0.13        0.00        0.00
   0.00000000  -0.00000086   0.00000000            0.00       -0.13        0.00
   0.00000000   0.00000000   0.00000363            0.00        0.00        0.53

     Energy error            =      1.1E-07 Ry
     Gradient error          =      0.0E+00 Ry/Bohr
     Cell gradient error     =      5.3E-01 kbar

     number of scf cycles    =   4
     number of bfgs steps    =   3

     enthalpy           old  =    -154.7312044394 Ry
     enthalpy           new  =    -154.7312045472 Ry

     CASE: enthalpy          _new < enthalpy          _old

     new trust radius        =       0.0006825188 bohr
     new conv_thr            =       0.0000000010 Ry

     new unit-cell volume =    187.91972 a.u.^3 (    27.84683 Ang^3 )
     density =     15.53467 g/cm^3

CELL_PARAMETERS (angstrom)
   2.769698043   0.000000000   0.000000000
   0.000000000   2.769698043   0.000000000
   0.000000000   0.000000000   3.630035778

ATOMIC_POSITIONS (angstrom)
Cu            0.0000000000        0.0000000000        0.0000000000
Au            1.3848490215        1.3848490215        1.8150178891



     Writing config-only to output data dir /home/gridsan/epan1/labutil/lab3_samples/problem3/Lab3/CuAu_a_2.766_c_3.623_ecut_40_nk_9/pwscf.save/
     NEW-OLD atomic charge density approx. for the potential
     extrapolated charge   22.00252, renormalised to   22.00000
     Generating pointlists ...

     total cpu time spent up to now is       51.8 secs

     Self-consistent Calculation

     iteration #  1     ecut=    40.00 Ry     beta= 0.50
     Davidson diagonalization with overlap
     ethr =  1.00E-06,  avg # of iterations =  2.0

     Threshold (ethr) on eigenvalues was too large:
     Diagonalizing with lowered threshold

     Davidson diagonalization with overlap
     ethr =  9.16E-09,  avg # of iterations =  1.0

     total cpu time spent up to now is       54.2 secs

     total energy              =    -154.73120261 Ry
     estimated scf accuracy    <       0.00000207 Ry

     total magnetization       =     0.00 Bohr mag/cell
     absolute magnetization    =     0.00 Bohr mag/cell

     iteration #  2     ecut=    40.00 Ry     beta= 0.50
     Davidson diagonalization with overlap
     ethr =  9.40E-09,  avg # of iterations =  2.1

     total cpu time spent up to now is       55.5 secs

     total energy              =    -154.73120432 Ry
     estimated scf accuracy    <       0.00000675 Ry

     total magnetization       =     0.00 Bohr mag/cell
     absolute magnetization    =     0.00 Bohr mag/cell

     iteration #  3     ecut=    40.00 Ry     beta= 0.50
     Davidson diagonalization with overlap
     ethr =  9.40E-09,  avg # of iterations =  2.0

     total cpu time spent up to now is       56.6 secs

     total energy              =    -154.73120477 Ry
     estimated scf accuracy    <       0.00000071 Ry

     total magnetization       =    -0.00 Bohr mag/cell
     absolute magnetization    =     0.00 Bohr mag/cell

     iteration #  4     ecut=    40.00 Ry     beta= 0.50
     Davidson diagonalization with overlap
     ethr =  3.25E-09,  avg # of iterations =  1.0

     total cpu time spent up to now is       57.6 secs

     total energy              =    -154.73120460 Ry
     estimated scf accuracy    <       0.00000035 Ry

     total magnetization       =    -0.00 Bohr mag/cell
     absolute magnetization    =     0.00 Bohr mag/cell

     iteration #  5     ecut=    40.00 Ry     beta= 0.50
     Davidson diagonalization with overlap
     ethr =  1.61E-09,  avg # of iterations =  2.0

     total cpu time spent up to now is       58.8 secs

     total energy              =    -154.73120470 Ry
     estimated scf accuracy    <       0.00000002 Ry

     total magnetization       =     0.00 Bohr mag/cell
     absolute magnetization    =     0.00 Bohr mag/cell

     iteration #  6     ecut=    40.00 Ry     beta= 0.50
     Davidson diagonalization with overlap
     ethr =  8.06E-11,  avg # of iterations =  1.1

     total cpu time spent up to now is       59.8 secs

     total energy              =    -154.73120469 Ry
     estimated scf accuracy    <          8.2E-09 Ry

     total magnetization       =     0.00 Bohr mag/cell
     absolute magnetization    =     0.00 Bohr mag/cell

     iteration #  7     ecut=    40.00 Ry     beta= 0.50
     Davidson diagonalization with overlap
     ethr =  3.71E-11,  avg # of iterations =  1.0

     total cpu time spent up to now is       60.8 secs

     total energy              =    -154.73120469 Ry
     estimated scf accuracy    <          3.6E-09 Ry

     total magnetization       =     0.00 Bohr mag/cell
     absolute magnetization    =     0.00 Bohr mag/cell

     iteration #  8     ecut=    40.00 Ry     beta= 0.50
     Davidson diagonalization with overlap
     ethr =  1.66E-11,  avg # of iterations =  1.9

     Magnetic moment per site  (integrated on atomic sphere of radius R)
     atom   1 (R=0.398)  charge= 10.0374  magn=  0.0000
     atom   2 (R=0.398)  charge=  8.8218  magn= -0.0000

     total cpu time spent up to now is       62.0 secs

     End of self-consistent calculation

     Number of k-points >= 100: set verbosity='high' to print the bands.

     the Fermi energy is    15.8144 ev

!    total energy              =    -154.73120469 Ry
     estimated scf accuracy    <          1.4E-11 Ry
     smearing contrib. (-TS)   =       0.00013261 Ry
     internal energy E=F+TS    =    -154.73133730 Ry

     The total energy is F=E-TS. E is the sum of the following terms:
     one-electron contribution =      -4.12089952 Ry
     hartree contribution      =      27.68077374 Ry
     xc contribution           =     -24.55194165 Ry
     ewald contribution        =    -153.73926987 Ry

     total magnetization       =    -0.00 Bohr mag/cell
     absolute magnetization    =     0.00 Bohr mag/cell

     convergence has been achieved in   8 iterations

     Forces acting on atoms (cartesian axes, Ry/au):

     atom    1 type  2   force =     0.00000000    0.00000000    0.00000000
     atom    2 type  1   force =     0.00000000    0.00000000    0.00000000
     The non-local contrib.  to forces
     atom    1 type  2   force =     0.00000000    0.00000000    0.00000000
     atom    2 type  1   force =     0.00000000    0.00000000    0.00000000
     The ionic contribution  to forces
     atom    1 type  2   force =     0.00000000    0.00000000   -0.00000000
     atom    2 type  1   force =     0.00000000    0.00000000   -0.00000000
     The local contribution  to forces
     atom    1 type  2   force =     0.00000000   -0.00000000    0.00000000
     atom    2 type  1   force =     0.00000000    0.00000000   -0.00000000
     The core correction contribution to forces
     atom    1 type  2   force =     0.00000000    0.00000000    0.00000000
     atom    2 type  1   force =     0.00000000    0.00000000    0.00000000
     The Hubbard contrib.    to forces
     atom    1 type  2   force =     0.00000000    0.00000000    0.00000000
     atom    2 type  1   force =     0.00000000    0.00000000    0.00000000
     The SCF correction term to forces
     atom    1 type  2   force =    -0.00000000   -0.00000000   -0.00000000
     atom    2 type  1   force =     0.00000000    0.00000000    0.00000000

     Total force =     0.000000     Total SCF correction =     0.000000


     Computing stress (Cartesian axis) and pressure

          total   stress  (Ry/bohr**3)                   (kbar)     P=       -0.14
  -0.00000196   0.00000000   0.00000000           -0.29        0.00        0.00
   0.00000000  -0.00000196   0.00000000            0.00       -0.29        0.00
   0.00000000   0.00000000   0.00000104            0.00        0.00        0.15

     Energy error            =      1.5E-07 Ry
     Gradient error          =      0.0E+00 Ry/Bohr
     Cell gradient error     =      2.9E-01 kbar
Begin final coordinates
     new unit-cell volume =    187.91972 a.u.^3 (    27.84683 Ang^3 )
     density =     15.53467 g/cm^3

CELL_PARAMETERS (angstrom)
   2.769698043   0.000000000   0.000000000
   0.000000000   2.769698043   0.000000000
   0.000000000   0.000000000   3.630035778

ATOMIC_POSITIONS (angstrom)
Cu            0.0000000000        0.0000000000        0.0000000000
Au            1.3848490215        1.3848490215        1.8150178891
End final coordinates



     Writing config-only to output data dir /home/gridsan/epan1/labutil/lab3_samples/problem3/Lab3/CuAu_a_2.766_c_3.623_ecut_40_nk_9/pwscf.save/

     lsda relaxation :  a final configuration with zero
                        absolute magnetization has been found

     the program is checking if it is really the minimum energy structure
     by performing a new scf iteration without any "electronic" history

     Initial potential from superposition of free atoms

     starting charge      21.9996, renormalised to      22.0000

     total cpu time spent up to now is       63.0 secs

     Self-consistent Calculation

     iteration #  1     ecut=    40.00 Ry     beta= 0.50
     Davidson diagonalization with overlap
     c_bands:  1 eigenvalues not converged
     ethr =  1.00E-06,  avg # of iterations =  7.8

     total cpu time spent up to now is       65.8 secs

     total energy              =    -154.22972801 Ry
     estimated scf accuracy    <       0.73516344 Ry

     total magnetization       =     1.24 Bohr mag/cell
     absolute magnetization    =     1.50 Bohr mag/cell

     iteration #  2     ecut=    40.00 Ry     beta= 0.50
     Davidson diagonalization with overlap
     ethr =  3.34E-03,  avg # of iterations =  2.0

     total cpu time spent up to now is       67.0 secs

     total energy              =    -154.54740498 Ry
     estimated scf accuracy    <       0.38856889 Ry

     total magnetization       =     0.28 Bohr mag/cell
     absolute magnetization    =     0.55 Bohr mag/cell

     iteration #  3     ecut=    40.00 Ry     beta= 0.50
     Davidson diagonalization with overlap
     ethr =  1.77E-03,  avg # of iterations =  1.2

     total cpu time spent up to now is       68.0 secs

     total energy              =    -154.66573892 Ry
     estimated scf accuracy    <       0.09041045 Ry

     total magnetization       =     0.27 Bohr mag/cell
     absolute magnetization    =     0.50 Bohr mag/cell

     iteration #  4     ecut=    40.00 Ry     beta= 0.50
     Davidson diagonalization with overlap
     ethr =  4.11E-04,  avg # of iterations =  1.7

     total cpu time spent up to now is       69.0 secs

     total energy              =    -154.71852516 Ry
     estimated scf accuracy    <       0.03555310 Ry

     total magnetization       =     0.14 Bohr mag/cell
     absolute magnetization    =     0.35 Bohr mag/cell

     iteration #  5     ecut=    40.00 Ry     beta= 0.50
     Davidson diagonalization with overlap
     ethr =  1.62E-04,  avg # of iterations =  1.6

     total cpu time spent up to now is       70.2 secs

     total energy              =    -154.72936053 Ry
     estimated scf accuracy    <       0.00702314 Ry

     total magnetization       =    -0.02 Bohr mag/cell
     absolute magnetization    =     0.05 Bohr mag/cell

     iteration #  6     ecut=    40.00 Ry     beta= 0.50
     Davidson diagonalization with overlap
     ethr =  3.19E-05,  avg # of iterations =  2.2

     total cpu time spent up to now is       71.4 secs

     total energy              =    -154.73112845 Ry
     estimated scf accuracy    <       0.00030615 Ry

     total magnetization       =    -0.01 Bohr mag/cell
     absolute magnetization    =     0.02 Bohr mag/cell

     iteration #  7     ecut=    40.00 Ry     beta= 0.50
     Davidson diagonalization with overlap
     ethr =  1.39E-06,  avg # of iterations =  3.2

     total cpu time spent up to now is       72.7 secs

     total energy              =    -154.73119174 Ry
     estimated scf accuracy    <       0.00007576 Ry

     total magnetization       =     0.00 Bohr mag/cell
     absolute magnetization    =     0.01 Bohr mag/cell

     iteration #  8     ecut=    40.00 Ry     beta= 0.50
     Davidson diagonalization with overlap
     ethr =  3.44E-07,  avg # of iterations =  1.5

     total cpu time spent up to now is       73.9 secs

     total energy              =    -154.73120398 Ry
     estimated scf accuracy    <       0.00000304 Ry

     total magnetization       =    -0.00 Bohr mag/cell
     absolute magnetization    =     0.00 Bohr mag/cell

     iteration #  9     ecut=    40.00 Ry     beta= 0.50
     Davidson diagonalization with overlap
     ethr =  1.38E-08,  avg # of iterations =  2.0

     total cpu time spent up to now is       75.1 secs

     total energy              =    -154.73120467 Ry
     estimated scf accuracy    <       0.00000006 Ry

     total magnetization       =    -0.00 Bohr mag/cell
     absolute magnetization    =     0.00 Bohr mag/cell

     iteration # 10     ecut=    40.00 Ry     beta= 0.50
     Davidson diagonalization with overlap
     ethr =  2.81E-10,  avg # of iterations =  2.1

     total cpu time spent up to now is       76.5 secs

     total energy              =    -154.73120469 Ry
     estimated scf accuracy    <       0.00000001 Ry

     total magnetization       =     0.00 Bohr mag/cell
     absolute magnetization    =     0.00 Bohr mag/cell

     iteration # 11     ecut=    40.00 Ry     beta= 0.50
     Davidson diagonalization with overlap
     ethr =  5.39E-11,  avg # of iterations =  1.7

     total cpu time spent up to now is       77.6 secs

     total energy              =    -154.73120469 Ry
     estimated scf accuracy    <          1.8E-09 Ry

     total magnetization       =     0.00 Bohr mag/cell
     absolute magnetization    =     0.00 Bohr mag/cell

     iteration # 12     ecut=    40.00 Ry     beta= 0.50
     Davidson diagonalization with overlap
     ethr =  8.11E-12,  avg # of iterations =  2.0

     Magnetic moment per site  (integrated on atomic sphere of radius R)
     atom   1 (R=0.398)  charge= 10.0374  magn=  0.0000
     atom   2 (R=0.398)  charge=  8.8218  magn=  0.0000

     total cpu time spent up to now is       78.8 secs

     End of self-consistent calculation

     Number of k-points >= 100: set verbosity='high' to print the bands.

     the Fermi energy is    15.8144 ev

!    total energy              =    -154.73120469 Ry
     estimated scf accuracy    <          5.8E-11 Ry
     smearing contrib. (-TS)   =       0.00013261 Ry
     internal energy E=F+TS    =    -154.73133730 Ry

     The total energy is F=E-TS. E is the sum of the following terms:
     one-electron contribution =      -4.12094684 Ry
     hartree contribution      =      27.68083107 Ry
     xc contribution           =     -24.55195166 Ry
     ewald contribution        =    -153.73926987 Ry

     total magnetization       =     0.00 Bohr mag/cell
     absolute magnetization    =     0.00 Bohr mag/cell

     convergence has been achieved in  12 iterations

     Forces acting on atoms (cartesian axes, Ry/au):

     atom    1 type  2   force =     0.00000000    0.00000000    0.00000000
     atom    2 type  1   force =     0.00000000    0.00000000    0.00000000
     The non-local contrib.  to forces
     atom    1 type  2   force =     0.00000000    0.00000000    0.00000000
     atom    2 type  1   force =     0.00000000    0.00000000    0.00000000
     The ionic contribution  to forces
     atom    1 type  2   force =     0.00000000    0.00000000   -0.00000000
     atom    2 type  1   force =     0.00000000    0.00000000   -0.00000000
     The local contribution  to forces
     atom    1 type  2   force =     0.00000000   -0.00000000    0.00000000
     atom    2 type  1   force =     0.00000000    0.00000000   -0.00000000
     The core correction contribution to forces
     atom    1 type  2   force =     0.00000000    0.00000000    0.00000000
     atom    2 type  1   force =     0.00000000    0.00000000    0.00000000
     The Hubbard contrib.    to forces
     atom    1 type  2   force =     0.00000000    0.00000000    0.00000000
     atom    2 type  1   force =     0.00000000    0.00000000    0.00000000
     The SCF correction term to forces
     atom    1 type  2   force =     0.00000000   -0.00000000   -0.00000000
     atom    2 type  1   force =     0.00000000    0.00000000   -0.00000000

     Total force =     0.000000     Total SCF correction =     0.000000


     Computing stress (Cartesian axis) and pressure

          total   stress  (Ry/bohr**3)                   (kbar)     P=       -0.04
  -0.00000128   0.00000000   0.00000000           -0.19        0.00        0.00
   0.00000000  -0.00000128   0.00000000            0.00       -0.19        0.00
   0.00000000   0.00000000   0.00000168            0.00        0.00        0.25

     Energy error            =      1.5E-07 Ry
     Gradient error          =      0.0E+00 Ry/Bohr
     Cell gradient error     =      2.5E-01 kbar

     bfgs converged in   5 scf cycles and   4 bfgs steps
     (criteria: energy <  1.0E-04 Ry, force <  1.0E-03 Ry/Bohr, cell <  5.0E-01 kbar)

     End of BFGS Geometry Optimization

     Final enthalpy           =    -154.7312046941 Ry

     File /home/gridsan/epan1/labutil/lab3_samples/problem3/Lab3/CuAu_a_2.766_c_3.623_ecut_40_nk_9/pwscf.bfgs deleted, as requested
Begin final coordinates
     new unit-cell volume =    187.91972 a.u.^3 (    27.84683 Ang^3 )
     density =     15.53467 g/cm^3

CELL_PARAMETERS (angstrom)
   2.769698043   0.000000000   0.000000000
   0.000000000   2.769698043   0.000000000
   0.000000000   0.000000000   3.630035778

ATOMIC_POSITIONS (angstrom)
Cu            0.0000000000        0.0000000000        0.0000000000
Au            1.3848490215        1.3848490215        1.8150178891
End final coordinates



     Writing config-only to output data dir /home/gridsan/epan1/labutil/lab3_samples/problem3/Lab3/CuAu_a_2.766_c_3.623_ecut_40_nk_9/pwscf.save/

     Final scf calculation at the relaxed structure.
     The G-vectors are recalculated for the final unit cell
     Results may differ from those at the preceding step.

     Parallelization info
     --------------------
     sticks:   dense  smooth     PW     G-vecs:    dense   smooth      PW
     Min          87      43     13                 2271      803     145
     Max          88      44     14                 2274      806     148
     Sum         697     349    109                18175     6439    1171

     Using Slab Decomposition



     bravais-lattice index     =            0
     lattice parameter (alat)  =       5.2270  a.u.
     unit-cell volume          =     187.9197 (a.u.)^3
     number of atoms/cell      =            2
     number of atomic types    =            2
     number of electrons       =        22.00
     number of Kohn-Sham states=           15
     kinetic-energy cutoff     =      40.0000  Ry
     charge density cutoff     =     320.0000  Ry
     scf convergence threshold =      1.0E-09
     mixing beta               =       0.5000
     number of iterations used =            8  plain     mixing
     press convergence thresh. =      5.0E-01
     Exchange-correlation=  SLA  PZ   NOGX NOGC
                           (   1   1   0   0   0   0   0)

     celldm(1)=   5.226982  celldm(2)=   0.000000  celldm(3)=   0.000000
     celldm(4)=   0.000000  celldm(5)=   0.000000  celldm(6)=   0.000000

     crystal axes: (cart. coord. in units of alat)
               a(1) = (   1.001337   0.000000   0.000000 )  
               a(2) = (   0.000000   1.001337   0.000000 )  
               a(3) = (   0.000000   0.000000   1.312377 )  

     reciprocal axes: (cart. coord. in units 2 pi/alat)
               b(1) = (  0.998665  0.000000  0.000000 )  
               b(2) = (  0.000000  0.998665  0.000000 )  
               b(3) = (  0.000000  0.000000  0.761976 )  


     PseudoPot. # 1 for Au read from file:
     /home/gridsan/epan1/labutil/lab3_samples/pseudopotentials/Au.pz-d-rrkjus.UPF
     MD5 check sum: 424ffd4ac9c90487cbadcd287136c95b
     Pseudo is Ultrasoft, Zval = 11.0
     Generated by new atomic code, or converted to UPF format
     Using radial grid of 1279 points,  3 beta functions with: 
                l(1) =   2
                l(2) =   2
                l(3) =   1
     Q(r) pseudized with 0 coefficients 


     PseudoPot. # 2 for Cu read from file:
     /home/gridsan/epan1/labutil/lab3_samples/pseudopotentials/Cu.pz-d-rrkjus.UPF
     MD5 check sum: fd38ae683e239c95a66f426e1f8e5fc7
     Pseudo is Ultrasoft, Zval = 11.0
     Generated by new atomic code, or converted to UPF format
     Using radial grid of  899 points,  3 beta functions with: 
                l(1) =   2
                l(2) =   2
                l(3) =   1
     Q(r) pseudized with 0 coefficients 


     atomic species   valence    mass     pseudopotential
        Au            11.00   196.96657     Au( 1.00)
        Cu            11.00    63.54600     Cu( 1.00)

     Starting magnetic structure 
     atomic species   magnetization
        Au           0.000
        Cu           0.000

     16 Sym. Ops., with inversion, found



   Cartesian axes

     site n.     atom                  positions (alat units)
         1           Cu  tau(   1) = (   0.0000000   0.0000000   0.0000000  )
         2           Au  tau(   2) = (   0.5006685   0.5006685   0.6561887  )

     number of k points=    75  Methfessel-Paxton smearing, width (Ry)=  0.0200
                       cart. coord. in units 2pi/alat
        k(    1) = (   0.0000000   0.0000000   0.0000000), wk =   0.0013717
        k(    2) = (   0.0000000   0.0000000   0.0846640), wk =   0.0027435
        k(    3) = (   0.0000000   0.0000000   0.1693280), wk =   0.0027435
        k(    4) = (   0.0000000   0.0000000   0.2539920), wk =   0.0027435
        k(    5) = (   0.0000000   0.0000000   0.3386560), wk =   0.0027435
        k(    6) = (   0.0000000   0.1109628   0.0000000), wk =   0.0054870
        k(    7) = (   0.0000000   0.1109628   0.0846640), wk =   0.0109739
        k(    8) = (   0.0000000   0.1109628   0.1693280), wk =   0.0109739
        k(    9) = (   0.0000000   0.1109628   0.2539920), wk =   0.0109739
        k(   10) = (   0.0000000   0.1109628   0.3386560), wk =   0.0109739
        k(   11) = (   0.0000000   0.2219255   0.0000000), wk =   0.0054870
        k(   12) = (   0.0000000   0.2219255   0.0846640), wk =   0.0109739
        k(   13) = (   0.0000000   0.2219255   0.1693280), wk =   0.0109739
        k(   14) = (   0.0000000   0.2219255   0.2539920), wk =   0.0109739
        k(   15) = (   0.0000000   0.2219255   0.3386560), wk =   0.0109739
        k(   16) = (   0.0000000   0.3328883   0.0000000), wk =   0.0054870
        k(   17) = (   0.0000000   0.3328883   0.0846640), wk =   0.0109739
        k(   18) = (   0.0000000   0.3328883   0.1693280), wk =   0.0109739
        k(   19) = (   0.0000000   0.3328883   0.2539920), wk =   0.0109739
        k(   20) = (   0.0000000   0.3328883   0.3386560), wk =   0.0109739
        k(   21) = (   0.0000000   0.4438510   0.0000000), wk =   0.0054870
        k(   22) = (   0.0000000   0.4438510   0.0846640), wk =   0.0109739
        k(   23) = (   0.0000000   0.4438510   0.1693280), wk =   0.0109739
        k(   24) = (   0.0000000   0.4438510   0.2539920), wk =   0.0109739
        k(   25) = (   0.0000000   0.4438510   0.3386560), wk =   0.0109739
        k(   26) = (   0.1109628   0.1109628   0.0000000), wk =   0.0054870
        k(   27) = (   0.1109628   0.1109628   0.0846640), wk =   0.0109739
        k(   28) = (   0.1109628   0.1109628   0.1693280), wk =   0.0109739
        k(   29) = (   0.1109628   0.1109628   0.2539920), wk =   0.0109739
        k(   30) = (   0.1109628   0.1109628   0.3386560), wk =   0.0109739
        k(   31) = (   0.1109628   0.2219255   0.0000000), wk =   0.0109739
        k(   32) = (   0.1109628   0.2219255   0.0846640), wk =   0.0219479
        k(   33) = (   0.1109628   0.2219255   0.1693280), wk =   0.0219479
        k(   34) = (   0.1109628   0.2219255   0.2539920), wk =   0.0219479
        k(   35) = (   0.1109628   0.2219255   0.3386560), wk =   0.0219479
        k(   36) = (   0.1109628   0.3328883   0.0000000), wk =   0.0109739
        k(   37) = (   0.1109628   0.3328883   0.0846640), wk =   0.0219479
        k(   38) = (   0.1109628   0.3328883   0.1693280), wk =   0.0219479
        k(   39) = (   0.1109628   0.3328883   0.2539920), wk =   0.0219479
        k(   40) = (   0.1109628   0.3328883   0.3386560), wk =   0.0219479
        k(   41) = (   0.1109628   0.4438510   0.0000000), wk =   0.0109739
        k(   42) = (   0.1109628   0.4438510   0.0846640), wk =   0.0219479
        k(   43) = (   0.1109628   0.4438510   0.1693280), wk =   0.0219479
        k(   44) = (   0.1109628   0.4438510   0.2539920), wk =   0.0219479
        k(   45) = (   0.1109628   0.4438510   0.3386560), wk =   0.0219479
        k(   46) = (   0.2219255   0.2219255   0.0000000), wk =   0.0054870
        k(   47) = (   0.2219255   0.2219255   0.0846640), wk =   0.0109739
        k(   48) = (   0.2219255   0.2219255   0.1693280), wk =   0.0109739
        k(   49) = (   0.2219255   0.2219255   0.2539920), wk =   0.0109739
        k(   50) = (   0.2219255   0.2219255   0.3386560), wk =   0.0109739
        k(   51) = (   0.2219255   0.3328883   0.0000000), wk =   0.0109739
        k(   52) = (   0.2219255   0.3328883   0.0846640), wk =   0.0219479
        k(   53) = (   0.2219255   0.3328883   0.1693280), wk =   0.0219479
        k(   54) = (   0.2219255   0.3328883   0.2539920), wk =   0.0219479
        k(   55) = (   0.2219255   0.3328883   0.3386560), wk =   0.0219479
        k(   56) = (   0.2219255   0.4438510   0.0000000), wk =   0.0109739
        k(   57) = (   0.2219255   0.4438510   0.0846640), wk =   0.0219479
        k(   58) = (   0.2219255   0.4438510   0.1693280), wk =   0.0219479
        k(   59) = (   0.2219255   0.4438510   0.2539920), wk =   0.0219479
        k(   60) = (   0.2219255   0.4438510   0.3386560), wk =   0.0219479
        k(   61) = (   0.3328883   0.3328883   0.0000000), wk =   0.0054870
        k(   62) = (   0.3328883   0.3328883   0.0846640), wk =   0.0109739
        k(   63) = (   0.3328883   0.3328883   0.1693280), wk =   0.0109739
        k(   64) = (   0.3328883   0.3328883   0.2539920), wk =   0.0109739
        k(   65) = (   0.3328883   0.3328883   0.3386560), wk =   0.0109739
        k(   66) = (   0.3328883   0.4438510   0.0000000), wk =   0.0109739
        k(   67) = (   0.3328883   0.4438510   0.0846640), wk =   0.0219479
        k(   68) = (   0.3328883   0.4438510   0.1693280), wk =   0.0219479
        k(   69) = (   0.3328883   0.4438510   0.2539920), wk =   0.0219479
        k(   70) = (   0.3328883   0.4438510   0.3386560), wk =   0.0219479
        k(   71) = (   0.4438510   0.4438510   0.0000000), wk =   0.0054870
        k(   72) = (   0.4438510   0.4438510   0.0846640), wk =   0.0109739
        k(   73) = (   0.4438510   0.4438510   0.1693280), wk =   0.0109739
        k(   74) = (   0.4438510   0.4438510   0.2539920), wk =   0.0109739
        k(   75) = (   0.4438510   0.4438510   0.3386560), wk =   0.0109739

     Dense  grid:    18175 G-vectors     FFT dimensions: (  30,  30,  40)

     Smooth grid:     6439 G-vectors     FFT dimensions: (  24,  24,  27)

     Estimated max dynamical RAM per process >      11.60 MB

     Estimated total dynamical RAM >      92.78 MB
     Generating pointlists ...

     Initial potential from superposition of free atoms

     starting charge      21.9996, renormalised to      22.0000
     Starting wfcs are   15 randomized atomic wfcs

     total cpu time spent up to now is       80.5 secs

     Self-consistent Calculation

     iteration #  1     ecut=    40.00 Ry     beta= 0.50
     Davidson diagonalization with overlap
     c_bands:  1 eigenvalues not converged
     c_bands:  1 eigenvalues not converged
     c_bands:  1 eigenvalues not converged
     c_bands:  1 eigenvalues not converged
     c_bands:  1 eigenvalues not converged
     c_bands:  1 eigenvalues not converged
     c_bands:  1 eigenvalues not converged
     c_bands:  1 eigenvalues not converged
     c_bands:  1 eigenvalues not converged
     c_bands:  1 eigenvalues not converged
     c_bands:  1 eigenvalues not converged
     c_bands:  1 eigenvalues not converged
     ethr =  1.00E-06,  avg # of iterations = 13.7

     total cpu time spent up to now is       84.2 secs

     total energy              =    -154.65120034 Ry
     estimated scf accuracy    <       0.27370632 Ry

     total magnetization       =     0.00 Bohr mag/cell
     absolute magnetization    =     0.00 Bohr mag/cell

     iteration #  2     ecut=    40.00 Ry     beta= 0.50
     Davidson diagonalization with overlap
     ethr =  1.24E-03,  avg # of iterations =  2.0

     total cpu time spent up to now is       85.5 secs

     total energy              =    -154.72199750 Ry
     estimated scf accuracy    <       0.03770602 Ry

     total magnetization       =     0.00 Bohr mag/cell
     absolute magnetization    =     0.00 Bohr mag/cell

     iteration #  3     ecut=    40.00 Ry     beta= 0.50
     Davidson diagonalization with overlap
     ethr =  1.71E-04,  avg # of iterations =  2.0

     total cpu time spent up to now is       86.7 secs

     total energy              =    -154.72974508 Ry
     estimated scf accuracy    <       0.00737714 Ry

     total magnetization       =     0.00 Bohr mag/cell
     absolute magnetization    =     0.00 Bohr mag/cell

     iteration #  4     ecut=    40.00 Ry     beta= 0.50
     Davidson diagonalization with overlap
     ethr =  3.35E-05,  avg # of iterations =  1.2

     total cpu time spent up to now is       87.7 secs

     total energy              =    -154.73114926 Ry
     estimated scf accuracy    <       0.00025741 Ry

     total magnetization       =     0.00 Bohr mag/cell
     absolute magnetization    =     0.00 Bohr mag/cell

     iteration #  5     ecut=    40.00 Ry     beta= 0.50
     Davidson diagonalization with overlap
     ethr =  1.17E-06,  avg # of iterations =  2.4

     total cpu time spent up to now is       88.9 secs

     total energy              =    -154.73119690 Ry
     estimated scf accuracy    <       0.00006807 Ry

     total magnetization       =     0.00 Bohr mag/cell
     absolute magnetization    =     0.00 Bohr mag/cell

     iteration #  6     ecut=    40.00 Ry     beta= 0.50
     Davidson diagonalization with overlap
     ethr =  3.09E-07,  avg # of iterations =  2.0

     total cpu time spent up to now is       90.0 secs

     total energy              =    -154.73121047 Ry
     estimated scf accuracy    <       0.00000073 Ry

     total magnetization       =     0.00 Bohr mag/cell
     absolute magnetization    =     0.00 Bohr mag/cell

     iteration #  7     ecut=    40.00 Ry     beta= 0.50
     Davidson diagonalization with overlap
     ethr =  3.31E-09,  avg # of iterations =  2.0

     total cpu time spent up to now is       91.5 secs

     total energy              =    -154.73121064 Ry
     estimated scf accuracy    <       0.00000002 Ry

     total magnetization       =     0.00 Bohr mag/cell
     absolute magnetization    =     0.00 Bohr mag/cell

     iteration #  8     ecut=    40.00 Ry     beta= 0.50
     Davidson diagonalization with overlap
     ethr =  7.88E-11,  avg # of iterations =  2.0

     total cpu time spent up to now is       92.8 secs

     total energy              =    -154.73121064 Ry
     estimated scf accuracy    <       0.00000001 Ry

     total magnetization       =     0.00 Bohr mag/cell
     absolute magnetization    =     0.00 Bohr mag/cell

     iteration #  9     ecut=    40.00 Ry     beta= 0.50
     Davidson diagonalization with overlap
     ethr =  5.66E-11,  avg # of iterations =  2.0

     Magnetic moment per site  (integrated on atomic sphere of radius R)
     atom   1 (R=0.398)  charge= 10.0374  magn= -0.0000
     atom   2 (R=0.398)  charge=  8.8218  magn= -0.0000

     total cpu time spent up to now is       94.0 secs

     End of self-consistent calculation

     Number of k-points >= 100: set verbosity='high' to print the bands.

     the Fermi energy is    15.8144 ev

!    total energy              =    -154.73121064 Ry
     estimated scf accuracy    <          2.1E-10 Ry
     smearing contrib. (-TS)   =       0.00013262 Ry
     internal energy E=F+TS    =    -154.73134326 Ry

     The total energy is F=E-TS. E is the sum of the following terms:
     one-electron contribution =      -4.12098233 Ry
     hartree contribution      =      27.68086130 Ry
     xc contribution           =     -24.55195237 Ry
     ewald contribution        =    -153.73926987 Ry

     total magnetization       =     0.00 Bohr mag/cell
     absolute magnetization    =     0.00 Bohr mag/cell

     convergence has been achieved in   9 iterations

     Forces acting on atoms (cartesian axes, Ry/au):

     atom    1 type  2   force =     0.00000000    0.00000000    0.00000000
     atom    2 type  1   force =     0.00000000    0.00000000    0.00000000
     The non-local contrib.  to forces
     atom    1 type  2   force =     0.00000000    0.00000000    0.00000000
     atom    2 type  1   force =     0.00000000    0.00000000    0.00000000
     The ionic contribution  to forces
     atom    1 type  2   force =     0.00000000    0.00000000   -0.00000000
     atom    2 type  1   force =    -0.00000000   -0.00000000    0.00000000
     The local contribution  to forces
     atom    1 type  2   force =     0.00000000   -0.00000000   -0.00000000
     atom    2 type  1   force =     0.00000000    0.00000000   -0.00000000
     The core correction contribution to forces
     atom    1 type  2   force =     0.00000000    0.00000000    0.00000000
     atom    2 type  1   force =     0.00000000    0.00000000    0.00000000
     The Hubbard contrib.    to forces
     atom    1 type  2   force =     0.00000000    0.00000000    0.00000000
     atom    2 type  1   force =     0.00000000    0.00000000    0.00000000
     The SCF correction term to forces
     atom    1 type  2   force =     0.00000000   -0.00000000   -0.00000000
     atom    2 type  1   force =     0.00000000    0.00000000   -0.00000000

     Total force =     0.000000     Total SCF correction =     0.000000


     Computing stress (Cartesian axis) and pressure

          total   stress  (Ry/bohr**3)                   (kbar)     P=        0.04
  -0.00000069   0.00000000   0.00000000           -0.10        0.00        0.00
   0.00000000  -0.00000069   0.00000000            0.00       -0.10        0.00
   0.00000000   0.00000000   0.00000225            0.00        0.00        0.33


     init_run     :      1.48s CPU      1.46s WALL (       2 calls)
     electrons    :     94.58s CPU     85.76s WALL (       7 calls)
     update_pot   :      0.82s CPU      0.81s WALL (       4 calls)
     forces       :      1.59s CPU      1.34s WALL (       7 calls)
     stress       :      5.26s CPU      4.75s WALL (       7 calls)

     Called by init_run:
     wfcinit      :      0.77s CPU      0.69s WALL (       2 calls)
     potinit      :      0.28s CPU      0.28s WALL (       3 calls)
     hinit0       :      0.44s CPU      0.45s WALL (       2 calls)

     Called by electrons:
     c_bands      :     79.27s CPU     72.32s WALL (      69 calls)
     sum_band     :     13.90s CPU     12.09s WALL (      69 calls)
     v_of_rho     :      0.32s CPU      0.28s WALL (      74 calls)
     newd         :      0.78s CPU      0.68s WALL (      74 calls)
     mix_rho      :      0.15s CPU      0.15s WALL (      69 calls)

     Called by c_bands:
     init_us_2    :      1.50s CPU      1.30s WALL (   23100 calls)
     init_us_2:cp :      1.46s CPU      1.26s WALL (   23100 calls)
     cegterg      :     71.60s CPU     62.66s WALL (   10350 calls)

     Called by *egterg:
     cdiaghg      :     13.58s CPU     11.91s WALL (   30701 calls)
     h_psi        :     48.94s CPU     42.88s WALL (   32051 calls)
     s_psi        :      0.79s CPU      0.69s WALL (   32051 calls)
     g_psi        :      0.21s CPU      0.19s WALL (   21401 calls)

     Called by h_psi:
     h_psi:calbec :      3.03s CPU      2.67s WALL (   32051 calls)
     vloc_psi     :     44.71s CPU     39.13s WALL (   32051 calls)
     add_vuspsi   :      0.85s CPU      0.77s WALL (   32051 calls)

     General routines
     calbec       :      4.63s CPU      4.01s WALL (   47651 calls)
     fft          :      0.44s CPU      0.44s WALL (     828 calls)
     ffts         :      0.15s CPU      0.15s WALL (     286 calls)
     fftw         :     48.87s CPU     42.63s WALL (  916008 calls)
     interpolate  :      0.15s CPU      0.15s WALL (     148 calls)

     Parallel routines

     PWSCF        :   1m44.19s CPU   1m34.87s WALL


   This run was terminated on:  14:15:44   3Nov2023            

=------------------------------------------------------------------------------=
   JOB DONE.
=------------------------------------------------------------------------------=
