
     Program PWSCF v.7.2 starts on  1Nov2023 at 16:59:11 

     This program is part of the open-source Quantum ESPRESSO suite
     for quantum simulation of materials; please cite
         "P. Giannozzi et al., J. Phys.:Condens. Matter 21 395502 (2009);
         "P. Giannozzi et al., J. Phys.:Condens. Matter 29 465901 (2017);
         "P. Giannozzi et al., J. Chem. Phys. 152 154105 (2020);
          URL http://www.quantum-espresso.org", 
     in publications or presentations arising from this work. More details at
     http://www.quantum-espresso.org/quote

     Parallel version (MPI), running on     4 processors

     MPI processes distributed on     4 nodes
     186613 MiB available memory on the printing compute node when the environment starts

     Waiting for input...
     Reading input from standard input
Warning: card &CELL ignored
Warning: card / ignored

     Current dimensions of program PWSCF are:
     Max number of different atomic species (ntypx) = 10
     Max number of k-points (npk) =  40000
     Max angular momentum in pseudopotentials (lmaxx) =  4
     file Fe.pbe-nd-rrkjus.UPF: wavefunction(s)  4S renormalized
     Message from routine setup:
     using ibrav=0 with symmetry is DISCOURAGED, use correct ibrav instead

     R & G space division:  proc/nbgrp/npool/nimage =       4
     Subspace diagonalization in iterative solution of the eigenvalue problem:
     a serial algorithm will be used


     Parallelization info
     --------------------
     sticks:   dense  smooth     PW     G-vecs:    dense   smooth      PW
     Min          52      27      9                 1008      361      77
     Max          53      28     10                 1013      366      82
     Sum         211     109     37                 4043     1449     313

     Using Slab Decomposition



     bravais-lattice index     =            0
     lattice parameter (alat)  =       3.5905  a.u.
     unit-cell volume          =      65.4595 (a.u.)^3
     number of atoms/cell      =            2
     number of atomic types    =            1
     number of electrons       =        16.00
     number of Kohn-Sham states=           12
     kinetic-energy cutoff     =      30.0000  Ry
     charge density cutoff     =     240.0000  Ry
     scf convergence threshold =      1.0E-07
     mixing beta               =       0.5000
     number of iterations used =            8  plain     mixing
     Exchange-correlation=  SLA  PW   PBE  PBE
                           (   1   4   3   4   0   0   0)

     celldm(1)=   3.590480  celldm(2)=   0.000000  celldm(3)=   0.000000
     celldm(4)=   0.000000  celldm(5)=   0.000000  celldm(6)=   0.000000

     crystal axes: (cart. coord. in units of alat)
               a(1) = (   1.000000   0.000000   0.000000 )  
               a(2) = (  -0.500000   0.866025   0.000000 )  
               a(3) = (   0.000000   0.000000   1.632993 )  

     reciprocal axes: (cart. coord. in units 2 pi/alat)
               b(1) = (  1.000000  0.577350 -0.000000 )  
               b(2) = (  0.000000  1.154701  0.000000 )  
               b(3) = (  0.000000 -0.000000  0.612372 )  


     PseudoPot. # 1 for Fe read from file:
     /home/gridsan/epan1/labutil/lab3_samples/pseudopotentials/Fe.pbe-nd-rrkjus.UPF
     MD5 check sum: 398036227a04b607635f6f5e8dfd8242
     Pseudo is Ultrasoft + core correction, Zval =  8.0
     Generated by new atomic code, or converted to UPF format
     Using radial grid of  957 points,  6 beta functions with: 
                l(1) =   0
                l(2) =   0
                l(3) =   1
                l(4) =   1
                l(5) =   2
                l(6) =   2
     Q(r) pseudized with 0 coefficients 


     atomic species   valence    mass     pseudopotential
        Fe             8.00    55.84500     Fe( 1.00)

     Starting magnetic structure 
     atomic species   magnetization
        Fe           0.700

     12 Sym. Ops. (no inversion) found



   Cartesian axes

     site n.     atom                  positions (alat units)
         1           Fe  tau(   1) = (   0.0000000   0.0000000   0.0000000  )
         2           Fe  tau(   2) = (   0.0000000   0.5773526   0.8164947  )

     number of k points=    84  Methfessel-Paxton smearing, width (Ry)=  0.0200
                       cart. coord. in units 2pi/alat
        k(    1) = (   0.0000000   0.0000000   0.0000000), wk =   0.0010000
        k(    2) = (   0.0000000   0.0000000   0.0612372), wk =   0.0020000
        k(    3) = (   0.0000000   0.0000000   0.1224745), wk =   0.0020000
        k(    4) = (   0.0000000   0.0000000   0.1837117), wk =   0.0020000
        k(    5) = (   0.0000000   0.0000000   0.2449490), wk =   0.0020000
        k(    6) = (   0.0000000   0.0000000  -0.3061862), wk =   0.0010000
        k(    7) = (   0.0000000   0.1154701   0.0000000), wk =   0.0060000
        k(    8) = (   0.0000000   0.1154701   0.0612372), wk =   0.0120000
        k(    9) = (   0.0000000   0.1154701   0.1224745), wk =   0.0120000
        k(   10) = (   0.0000000   0.1154701   0.1837117), wk =   0.0120000
        k(   11) = (   0.0000000   0.1154701   0.2449490), wk =   0.0120000
        k(   12) = (   0.0000000   0.1154701  -0.3061862), wk =   0.0060000
        k(   13) = (   0.0000000   0.2309401   0.0000000), wk =   0.0060000
        k(   14) = (   0.0000000   0.2309401   0.0612372), wk =   0.0120000
        k(   15) = (   0.0000000   0.2309401   0.1224745), wk =   0.0120000
        k(   16) = (   0.0000000   0.2309401   0.1837117), wk =   0.0120000
        k(   17) = (   0.0000000   0.2309401   0.2449490), wk =   0.0120000
        k(   18) = (   0.0000000   0.2309401  -0.3061862), wk =   0.0060000
        k(   19) = (   0.0000000   0.3464102   0.0000000), wk =   0.0060000
        k(   20) = (   0.0000000   0.3464102   0.0612372), wk =   0.0120000
        k(   21) = (   0.0000000   0.3464102   0.1224745), wk =   0.0120000
        k(   22) = (   0.0000000   0.3464102   0.1837117), wk =   0.0120000
        k(   23) = (   0.0000000   0.3464102   0.2449490), wk =   0.0120000
        k(   24) = (   0.0000000   0.3464102  -0.3061862), wk =   0.0060000
        k(   25) = (   0.0000000   0.4618802   0.0000000), wk =   0.0060000
        k(   26) = (   0.0000000   0.4618802   0.0612372), wk =   0.0120000
        k(   27) = (   0.0000000   0.4618802   0.1224745), wk =   0.0120000
        k(   28) = (   0.0000000   0.4618802   0.1837117), wk =   0.0120000
        k(   29) = (   0.0000000   0.4618802   0.2449490), wk =   0.0120000
        k(   30) = (   0.0000000   0.4618802  -0.3061862), wk =   0.0060000
        k(   31) = (   0.0000000  -0.5773503   0.0000000), wk =   0.0030000
        k(   32) = (   0.0000000  -0.5773503   0.0612372), wk =   0.0060000
        k(   33) = (   0.0000000  -0.5773503   0.1224745), wk =   0.0060000
        k(   34) = (   0.0000000  -0.5773503   0.1837117), wk =   0.0060000
        k(   35) = (   0.0000000  -0.5773503   0.2449490), wk =   0.0060000
        k(   36) = (   0.0000000  -0.5773503  -0.3061862), wk =   0.0030000
        k(   37) = (   0.1000000   0.1732051   0.0000000), wk =   0.0060000
        k(   38) = (   0.1000000   0.1732051   0.0612372), wk =   0.0120000
        k(   39) = (   0.1000000   0.1732051   0.1224745), wk =   0.0120000
        k(   40) = (   0.1000000   0.1732051   0.1837117), wk =   0.0120000
        k(   41) = (   0.1000000   0.1732051   0.2449490), wk =   0.0120000
        k(   42) = (   0.1000000   0.1732051  -0.3061862), wk =   0.0060000
        k(   43) = (   0.1000000   0.2886751   0.0000000), wk =   0.0120000
        k(   44) = (   0.1000000   0.2886751   0.0612372), wk =   0.0240000
        k(   45) = (   0.1000000   0.2886751   0.1224745), wk =   0.0240000
        k(   46) = (   0.1000000   0.2886751   0.1837117), wk =   0.0240000
        k(   47) = (   0.1000000   0.2886751   0.2449490), wk =   0.0240000
        k(   48) = (   0.1000000   0.2886751  -0.3061862), wk =   0.0120000
        k(   49) = (   0.1000000   0.4041452   0.0000000), wk =   0.0120000
        k(   50) = (   0.1000000   0.4041452   0.0612372), wk =   0.0240000
        k(   51) = (   0.1000000   0.4041452   0.1224745), wk =   0.0240000
        k(   52) = (   0.1000000   0.4041452   0.1837117), wk =   0.0240000
        k(   53) = (   0.1000000   0.4041452   0.2449490), wk =   0.0240000
        k(   54) = (   0.1000000   0.4041452  -0.3061862), wk =   0.0120000
        k(   55) = (   0.1000000   0.5196152   0.0000000), wk =   0.0120000
        k(   56) = (   0.1000000   0.5196152   0.0612372), wk =   0.0240000
        k(   57) = (   0.1000000   0.5196152   0.1224745), wk =   0.0240000
        k(   58) = (   0.1000000   0.5196152   0.1837117), wk =   0.0240000
        k(   59) = (   0.1000000   0.5196152   0.2449490), wk =   0.0240000
        k(   60) = (   0.1000000   0.5196152  -0.3061862), wk =   0.0120000
        k(   61) = (   0.2000000   0.3464102   0.0000000), wk =   0.0060000
        k(   62) = (   0.2000000   0.3464102   0.0612372), wk =   0.0120000
        k(   63) = (   0.2000000   0.3464102   0.1224745), wk =   0.0120000
        k(   64) = (   0.2000000   0.3464102   0.1837117), wk =   0.0120000
        k(   65) = (   0.2000000   0.3464102   0.2449490), wk =   0.0120000
        k(   66) = (   0.2000000   0.3464102  -0.3061862), wk =   0.0060000
        k(   67) = (   0.2000000   0.4618802   0.0000000), wk =   0.0120000
        k(   68) = (   0.2000000   0.4618802   0.0612372), wk =   0.0240000
        k(   69) = (   0.2000000   0.4618802   0.1224745), wk =   0.0240000
        k(   70) = (   0.2000000   0.4618802   0.1837117), wk =   0.0240000
        k(   71) = (   0.2000000   0.4618802   0.2449490), wk =   0.0240000
        k(   72) = (   0.2000000   0.4618802  -0.3061862), wk =   0.0120000
        k(   73) = (   0.2000000   0.5773503   0.0000000), wk =   0.0060000
        k(   74) = (   0.2000000   0.5773503   0.0612372), wk =   0.0120000
        k(   75) = (   0.2000000   0.5773503   0.1224745), wk =   0.0120000
        k(   76) = (   0.2000000   0.5773503   0.1837117), wk =   0.0120000
        k(   77) = (   0.2000000   0.5773503   0.2449490), wk =   0.0120000
        k(   78) = (   0.2000000   0.5773503  -0.3061862), wk =   0.0060000
        k(   79) = (   0.3000000   0.5196152   0.0000000), wk =   0.0060000
        k(   80) = (   0.3000000   0.5196152   0.0612372), wk =   0.0120000
        k(   81) = (   0.3000000   0.5196152   0.1224745), wk =   0.0120000
        k(   82) = (   0.3000000   0.5196152   0.1837117), wk =   0.0120000
        k(   83) = (   0.3000000   0.5196152   0.2449490), wk =   0.0120000
        k(   84) = (   0.3000000   0.5196152  -0.3061862), wk =   0.0060000

     Dense  grid:     4043 G-vectors     FFT dimensions: (  18,  18,  30)

     Smooth grid:     1449 G-vectors     FFT dimensions: (  15,  15,  24)

     Estimated max dynamical RAM per process >       6.79 MB

     Estimated total dynamical RAM >      27.17 MB
     Generating pointlists ...
     new r_m :   0.4125 (alat units)  1.4811 (a.u.) for type    1

     Initial potential from superposition of free atoms

     starting charge      15.9987, renormalised to      16.0000
     Starting wfcs are   12 randomized atomic wfcs

     total cpu time spent up to now is        1.0 secs

     Self-consistent Calculation

     iteration #  1     ecut=    30.00 Ry     beta= 0.50
     Davidson diagonalization with overlap
     ethr =  1.00E-02,  avg # of iterations =  3.7

     total cpu time spent up to now is        2.1 secs

     total energy              =    -109.89679216 Ry
     estimated scf accuracy    <       0.49210576 Ry

     total magnetization       =     3.37 Bohr mag/cell
     absolute magnetization    =     3.37 Bohr mag/cell

     iteration #  2     ecut=    30.00 Ry     beta= 0.50
     Davidson diagonalization with overlap
     ethr =  3.08E-03,  avg # of iterations =  1.0

     total cpu time spent up to now is        3.0 secs

     total energy              =    -110.07833646 Ry
     estimated scf accuracy    <       0.25338188 Ry

     total magnetization       =     1.97 Bohr mag/cell
     absolute magnetization    =     1.97 Bohr mag/cell

     iteration #  3     ecut=    30.00 Ry     beta= 0.50
     Davidson diagonalization with overlap
     ethr =  1.58E-03,  avg # of iterations =  2.0

     total cpu time spent up to now is        4.1 secs

     total energy              =    -110.27788260 Ry
     estimated scf accuracy    <       0.06790989 Ry

     total magnetization       =    -0.37 Bohr mag/cell
     absolute magnetization    =     0.37 Bohr mag/cell

     iteration #  4     ecut=    30.00 Ry     beta= 0.50
     Davidson diagonalization with overlap
     ethr =  4.24E-04,  avg # of iterations =  1.0

     total cpu time spent up to now is        5.0 secs

     total energy              =    -110.27464210 Ry
     estimated scf accuracy    <       0.02641154 Ry

     total magnetization       =    -0.22 Bohr mag/cell
     absolute magnetization    =     0.22 Bohr mag/cell

     iteration #  5     ecut=    30.00 Ry     beta= 0.50
     Davidson diagonalization with overlap
     ethr =  1.65E-04,  avg # of iterations =  1.9

     total cpu time spent up to now is        6.3 secs

     total energy              =    -110.28115742 Ry
     estimated scf accuracy    <       0.02469522 Ry

     total magnetization       =     0.03 Bohr mag/cell
     absolute magnetization    =     0.07 Bohr mag/cell

     iteration #  6     ecut=    30.00 Ry     beta= 0.50
     Davidson diagonalization with overlap
     ethr =  1.54E-04,  avg # of iterations =  1.0

     total cpu time spent up to now is        7.2 secs

     total energy              =    -110.28293127 Ry
     estimated scf accuracy    <       0.00190740 Ry

     total magnetization       =     0.06 Bohr mag/cell
     absolute magnetization    =     0.07 Bohr mag/cell

     iteration #  7     ecut=    30.00 Ry     beta= 0.50
     Davidson diagonalization with overlap
     ethr =  1.19E-05,  avg # of iterations =  2.4

     total cpu time spent up to now is        8.5 secs

     total energy              =    -110.28293865 Ry
     estimated scf accuracy    <       0.00051759 Ry

     total magnetization       =     0.07 Bohr mag/cell
     absolute magnetization    =     0.07 Bohr mag/cell

     iteration #  8     ecut=    30.00 Ry     beta= 0.50
     Davidson diagonalization with overlap
     ethr =  3.23E-06,  avg # of iterations =  3.1

     total cpu time spent up to now is       10.1 secs

     total energy              =    -110.28317048 Ry
     estimated scf accuracy    <       0.00000507 Ry

     total magnetization       =     0.02 Bohr mag/cell
     absolute magnetization    =     0.02 Bohr mag/cell

     iteration #  9     ecut=    30.00 Ry     beta= 0.50
     Davidson diagonalization with overlap
     ethr =  3.17E-08,  avg # of iterations = 10.3

     total cpu time spent up to now is       14.0 secs

     total energy              =    -110.28321020 Ry
     estimated scf accuracy    <       0.00000193 Ry

     total magnetization       =     0.01 Bohr mag/cell
     absolute magnetization    =     0.01 Bohr mag/cell

     iteration # 10     ecut=    30.00 Ry     beta= 0.50
     Davidson diagonalization with overlap
     ethr =  1.21E-08,  avg # of iterations =  1.8

     total cpu time spent up to now is       15.1 secs

     total energy              =    -110.28321118 Ry
     estimated scf accuracy    <       0.00000129 Ry

     total magnetization       =     0.00 Bohr mag/cell
     absolute magnetization    =     0.00 Bohr mag/cell

     iteration # 11     ecut=    30.00 Ry     beta= 0.50
     Davidson diagonalization with overlap
     ethr =  8.07E-09,  avg # of iterations =  1.5

     total cpu time spent up to now is       16.3 secs

     total energy              =    -110.28321174 Ry
     estimated scf accuracy    <       0.00000010 Ry

     total magnetization       =     0.00 Bohr mag/cell
     absolute magnetization    =     0.00 Bohr mag/cell

     iteration # 12     ecut=    30.00 Ry     beta= 0.50
     Davidson diagonalization with overlap
     ethr =  6.45E-10,  avg # of iterations =  3.7

     Magnetic moment per site  (integrated on atomic sphere of radius R)
     atom   1 (R=0.412)  charge=  6.1836  magn=  0.0002
     atom   2 (R=0.412)  charge=  6.1836  magn=  0.0002

     total cpu time spent up to now is       18.0 secs

     End of self-consistent calculation

     Number of k-points >= 100: set verbosity='high' to print the bands.

     the Fermi energy is    36.3826 ev

!    total energy              =    -110.28321181 Ry
     estimated scf accuracy    <          6.7E-09 Ry
     smearing contrib. (-TS)   =      -0.00065050 Ry
     internal energy E=F+TS    =    -110.28256132 Ry

     The total energy is F=E-TS. E is the sum of the following terms:
     one-electron contribution =      54.55023171 Ry
     hartree contribution      =       5.96964696 Ry
     xc contribution           =     -55.23072123 Ry
     ewald contribution        =    -115.57171876 Ry

     total magnetization       =     0.00 Bohr mag/cell
     absolute magnetization    =     0.00 Bohr mag/cell

     convergence has been achieved in  12 iterations

     Forces acting on atoms (cartesian axes, Ry/au):

     atom    1 type  1   force =     0.00000000    0.00000000    0.00000000
     atom    2 type  1   force =     0.00000000    0.00000000    0.00000000
     The non-local contrib.  to forces
     atom    1 type  1   force =     0.00000000    0.00000000    0.00000000
     atom    2 type  1   force =     0.00000000    0.00000000    0.00000000
     The ionic contribution  to forces
     atom    1 type  1   force =    -0.00000000    0.00000951   -0.00014784
     atom    2 type  1   force =    -0.00000000   -0.00000951    0.00014784
     The local contribution  to forces
     atom    1 type  1   force =    -0.00000000   -0.00000000   -0.00000000
     atom    2 type  1   force =     0.00000000   -0.00018115    0.00014120
     The core correction contribution to forces
     atom    1 type  1   force =     0.00000000   -0.00000005    0.00000022
     atom    2 type  1   force =     0.00000000   -0.00003776    0.00002933
     The Hubbard contrib.    to forces
     atom    1 type  1   force =     0.00000000    0.00000000    0.00000000
     atom    2 type  1   force =     0.00000000    0.00000000    0.00000000
     The SCF correction term to forces
     atom    1 type  1   force =    -0.00000000   -0.00000000    0.00000000
     atom    2 type  1   force =     0.00000000   -0.00000000    0.00000000

     Total force =     0.000000     Total SCF correction =     0.000000


     Computing stress (Cartesian axis) and pressure

          total   stress  (Ry/bohr**3)                   (kbar)     P=     9548.98
   0.06647798   0.00000000   0.00000000         9779.25        0.00        0.00
   0.00000000   0.06647798   0.00000000            0.00     9779.25        0.00
   0.00000000   0.00000000   0.06178206            0.00        0.00     9088.45


     init_run     :      0.54s CPU      0.58s WALL (       1 calls)
     electrons    :     10.78s CPU     16.97s WALL (       1 calls)
     forces       :      0.09s CPU      0.10s WALL (       1 calls)
     stress       :      0.42s CPU      0.44s WALL (       1 calls)

     Called by init_run:
     wfcinit      :      0.18s CPU      0.18s WALL (       1 calls)
     potinit      :      0.08s CPU      0.11s WALL (       1 calls)
     hinit0       :      0.26s CPU      0.26s WALL (       1 calls)

     Called by electrons:
     c_bands      :      9.63s CPU     15.50s WALL (      12 calls)
     sum_band     :      0.99s CPU      1.24s WALL (      12 calls)
     v_of_rho     :      0.05s CPU      0.07s WALL (      13 calls)
     newd         :      0.08s CPU      0.09s WALL (      13 calls)
     mix_rho      :      0.03s CPU      0.04s WALL (      12 calls)

     Called by c_bands:
     init_us_2    :      0.14s CPU      0.23s WALL (    4536 calls)
     init_us_2:cp :      0.13s CPU      0.22s WALL (    4536 calls)
     cegterg      :      7.43s CPU      8.71s WALL (    2016 calls)

     Called by *egterg:
     cdiaghg      :      2.34s CPU      3.13s WALL (    7605 calls)
     h_psi        :      3.96s CPU      4.25s WALL (    7773 calls)
     s_psi        :      0.14s CPU      0.14s WALL (    7773 calls)
     g_psi        :      0.02s CPU      0.02s WALL (    5589 calls)

     Called by h_psi:
     h_psi:calbec :      0.37s CPU      0.37s WALL (    7773 calls)
     vloc_psi     :      3.42s CPU      3.70s WALL (    7773 calls)
     add_vuspsi   :      0.12s CPU      0.13s WALL (    7773 calls)

     General routines
     calbec       :      0.59s CPU      0.62s WALL (   10629 calls)
     fft          :      0.15s CPU      0.18s WALL (     363 calls)
     ffts         :      0.07s CPU      0.08s WALL (      50 calls)
     fftw         :      3.46s CPU      3.86s WALL (  162668 calls)
     interpolate  :      0.07s CPU      0.10s WALL (      26 calls)

     Parallel routines

     PWSCF        :     12.22s CPU     18.54s WALL


   This run was terminated on:  16:59:30   1Nov2023            

=------------------------------------------------------------------------------=
   JOB DONE.
=------------------------------------------------------------------------------=
