
     Program PWSCF v.7.2 starts on  5Oct2023 at 13:23:20 

     This program is part of the open-source Quantum ESPRESSO suite
     for quantum simulation of materials; please cite
         "P. Giannozzi et al., J. Phys.:Condens. Matter 21 395502 (2009);
         "P. Giannozzi et al., J. Phys.:Condens. Matter 29 465901 (2017);
         "P. Giannozzi et al., J. Chem. Phys. 152 154105 (2020);
          URL http://www.quantum-espresso.org", 
     in publications or presentations arising from this work. More details at
     http://www.quantum-espresso.org/quote

     Parallel version (MPI), running on     1 processors

     MPI processes distributed on     1 nodes
     32727 MiB available memory on the printing compute node when the environment starts

     Waiting for input...
     Reading input from standard input
Warning: card &CELL ignored
Warning: card / ignored

     Current dimensions of program PWSCF are:
     Max number of different atomic species (ntypx) = 10
     Max number of k-points (npk) =  40000
     Max angular momentum in pseudopotentials (lmaxx) =  4
     file Ge.pz-dn-rrkjus_psl.0.2.2.UPF: wavefunction(s)  3D renormalized
     Message from routine setup:
     using ibrav=0 with symmetry is DISCOURAGED, use correct ibrav instead

     Subspace diagonalization in iterative solution of the eigenvalue problem:
     a serial algorithm will be used


     G-vector sticks info
     --------------------
     sticks:   dense  smooth     PW     G-vecs:    dense   smooth      PW
     Sum         367     367    121                 4645     4645     869

     Using Slab Decomposition



     bravais-lattice index     =            0
     lattice parameter (alat)  =       6.6812  a.u.
     unit-cell volume          =     210.8855 (a.u.)^3
     number of atoms/cell      =            2
     number of atomic types    =            1
     number of electrons       =        28.00
     number of Kohn-Sham states=           14
     kinetic-energy cutoff     =      30.0000  Ry
     charge density cutoff     =     120.0000  Ry
     scf convergence threshold =      1.0E-07
     mixing beta               =       0.5000
     number of iterations used =            8  plain     mixing
     Exchange-correlation= LDA
                           (   1   1   0   0   0   0   0)

     celldm(1)=   6.681191  celldm(2)=   0.000000  celldm(3)=   0.000000
     celldm(4)=   0.000000  celldm(5)=   0.000000  celldm(6)=   0.000000

     crystal axes: (cart. coord. in units of alat)
               a(1) = (   0.000000   0.707107   0.707107 )  
               a(2) = (   0.707107   0.000000   0.707107 )  
               a(3) = (   0.707107   0.707107   0.000000 )  

     reciprocal axes: (cart. coord. in units 2 pi/alat)
               b(1) = ( -0.707107  0.707107  0.707107 )  
               b(2) = (  0.707107 -0.707107  0.707107 )  
               b(3) = (  0.707107  0.707107 -0.707107 )  


     PseudoPot. # 1 for Ge read from file:
     /home/gridsan/epan1/Ge.pz-dn-rrkjus_psl.0.2.2.UPF
     MD5 check sum: 9948ad5293734715c8cf6021b6c26e6d
     Pseudo is Ultrasoft + core correction, Zval = 14.0
     Generated using "atomic" code by A. Dal Corso  v.5.0.2 svn rev. 9415
     Using radial grid of 1207 points,  6 beta functions with: 
                l(1) =   0
                l(2) =   0
                l(3) =   1
                l(4) =   1
                l(5) =   2
                l(6) =   2
     Q(r) pseudized with 0 coefficients 


     atomic species   valence    mass     pseudopotential
        Ge            14.00    72.61000     Ge( 1.00)

     48 Sym. Ops., with inversion, found (24 have fractional translation)



   Cartesian axes

     site n.     atom                  positions (alat units)
         1           Ge  tau(   1) = (   0.0000000   0.0000000   0.0000000  )
         2           Ge  tau(   2) = (   0.3535534   0.3535534   0.3535534  )

     number of k points=     8
                       cart. coord. in units 2pi/alat
        k(    1) = (   0.0000000   0.0000000   0.0000000), wk =   0.0312500
        k(    2) = (   0.1767767   0.1767767  -0.1767767), wk =   0.2500000
        k(    3) = (  -0.3535534  -0.3535534   0.3535534), wk =   0.1250000
        k(    4) = (   0.3535534   0.0000000   0.0000000), wk =   0.1875000
        k(    5) = (  -0.1767767  -0.5303301   0.5303301), wk =   0.7500000
        k(    6) = (   0.0000000  -0.3535534   0.3535534), wk =   0.3750000
        k(    7) = (  -0.7071068   0.0000000   0.0000000), wk =   0.0937500
        k(    8) = (  -0.7071068   0.3535534   0.0000000), wk =   0.1875000

     Dense  grid:     4645 G-vectors     FFT dimensions: (  24,  24,  24)

     Estimated max dynamical RAM per process >      19.45 MB

     Check: negative core charge=   -0.000280

     Initial potential from superposition of free atoms

     starting charge      27.9988, renormalised to      28.0000
     Starting wfcs are   18 randomized atomic wfcs

     total cpu time spent up to now is        7.1 secs

     Self-consistent Calculation

     iteration #  1     ecut=    30.00 Ry     beta= 0.50
     Davidson diagonalization with overlap
     ethr =  1.00E-02,  avg # of iterations =  2.0

     Threshold (ethr) on eigenvalues was too large:
     Diagonalizing with lowered threshold

     Davidson diagonalization with overlap
     ethr =  2.26E-04,  avg # of iterations =  1.9

     total cpu time spent up to now is       25.8 secs

     total energy              =    -421.61406915 Ry
     estimated scf accuracy    <       0.06529384 Ry

     iteration #  2     ecut=    30.00 Ry     beta= 0.50
     Davidson diagonalization with overlap
     ethr =  2.33E-04,  avg # of iterations =  1.2

     total cpu time spent up to now is       34.6 secs

     total energy              =    -421.61170746 Ry
     estimated scf accuracy    <       0.01061561 Ry

     iteration #  3     ecut=    30.00 Ry     beta= 0.50
     Davidson diagonalization with overlap
     ethr =  3.79E-05,  avg # of iterations =  2.0

     total cpu time spent up to now is       45.1 secs

     total energy              =    -421.61278400 Ry
     estimated scf accuracy    <       0.00011098 Ry

     iteration #  4     ecut=    30.00 Ry     beta= 0.50
     Davidson diagonalization with overlap
     ethr =  3.96E-07,  avg # of iterations =  3.0

     total cpu time spent up to now is       56.9 secs

     total energy              =    -421.61282721 Ry
     estimated scf accuracy    <       0.00001590 Ry

     iteration #  5     ecut=    30.00 Ry     beta= 0.50
     Davidson diagonalization with overlap
     ethr =  5.68E-08,  avg # of iterations =  2.0

     total cpu time spent up to now is       66.8 secs

     total energy              =    -421.61282900 Ry
     estimated scf accuracy    <       0.00000081 Ry

     iteration #  6     ecut=    30.00 Ry     beta= 0.50
     Davidson diagonalization with overlap
     ethr =  2.90E-09,  avg # of iterations =  2.6

     total cpu time spent up to now is       80.2 secs

     total energy              =    -421.61282931 Ry
     estimated scf accuracy    <       0.00000013 Ry

     iteration #  7     ecut=    30.00 Ry     beta= 0.50
     Davidson diagonalization with overlap
     ethr =  4.73E-10,  avg # of iterations =  2.2

     total cpu time spent up to now is       92.8 secs

     End of self-consistent calculation

          k = 0.0000 0.0000 0.0000 (   561 PWs)   bands (ev):

   -11.8195 -11.8195 -11.8195 -11.7148 -11.7148 -11.2050 -11.2050 -11.2050
   -11.1435 -11.1435  -2.1111  14.2009  14.2009  14.2009

          k = 0.1768 0.1768-0.1768 (   580 PWs)   bands (ev):

   -11.8614 -11.8614 -11.7981 -11.6686 -11.6686 -11.2601 -11.2601 -11.2543
   -11.1069 -11.1069  -1.0551   8.4166  12.8190  12.8190

          k =-0.3536-0.3536 0.3536 (   580 PWs)   bands (ev):

   -11.8698 -11.8698 -11.7768 -11.6431 -11.6431 -11.2662 -11.2662 -11.2593
   -11.1064 -11.1064   1.1097   4.1208  12.0880  12.0880

          k = 0.3536 0.0000 0.0000 (   576 PWs)   bands (ev):

   -11.8534 -11.8534 -11.8506 -11.6343 -11.5587 -11.4408 -11.2223 -11.1389
   -11.1389 -11.1243  -0.6911   9.2992  11.0075  11.0075

          k =-0.1768-0.5303 0.5303 (   584 PWs)   bands (ev):

   -11.9242 -11.8882 -11.7404 -11.5592 -11.5151 -11.4677 -11.3253 -11.2555
   -11.0768 -11.0386   1.5380   5.2020   8.6507  10.5068

          k = 0.0000-0.3536 0.3536 (   590 PWs)   bands (ev):

   -11.9127 -11.9021 -11.7190 -11.6329 -11.5527 -11.3706 -11.3404 -11.2725
   -11.0678 -11.0607   0.6170   6.4815   8.2653  11.8909

          k =-0.7071 0.0000 0.0000 (   588 PWs)   bands (ev):

   -11.8908 -11.8908 -11.7209 -11.7209 -11.4306 -11.4306 -11.2916 -11.2916
   -11.0615 -11.0615   3.4052   3.4052   9.5061   9.5061

          k =-0.7071 0.3536 0.0000 (   604 PWs)   bands (ev):

   -11.9354 -11.9354 -11.6029 -11.6029 -11.4706 -11.4706 -11.3763 -11.3763
   -11.0372 -11.0372   3.6859   3.6859   8.0596   8.0596

     highest occupied level (ev):    14.2009

!    total energy              =    -421.61282930 Ry
     estimated scf accuracy    <       0.00000005 Ry

     The total energy is the sum of the following terms:
     one-electron contribution =    -232.65420229 Ry
     hartree contribution      =     146.72750212 Ry
     xc contribution           =    -112.20138115 Ry
     ewald contribution        =    -223.48474799 Ry

     convergence has been achieved in   7 iterations

     Forces acting on atoms (cartesian axes, Ry/au):

     atom    1 type  1   force =     0.00000000    0.00000000    0.00000000
     atom    2 type  1   force =     0.00000000    0.00000000    0.00000000
     The non-local contrib.  to forces
     atom    1 type  1   force =     0.00000000   -0.00000000    0.00000000
     atom    2 type  1   force =    -0.00000000    0.00000000   -0.00000000
     The ionic contribution  to forces
     atom    1 type  1   force =     0.00000000    0.00000000    0.00000000
     atom    2 type  1   force =    -0.00000000   -0.00000000   -0.00000000
     The local contribution  to forces
     atom    1 type  1   force =     0.00000000   -0.00000000    0.00000000
     atom    2 type  1   force =    -0.00000000   -0.00000000   -0.00000000
     The core correction contribution to forces
     atom    1 type  1   force =    -0.00000000   -0.00000000   -0.00000000
     atom    2 type  1   force =    -0.00000000   -0.00000000   -0.00000000
     The Hubbard contrib.    to forces
     atom    1 type  1   force =     0.00000000    0.00000000    0.00000000
     atom    2 type  1   force =     0.00000000    0.00000000    0.00000000
     The SCF correction term to forces
     atom    1 type  1   force =     0.00000000   -0.00000000   -0.00000000
     atom    2 type  1   force =    -0.00000000    0.00000000    0.00000000

     Total force =     0.000000     Total SCF correction =     0.000000


     Computing stress (Cartesian axis) and pressure

          total   stress  (Ry/bohr**3)                   (kbar)     P=      348.75
   0.00237073   0.00000000   0.00000000          348.75        0.00        0.00
  -0.00000000   0.00237073   0.00000000           -0.00      348.75        0.00
   0.00000000  -0.00000000   0.00237073            0.00       -0.00      348.75


     Writing all to output data dir /home/gridsan/epan1/labutil/lab2_samples/pwscf.save/

     init_run     :      4.48s CPU      6.21s WALL (       1 calls)
     electrons    :     62.49s CPU     85.82s WALL (       1 calls)
     forces       :      0.80s CPU      0.85s WALL (       1 calls)
     stress       :      2.67s CPU      3.47s WALL (       1 calls)

     Called by init_run:
     wfcinit      :      3.86s CPU      5.41s WALL (       1 calls)
     potinit      :      0.00s CPU      0.01s WALL (       1 calls)
     hinit0       :      0.40s CPU      0.43s WALL (       1 calls)

     Called by electrons:
     c_bands      :     53.77s CPU     74.66s WALL (       8 calls)
     sum_band     :      5.98s CPU      7.41s WALL (       8 calls)
     v_of_rho     :      0.01s CPU      0.05s WALL (       8 calls)
     newd         :      2.78s CPU      3.70s WALL (       8 calls)
     mix_rho      :      0.00s CPU      0.03s WALL (       8 calls)

     Called by c_bands:
     init_us_2    :      0.31s CPU      0.62s WALL (     152 calls)
     init_us_2:cp :      0.21s CPU      0.39s WALL (     152 calls)
     cegterg      :     51.03s CPU     70.60s WALL (      64 calls)

     Called by *egterg:
     cdiaghg      :      0.87s CPU      1.44s WALL (     192 calls)
     h_psi        :     46.55s CPU     63.84s WALL (     208 calls)
     s_psi        :      2.79s CPU      4.26s WALL (     208 calls)
     g_psi        :      0.03s CPU      0.05s WALL (     136 calls)

     Called by h_psi:
     h_psi:calbec :     11.04s CPU     15.26s WALL (     208 calls)
     vloc_psi     :      7.97s CPU     10.12s WALL (     208 calls)
     add_vuspsi   :     27.15s CPU     37.83s WALL (     208 calls)

     General routines
     calbec       :     12.27s CPU     16.51s WALL (     312 calls)
     fft          :      0.16s CPU      0.18s WALL (      41 calls)
     ffts         :      0.00s CPU      0.01s WALL (       8 calls)
     fftw         :      6.61s CPU      8.64s WALL (    5616 calls)

     Parallel routines

     PWSCF        :   1m10.70s CPU   1m37.46s WALL


   This run was terminated on:  13:24:58   5Oct2023            

=------------------------------------------------------------------------------=
   JOB DONE.
=------------------------------------------------------------------------------=
