Header of the LAMMPS data file 

4 atoms 
1 atom types

0.0 3.8789473684210525  xlo xhi
0.0 3.8789473684210525  ylo yhi
0.0 3.8789473684210525  zlo zhi

Masses 

1  107.8682

Atoms # atomic 

1 1 0.00000 0.00000 0.00000 
2 1 0.00000 1.93947 1.93947 
3 1 1.93947 0.00000 1.93947 
4 1 1.93947 1.93947 0.00000 
