
     Program PWSCF v.7.2 starts on 31Oct2023 at 10:25:53 

     This program is part of the open-source Quantum ESPRESSO suite
     for quantum simulation of materials; please cite
         "P. Giannozzi et al., J. Phys.:Condens. Matter 21 395502 (2009);
         "P. Giannozzi et al., J. Phys.:Condens. Matter 29 465901 (2017);
         "P. Giannozzi et al., J. Chem. Phys. 152 154105 (2020);
          URL http://www.quantum-espresso.org", 
     in publications or presentations arising from this work. More details at
     http://www.quantum-espresso.org/quote

     Parallel version (MPI), running on     8 processors

     MPI processes distributed on     8 nodes
     186336 MiB available memory on the printing compute node when the environment starts

     Waiting for input...
     Reading input from standard input

     Current dimensions of program PWSCF are:
     Max number of different atomic species (ntypx) = 10
     Max number of k-points (npk) =  40000
     Max angular momentum in pseudopotentials (lmaxx) =  4
     file Fe.pbe-nd-rrkjus.UPF: wavefunction(s)  4S renormalized
     Message from routine find_sym:
     Not a group! Trying with lower acceptance parameter...
     Message from routine find_sym:
     Symmetry operations form a group
     Message from routine setup:
     using ibrav=0 with symmetry is DISCOURAGED, use correct ibrav instead

     R & G space division:  proc/nbgrp/npool/nimage =       8
     Subspace diagonalization in iterative solution of the eigenvalue problem:
     a serial algorithm will be used


     Parallelization info
     --------------------
     sticks:   dense  smooth     PW     G-vecs:    dense   smooth      PW
     Min          45      23      7                 1167      417      83
     Max          46      24      8                 1174      422      88
     Sum         367     187     61                 9369     3357     687

     Using Slab Decomposition



     bravais-lattice index     =            0
     lattice parameter (alat)  =       4.7243  a.u.
     unit-cell volume          =     149.1185 (a.u.)^3
     number of atoms/cell      =            2
     number of atomic types    =            1
     number of electrons       =        16.00
     number of Kohn-Sham states=           12
     kinetic-energy cutoff     =      30.0000  Ry
     charge density cutoff     =     240.0000  Ry
     scf convergence threshold =      1.0E-07
     mixing beta               =       0.5000
     number of iterations used =            8  plain     mixing
     energy convergence thresh.=      1.0E-04
     force convergence thresh. =      1.0E-03
     press convergence thresh. =      5.0E-01
     Exchange-correlation=  SLA  PW   PBE  PBE
                           (   1   4   3   4   0   0   0)
     nstep                     =           50


     celldm(1)=   4.724315  celldm(2)=   0.000000  celldm(3)=   0.000000
     celldm(4)=   0.000000  celldm(5)=   0.000000  celldm(6)=   0.000000

     crystal axes: (cart. coord. in units of alat)
               a(1) = (   1.000000   0.000000   0.000000 )  
               a(2) = (  -0.500000   0.866025   0.000000 )  
               a(3) = (   0.000000   0.000000   1.632993 )  

     reciprocal axes: (cart. coord. in units 2 pi/alat)
               b(1) = (  1.000000  0.577350 -0.000000 )  
               b(2) = (  0.000000  1.154701  0.000000 )  
               b(3) = (  0.000000 -0.000000  0.612372 )  


     PseudoPot. # 1 for Fe read from file:
     /home/gridsan/epan1/labutil/lab3_samples/pseudopotentials/Fe.pbe-nd-rrkjus.UPF
     MD5 check sum: 398036227a04b607635f6f5e8dfd8242
     Pseudo is Ultrasoft + core correction, Zval =  8.0
     Generated by new atomic code, or converted to UPF format
     Using radial grid of  957 points,  6 beta functions with: 
                l(1) =   0
                l(2) =   0
                l(3) =   1
                l(4) =   1
                l(5) =   2
                l(6) =   2
     Q(r) pseudized with 0 coefficients 


     atomic species   valence    mass     pseudopotential
        Fe             8.00    55.84500     Fe( 1.00)

     Starting magnetic structure 
     atomic species   magnetization
        Fe           0.700

      4 Sym. Ops. (no inversion) found



   Cartesian axes

     site n.     atom                  positions (alat units)
         1           Fe  tau(   1) = (   0.0000000   0.0000000   0.0000000  )
         2           Fe  tau(   2) = (  -0.0000000   0.5773520   0.8164960  )

     number of k points=    52  Methfessel-Paxton smearing, width (Ry)=  0.0200
                       cart. coord. in units 2pi/alat
        k(    1) = (   0.0000000   0.0000000   0.0000000), wk =   0.0046296
        k(    2) = (   0.0000000   0.0000000   0.1020621), wk =   0.0092593
        k(    3) = (   0.0000000   0.0000000   0.2041241), wk =   0.0092593
        k(    4) = (   0.0000000   0.0000000  -0.3061862), wk =   0.0046296
        k(    5) = (   0.0000000   0.1924501   0.0000000), wk =   0.0092593
        k(    6) = (   0.0000000   0.1924501   0.1020621), wk =   0.0185185
        k(    7) = (   0.0000000   0.1924501   0.2041241), wk =   0.0185185
        k(    8) = (   0.0000000   0.1924501  -0.3061862), wk =   0.0092593
        k(    9) = (   0.0000000   0.3849002   0.0000000), wk =   0.0092593
        k(   10) = (   0.0000000   0.3849002   0.1020621), wk =   0.0185185
        k(   11) = (   0.0000000   0.3849002   0.2041241), wk =   0.0185185
        k(   12) = (   0.0000000   0.3849002  -0.3061862), wk =   0.0092593
        k(   13) = (   0.0000000  -0.5773503   0.0000000), wk =   0.0046296
        k(   14) = (   0.0000000  -0.5773503   0.1020621), wk =   0.0092593
        k(   15) = (   0.0000000  -0.5773503   0.2041241), wk =   0.0092593
        k(   16) = (   0.0000000  -0.5773503  -0.3061862), wk =   0.0046296
        k(   17) = (   0.1666667   0.2886751   0.0000000), wk =   0.0185185
        k(   18) = (   0.1666667   0.2886751   0.1020621), wk =   0.0370370
        k(   19) = (   0.1666667   0.2886751   0.2041241), wk =   0.0370370
        k(   20) = (   0.1666667   0.2886751  -0.3061862), wk =   0.0185185
        k(   21) = (   0.1666667   0.4811252   0.0000000), wk =   0.0185185
        k(   22) = (   0.1666667   0.4811252   0.1020621), wk =   0.0370370
        k(   23) = (   0.1666667   0.4811252   0.2041241), wk =   0.0370370
        k(   24) = (   0.1666667   0.4811252  -0.3061862), wk =   0.0185185
        k(   25) = (   0.3333333   0.5773503   0.0000000), wk =   0.0092593
        k(   26) = (   0.3333333   0.5773503   0.1020621), wk =   0.0185185
        k(   27) = (   0.3333333   0.5773503   0.2041241), wk =   0.0185185
        k(   28) = (   0.3333333   0.5773503  -0.3061862), wk =   0.0092593
        k(   29) = (   0.1666667  -0.0962250   0.0000000), wk =   0.0185185
        k(   30) = (   0.1666667  -0.0962250   0.1020621), wk =   0.0370370
        k(   31) = (   0.1666667  -0.0962250   0.2041241), wk =   0.0370370
        k(   32) = (   0.1666667  -0.0962250  -0.3061862), wk =   0.0185185
        k(   33) = (   0.3333333  -0.1924501   0.0000000), wk =   0.0185185
        k(   34) = (   0.3333333  -0.1924501   0.1020621), wk =   0.0370370
        k(   35) = (   0.3333333  -0.1924501   0.2041241), wk =   0.0370370
        k(   36) = (   0.3333333  -0.1924501  -0.3061862), wk =   0.0185185
        k(   37) = (  -0.5000000   0.2886751   0.0000000), wk =   0.0092593
        k(   38) = (  -0.5000000   0.2886751   0.1020621), wk =   0.0185185
        k(   39) = (  -0.5000000   0.2886751   0.2041241), wk =   0.0185185
        k(   40) = (  -0.5000000   0.2886751  -0.3061862), wk =   0.0092593
        k(   41) = (   0.3333333  -0.0000000   0.0000000), wk =   0.0092593
        k(   42) = (   0.3333333  -0.0000000  -0.1020621), wk =   0.0185185
        k(   43) = (   0.3333333  -0.0000000  -0.2041241), wk =   0.0185185
        k(   44) = (   0.3333333  -0.0000000   0.3061862), wk =   0.0092593
        k(   45) = (   0.3333333  -0.3849002   0.0000000), wk =   0.0185185
        k(   46) = (   0.5000000  -0.0962250   0.0000000), wk =   0.0185185
        k(   47) = (   0.3333333  -0.3849002   0.1020621), wk =   0.0370370
        k(   48) = (   0.5000000  -0.0962250  -0.1020621), wk =   0.0370370
        k(   49) = (   0.3333333  -0.3849002   0.2041241), wk =   0.0370370
        k(   50) = (   0.5000000  -0.0962250  -0.2041241), wk =   0.0370370
        k(   51) = (   0.3333333  -0.3849002  -0.3061862), wk =   0.0185185
        k(   52) = (   0.5000000  -0.0962250   0.3061862), wk =   0.0185185

     Dense  grid:     9369 G-vectors     FFT dimensions: (  24,  24,  40)

     Smooth grid:     3357 G-vectors     FFT dimensions: (  18,  18,  27)

     Estimated max dynamical RAM per process >       8.26 MB

     Estimated total dynamical RAM >      66.12 MB
     Generating pointlists ...
     new r_m :   0.4125 (alat units)  1.9488 (a.u.) for type    1

     Initial potential from superposition of free atoms

     starting charge      15.9987, renormalised to      16.0000
     Starting wfcs are   12 randomized atomic wfcs

     total cpu time spent up to now is        0.6 secs

     Self-consistent Calculation

     iteration #  1     ecut=    30.00 Ry     beta= 0.50
     Davidson diagonalization with overlap
     ethr =  1.00E-02,  avg # of iterations =  3.7

     total cpu time spent up to now is        1.2 secs

     total energy              =    -111.35636281 Ry
     estimated scf accuracy    <       0.50645403 Ry

     total magnetization       =     6.45 Bohr mag/cell
     absolute magnetization    =     6.45 Bohr mag/cell

     iteration #  2     ecut=    30.00 Ry     beta= 0.50
     Davidson diagonalization with overlap
     ethr =  3.17E-03,  avg # of iterations =  2.0

     total cpu time spent up to now is        1.8 secs

     total energy              =    -111.53224446 Ry
     estimated scf accuracy    <       0.05504411 Ry

     total magnetization       =     5.46 Bohr mag/cell
     absolute magnetization    =     5.49 Bohr mag/cell

     iteration #  3     ecut=    30.00 Ry     beta= 0.50
     Davidson diagonalization with overlap
     ethr =  3.44E-04,  avg # of iterations =  1.3

     total cpu time spent up to now is        2.2 secs

     total energy              =    -111.56499374 Ry
     estimated scf accuracy    <       0.01341584 Ry

     total magnetization       =     5.40 Bohr mag/cell
     absolute magnetization    =     5.47 Bohr mag/cell

     iteration #  4     ecut=    30.00 Ry     beta= 0.50
     Davidson diagonalization with overlap
     ethr =  8.38E-05,  avg # of iterations =  1.8

     total cpu time spent up to now is        2.7 secs

     total energy              =    -111.56782386 Ry
     estimated scf accuracy    <       0.02234144 Ry

     total magnetization       =     5.13 Bohr mag/cell
     absolute magnetization    =     5.30 Bohr mag/cell

     iteration #  5     ecut=    30.00 Ry     beta= 0.50
     Davidson diagonalization with overlap
     ethr =  8.38E-05,  avg # of iterations =  1.0

     total cpu time spent up to now is        3.1 secs

     total energy              =    -111.56923276 Ry
     estimated scf accuracy    <       0.00045714 Ry

     total magnetization       =     5.13 Bohr mag/cell
     absolute magnetization    =     5.30 Bohr mag/cell

     iteration #  6     ecut=    30.00 Ry     beta= 0.50
     Davidson diagonalization with overlap
     ethr =  2.86E-06,  avg # of iterations =  4.1

     total cpu time spent up to now is        3.8 secs

     total energy              =    -111.56937943 Ry
     estimated scf accuracy    <       0.00023883 Ry

     total magnetization       =     5.13 Bohr mag/cell
     absolute magnetization    =     5.30 Bohr mag/cell

     iteration #  7     ecut=    30.00 Ry     beta= 0.50
     Davidson diagonalization with overlap
     ethr =  1.49E-06,  avg # of iterations =  2.1

     total cpu time spent up to now is        4.3 secs

     total energy              =    -111.56947872 Ry
     estimated scf accuracy    <       0.00002846 Ry

     total magnetization       =     5.12 Bohr mag/cell
     absolute magnetization    =     5.31 Bohr mag/cell

     iteration #  8     ecut=    30.00 Ry     beta= 0.50
     Davidson diagonalization with overlap
     ethr =  1.78E-07,  avg # of iterations =  5.0

     total cpu time spent up to now is        5.1 secs

     total energy              =    -111.56951197 Ry
     estimated scf accuracy    <       0.00000516 Ry

     total magnetization       =     5.12 Bohr mag/cell
     absolute magnetization    =     5.32 Bohr mag/cell

     iteration #  9     ecut=    30.00 Ry     beta= 0.50
     Davidson diagonalization with overlap
     ethr =  3.22E-08,  avg # of iterations =  4.8

     total cpu time spent up to now is        6.0 secs

     total energy              =    -111.56951772 Ry
     estimated scf accuracy    <       0.00000227 Ry

     total magnetization       =     5.12 Bohr mag/cell
     absolute magnetization    =     5.32 Bohr mag/cell

     iteration # 10     ecut=    30.00 Ry     beta= 0.50
     Davidson diagonalization with overlap
     ethr =  1.42E-08,  avg # of iterations =  2.5

     total cpu time spent up to now is        6.5 secs

     total energy              =    -111.56951827 Ry
     estimated scf accuracy    <       0.00000062 Ry

     total magnetization       =     5.12 Bohr mag/cell
     absolute magnetization    =     5.32 Bohr mag/cell

     iteration # 11     ecut=    30.00 Ry     beta= 0.50
     Davidson diagonalization with overlap
     ethr =  3.87E-09,  avg # of iterations =  3.1

     Magnetic moment per site  (integrated on atomic sphere of radius R)
     atom   1 (R=0.412)  charge=  6.6064  magn=  2.5932
     atom   2 (R=0.412)  charge=  6.6063  magn=  2.5933

     total cpu time spent up to now is        7.1 secs

     End of self-consistent calculation

     Number of k-points >= 100: set verbosity='high' to print the bands.

     the Fermi energy is    14.3016 ev

!    total energy              =    -111.56951846 Ry
     estimated scf accuracy    <       0.00000005 Ry
     smearing contrib. (-TS)   =       0.00076583 Ry
     internal energy E=F+TS    =    -111.57028429 Ry

     The total energy is F=E-TS. E is the sum of the following terms:
     one-electron contribution =      16.48224164 Ry
     hartree contribution      =      12.82007741 Ry
     xc contribution           =     -53.03809708 Ry
     ewald contribution        =     -87.83450626 Ry

     total magnetization       =     5.12 Bohr mag/cell
     absolute magnetization    =     5.32 Bohr mag/cell

     convergence has been achieved in  11 iterations

     Forces acting on atoms (cartesian axes, Ry/au):

     atom    1 type  1   force =     0.00000000   -0.00000092    0.00000000
     atom    2 type  1   force =     0.00000000    0.00000092    0.00000000
     The non-local contrib.  to forces
     atom    1 type  1   force =     0.00000000    0.00000097    0.00000000
     atom    2 type  1   force =     0.00000000    0.00000071    0.00000000
     The ionic contribution  to forces
     atom    1 type  1   force =    -0.00000000    0.00000403   -0.00002690
     atom    2 type  1   force =     0.00000000   -0.00000403    0.00002690
     The local contribution  to forces
     atom    1 type  1   force =    -0.00000000   -0.00000571    0.00000000
     atom    2 type  1   force =    -0.00000000    0.00000403    0.00007650
     The core correction contribution to forces
     atom    1 type  1   force =    -0.00000000   -0.00000019    0.00000000
     atom    2 type  1   force =    -0.00000000    0.00000002    0.00001276
     The Hubbard contrib.    to forces
     atom    1 type  1   force =     0.00000000    0.00000000    0.00000000
     atom    2 type  1   force =     0.00000000    0.00000000    0.00000000
     The SCF correction term to forces
     atom    1 type  1   force =     0.00000000    0.00000005    0.00000001
     atom    2 type  1   force =    -0.00000000    0.00000024   -0.00000002

     Total force =     0.000001     Total SCF correction =     0.000000
     SCF correction compared to forces is large: reduce conv_thr to get better values


     Computing stress (Cartesian axis) and pressure

          total   stress  (Ry/bohr**3)                   (kbar)     P=      199.61
   0.00109784   0.00000000   0.00000000          161.50        0.00        0.00
   0.00000000   0.00109781   0.00000000            0.00      161.49        0.00
   0.00000000   0.00000000   0.00187513            0.00        0.00      275.84


     BFGS Geometry Optimization
     Energy error            =      0.0E+00 Ry
     Gradient error          =      9.2E-07 Ry/Bohr
     Cell gradient error     =      2.8E+02 kbar

     number of scf cycles    =   1
     number of bfgs steps    =   0

     enthalpy           new  =    -111.5695184580 Ry

     new trust radius        =       0.1144896921 bohr
     new conv_thr            =       0.0000001000 Ry

     new unit-cell volume =    164.79557 a.u.^3 (    24.42018 Ang^3 )
     density =      7.59477 g/cm^3

CELL_PARAMETERS (angstrom)
   2.568615168  -0.000000000   0.000000000
  -1.284307584   2.224484420   0.000000000
   0.000000000   0.000000000   4.273862201

ATOMIC_POSITIONS (angstrom)
Fe            0.0000000000       -0.0000004985        0.0000000000
Fe            0.0000000000        1.4829945573        2.1369295802



     Writing config-only to output data dir /home/gridsan/epan1/labutil/lab3_samples/problem1/Lab3/Fe_hcp_a_2.5_ecut_30_nk_6/pwscf.save/
     NEW-OLD atomic charge density approx. for the potential

     Check: negative core charge=   -0.000004
     extrapolated charge   17.52196, renormalised to   16.00000
     Generating pointlists ...

     total cpu time spent up to now is        7.5 secs

     Self-consistent Calculation

     iteration #  1     ecut=    30.00 Ry     beta= 0.50
     Davidson diagonalization with overlap
     ethr =  1.00E-06,  avg # of iterations = 12.3

     total cpu time spent up to now is        9.5 secs

     total energy              =    -110.68621412 Ry
     estimated scf accuracy    <       0.92137235 Ry

     total magnetization       =     4.05 Bohr mag/cell
     absolute magnetization    =     4.30 Bohr mag/cell

     iteration #  2     ecut=    30.00 Ry     beta= 0.50
     Davidson diagonalization with overlap
     ethr =  5.76E-03,  avg # of iterations =  3.4

     total cpu time spent up to now is       10.6 secs

     total energy              =    -111.54072054 Ry
     estimated scf accuracy    <       1.96199203 Ry

     total magnetization       =     4.91 Bohr mag/cell
     absolute magnetization    =     5.01 Bohr mag/cell

     iteration #  3     ecut=    30.00 Ry     beta= 0.50
     Davidson diagonalization with overlap
     ethr =  5.76E-03,  avg # of iterations =  1.7

     total cpu time spent up to now is       11.2 secs

     total energy              =    -111.60353573 Ry
     estimated scf accuracy    <       0.39963890 Ry

     total magnetization       =     5.09 Bohr mag/cell
     absolute magnetization    =     5.26 Bohr mag/cell

     iteration #  4     ecut=    30.00 Ry     beta= 0.50
     Davidson diagonalization with overlap
     ethr =  2.50E-03,  avg # of iterations =  1.2

     total cpu time spent up to now is       11.7 secs

     total energy              =    -111.60866562 Ry
     estimated scf accuracy    <       0.18568849 Ry

     total magnetization       =     5.15 Bohr mag/cell
     absolute magnetization    =     5.32 Bohr mag/cell

     iteration #  5     ecut=    30.00 Ry     beta= 0.50
     Davidson diagonalization with overlap
     ethr =  1.16E-03,  avg # of iterations =  1.1

     total cpu time spent up to now is       12.1 secs

     total energy              =    -111.61418798 Ry
     estimated scf accuracy    <       0.15024008 Ry

     total magnetization       =     5.16 Bohr mag/cell
     absolute magnetization    =     5.34 Bohr mag/cell

     iteration #  6     ecut=    30.00 Ry     beta= 0.50
     Davidson diagonalization with overlap
     ethr =  9.39E-04,  avg # of iterations =  1.0

     total cpu time spent up to now is       12.6 secs

     total energy              =    -111.56581358 Ry
     estimated scf accuracy    <       0.15240204 Ry

     total magnetization       =     5.15 Bohr mag/cell
     absolute magnetization    =     5.33 Bohr mag/cell

     iteration #  7     ecut=    30.00 Ry     beta= 0.50
     Davidson diagonalization with overlap
     ethr =  9.39E-04,  avg # of iterations =  1.3

     total cpu time spent up to now is       13.1 secs

     total energy              =    -111.57491103 Ry
     estimated scf accuracy    <       0.01725318 Ry

     total magnetization       =     5.30 Bohr mag/cell
     absolute magnetization    =     5.50 Bohr mag/cell

     iteration #  8     ecut=    30.00 Ry     beta= 0.50
     Davidson diagonalization with overlap
     ethr =  1.08E-04,  avg # of iterations =  2.5

     total cpu time spent up to now is       13.6 secs

     total energy              =    -111.58115526 Ry
     estimated scf accuracy    <       0.00051052 Ry

     total magnetization       =     5.37 Bohr mag/cell
     absolute magnetization    =     5.59 Bohr mag/cell

     iteration #  9     ecut=    30.00 Ry     beta= 0.50
     Davidson diagonalization with overlap
     ethr =  3.19E-06,  avg # of iterations =  3.1

     total cpu time spent up to now is       14.4 secs

     total energy              =    -111.58096249 Ry
     estimated scf accuracy    <       0.00123823 Ry

     total magnetization       =     5.38 Bohr mag/cell
     absolute magnetization    =     5.62 Bohr mag/cell

     iteration # 10     ecut=    30.00 Ry     beta= 0.50
     Davidson diagonalization with overlap
     ethr =  3.19E-06,  avg # of iterations =  2.1

     total cpu time spent up to now is       14.9 secs

     total energy              =    -111.58121448 Ry
     estimated scf accuracy    <       0.00007611 Ry

     total magnetization       =     5.38 Bohr mag/cell
     absolute magnetization    =     5.63 Bohr mag/cell

     iteration # 11     ecut=    30.00 Ry     beta= 0.50
     Davidson diagonalization with overlap
     ethr =  4.76E-07,  avg # of iterations =  4.9

     total cpu time spent up to now is       15.8 secs

     total energy              =    -111.58100992 Ry
     estimated scf accuracy    <       0.00172718 Ry

     total magnetization       =     5.38 Bohr mag/cell
     absolute magnetization    =     5.63 Bohr mag/cell

     iteration # 12     ecut=    30.00 Ry     beta= 0.50
     Davidson diagonalization with overlap
     ethr =  4.76E-07,  avg # of iterations =  4.0

     total cpu time spent up to now is       16.6 secs

     total energy              =    -111.58114140 Ry
     estimated scf accuracy    <       0.00011475 Ry

     total magnetization       =     5.39 Bohr mag/cell
     absolute magnetization    =     5.63 Bohr mag/cell

     iteration # 13     ecut=    30.00 Ry     beta= 0.50
     Davidson diagonalization with overlap
     ethr =  4.76E-07,  avg # of iterations =  2.0

     total cpu time spent up to now is       17.2 secs

     total energy              =    -111.58115784 Ry
     estimated scf accuracy    <       0.00000439 Ry

     total magnetization       =     5.38 Bohr mag/cell
     absolute magnetization    =     5.63 Bohr mag/cell

     iteration # 14     ecut=    30.00 Ry     beta= 0.50
     Davidson diagonalization with overlap
     ethr =  2.75E-08,  avg # of iterations =  3.7

     total cpu time spent up to now is       18.0 secs

     total energy              =    -111.58116031 Ry
     estimated scf accuracy    <       0.00000021 Ry

     total magnetization       =     5.39 Bohr mag/cell
     absolute magnetization    =     5.63 Bohr mag/cell

     iteration # 15     ecut=    30.00 Ry     beta= 0.50
     Davidson diagonalization with overlap
     ethr =  1.29E-09,  avg # of iterations =  5.7

     total cpu time spent up to now is       18.9 secs

     total energy              =    -111.58116063 Ry
     estimated scf accuracy    <       0.00000044 Ry

     total magnetization       =     5.38 Bohr mag/cell
     absolute magnetization    =     5.63 Bohr mag/cell

     iteration # 16     ecut=    30.00 Ry     beta= 0.50
     Davidson diagonalization with overlap
     ethr =  1.29E-09,  avg # of iterations =  1.9

     Magnetic moment per site  (integrated on atomic sphere of radius R)
     atom   1 (R=0.412)  charge=  6.4784  magn=  2.7351
     atom   2 (R=0.412)  charge=  6.4784  magn=  2.7352

     total cpu time spent up to now is       19.4 secs

     End of self-consistent calculation

     Number of k-points >= 100: set verbosity='high' to print the bands.

     the Fermi energy is    12.7072 ev

!    total energy              =    -111.58116061 Ry
     estimated scf accuracy    <       0.00000007 Ry
     smearing contrib. (-TS)   =      -0.00006759 Ry
     internal energy E=F+TS    =    -111.58109302 Ry

     The total energy is F=E-TS. E is the sum of the following terms:
     one-electron contribution =      12.42998435 Ry
     hartree contribution      =      13.86214308 Ry
     xc contribution           =     -52.92081065 Ry
     ewald contribution        =     -84.95240980 Ry

     total magnetization       =     5.38 Bohr mag/cell
     absolute magnetization    =     5.63 Bohr mag/cell

     convergence has been achieved in  16 iterations

     Forces acting on atoms (cartesian axes, Ry/au):

     atom    1 type  1   force =     0.00000000    0.00000134    0.00000000
     atom    2 type  1   force =    -0.00000000   -0.00000134    0.00000000
     The non-local contrib.  to forces
     atom    1 type  1   force =     0.00000000    0.00000045    0.00000000
     atom    2 type  1   force =    -0.00000000   -0.00000047    0.00000000
     The ionic contribution  to forces
     atom    1 type  1   force =     0.00000000    0.00000298   -0.00002570
     atom    2 type  1   force =     0.00000000   -0.00000298    0.00002570
     The local contribution  to forces
     atom    1 type  1   force =     0.00000000   -0.00000468    0.00000000
     atom    2 type  1   force =    -0.00000000    0.00000468    0.00008236
     The core correction contribution to forces
     atom    1 type  1   force =     0.00000000   -0.00000021    0.00000001
     atom    2 type  1   force =    -0.00000000    0.00000021    0.00001341
     The Hubbard contrib.    to forces
     atom    1 type  1   force =     0.00000000    0.00000000    0.00000000
     atom    2 type  1   force =     0.00000000    0.00000000    0.00000000
     The SCF correction term to forces
     atom    1 type  1   force =    -0.00000000    0.00000273   -0.00000000
     atom    2 type  1   force =    -0.00000000   -0.00000285   -0.00000000

     Total force =     0.000002     Total SCF correction =     0.000004
     SCF correction compared to forces is large: reduce conv_thr to get better values


     Computing stress (Cartesian axis) and pressure

          total   stress  (Ry/bohr**3)                   (kbar)     P=       14.58
  -0.00011848   0.00000000   0.00000000          -17.43        0.00        0.00
  -0.00000000  -0.00011850   0.00000000           -0.00      -17.43        0.00
   0.00000000   0.00000000   0.00053439            0.00        0.00       78.61

     Energy error            =      1.2E-02 Ry
     Gradient error          =      1.3E-06 Ry/Bohr
     Cell gradient error     =      7.9E+01 kbar

     number of scf cycles    =   2
     number of bfgs steps    =   1

     enthalpy           old  =    -111.5695184580 Ry
     enthalpy           new  =    -111.5811606134 Ry

     CASE: enthalpy          _new < enthalpy          _old

     new trust radius        =       0.0462046857 bohr
     new conv_thr            =       0.0000000010 Ry

     new unit-cell volume =    167.06246 a.u.^3 (    24.75610 Ang^3 )
     density =      7.49171 g/cm^3

CELL_PARAMETERS (angstrom)
   2.563260740  -0.000000000   0.000000000
  -1.281630370   2.219845628   0.000000000
   0.000000000   0.000000000   4.350775914

ATOMIC_POSITIONS (angstrom)
Fe            0.0000000000        0.0000003353        0.0000000000
Fe            0.0000000000        1.4799011868        2.1753864093



     Writing config-only to output data dir /home/gridsan/epan1/labutil/lab3_samples/problem1/Lab3/Fe_hcp_a_2.5_ecut_30_nk_6/pwscf.save/
     NEW-OLD atomic charge density approx. for the potential

     Check: negative core charge=   -0.000006
     extrapolated charge   16.21709, renormalised to   16.00000
     Generating pointlists ...

     total cpu time spent up to now is       20.4 secs

     Self-consistent Calculation

     iteration #  1     ecut=    30.00 Ry     beta= 0.50
     Davidson diagonalization with overlap
     ethr =  1.00E-06,  avg # of iterations =  7.1

     total cpu time spent up to now is       21.6 secs

     total energy              =    -111.56479760 Ry
     estimated scf accuracy    <       0.01792176 Ry

     total magnetization       =     5.40 Bohr mag/cell
     absolute magnetization    =     5.65 Bohr mag/cell

     iteration #  2     ecut=    30.00 Ry     beta= 0.50
     Davidson diagonalization with overlap
     ethr =  1.12E-04,  avg # of iterations =  3.7

     total cpu time spent up to now is       22.4 secs

     total energy              =    -111.58134747 Ry
     estimated scf accuracy    <       0.03596519 Ry

     total magnetization       =     5.39 Bohr mag/cell
     absolute magnetization    =     5.62 Bohr mag/cell

     iteration #  3     ecut=    30.00 Ry     beta= 0.50
     Davidson diagonalization with overlap
     ethr =  1.12E-04,  avg # of iterations =  1.8

     total cpu time spent up to now is       22.9 secs

     total energy              =    -111.58200450 Ry
     estimated scf accuracy    <       0.00698031 Ry

     total magnetization       =     5.39 Bohr mag/cell
     absolute magnetization    =     5.64 Bohr mag/cell

     iteration #  4     ecut=    30.00 Ry     beta= 0.50
     Davidson diagonalization with overlap
     ethr =  4.36E-05,  avg # of iterations =  1.6

     total cpu time spent up to now is       23.4 secs

     total energy              =    -111.58148738 Ry
     estimated scf accuracy    <       0.00251076 Ry

     total magnetization       =     5.40 Bohr mag/cell
     absolute magnetization    =     5.64 Bohr mag/cell

     iteration #  5     ecut=    30.00 Ry     beta= 0.50
     Davidson diagonalization with overlap
     ethr =  1.57E-05,  avg # of iterations =  2.8

     total cpu time spent up to now is       24.0 secs

     total energy              =    -111.58255659 Ry
     estimated scf accuracy    <       0.00050170 Ry

     total magnetization       =     5.40 Bohr mag/cell
     absolute magnetization    =     5.65 Bohr mag/cell

     iteration #  6     ecut=    30.00 Ry     beta= 0.50
     Davidson diagonalization with overlap
     ethr =  3.14E-06,  avg # of iterations =  2.1

     total cpu time spent up to now is       24.5 secs

     total energy              =    -111.58209910 Ry
     estimated scf accuracy    <       0.00112117 Ry

     total magnetization       =     5.40 Bohr mag/cell
     absolute magnetization    =     5.65 Bohr mag/cell

     iteration #  7     ecut=    30.00 Ry     beta= 0.50
     Davidson diagonalization with overlap
     ethr =  3.14E-06,  avg # of iterations =  2.2

     total cpu time spent up to now is       25.1 secs

     total energy              =    -111.58227725 Ry
     estimated scf accuracy    <       0.00000955 Ry

     total magnetization       =     5.40 Bohr mag/cell
     absolute magnetization    =     5.65 Bohr mag/cell

     iteration #  8     ecut=    30.00 Ry     beta= 0.50
     Davidson diagonalization with overlap
     ethr =  5.97E-08,  avg # of iterations =  4.2

     total cpu time spent up to now is       25.9 secs

     total energy              =    -111.58229202 Ry
     estimated scf accuracy    <       0.00003066 Ry

     total magnetization       =     5.40 Bohr mag/cell
     absolute magnetization    =     5.65 Bohr mag/cell

     iteration #  9     ecut=    30.00 Ry     beta= 0.50
     Davidson diagonalization with overlap
     ethr =  5.97E-08,  avg # of iterations =  1.0

     total cpu time spent up to now is       26.4 secs

     total energy              =    -111.58228283 Ry
     estimated scf accuracy    <       0.00001483 Ry

     total magnetization       =     5.40 Bohr mag/cell
     absolute magnetization    =     5.65 Bohr mag/cell

     iteration # 10     ecut=    30.00 Ry     beta= 0.50
     Davidson diagonalization with overlap
     ethr =  5.97E-08,  avg # of iterations =  3.5

     total cpu time spent up to now is       27.1 secs

     total energy              =    -111.58228784 Ry
     estimated scf accuracy    <       0.00000627 Ry

     total magnetization       =     5.40 Bohr mag/cell
     absolute magnetization    =     5.65 Bohr mag/cell

     iteration # 11     ecut=    30.00 Ry     beta= 0.50
     Davidson diagonalization with overlap
     ethr =  3.92E-08,  avg # of iterations =  2.0

     total cpu time spent up to now is       27.6 secs

     total energy              =    -111.58228897 Ry
     estimated scf accuracy    <       0.00000003 Ry

     total magnetization       =     5.40 Bohr mag/cell
     absolute magnetization    =     5.65 Bohr mag/cell

     iteration # 12     ecut=    30.00 Ry     beta= 0.50
     Davidson diagonalization with overlap
     ethr =  2.09E-10,  avg # of iterations =  6.1

     Magnetic moment per site  (integrated on atomic sphere of radius R)
     atom   1 (R=0.412)  charge=  6.4645  magn=  2.7430
     atom   2 (R=0.412)  charge=  6.4644  magn=  2.7430

     total cpu time spent up to now is       28.6 secs

     End of self-consistent calculation

     Number of k-points >= 100: set verbosity='high' to print the bands.

     the Fermi energy is    12.4825 ev

!    total energy              =    -111.58228905 Ry
     estimated scf accuracy    <          6.0E-10 Ry
     smearing contrib. (-TS)   =      -0.00000578 Ry
     internal energy E=F+TS    =    -111.58228328 Ry

     The total energy is F=E-TS. E is the sum of the following terms:
     one-electron contribution =      11.85616647 Ry
     hartree contribution      =      14.02061289 Ry
     xc contribution           =     -52.90617752 Ry
     ewald contribution        =     -84.55288511 Ry

     total magnetization       =     5.40 Bohr mag/cell
     absolute magnetization    =     5.65 Bohr mag/cell

     convergence has been achieved in  12 iterations

     Forces acting on atoms (cartesian axes, Ry/au):

     atom    1 type  1   force =    -0.00000000   -0.00000051    0.00000000
     atom    2 type  1   force =     0.00000000    0.00000051    0.00000000
     The non-local contrib.  to forces
     atom    1 type  1   force =    -0.00000000   -0.00000160    0.00000000
     atom    2 type  1   force =     0.00000000    0.00000175    0.00000000
     The ionic contribution  to forces
     atom    1 type  1   force =     0.00000000    0.00000029   -0.00002603
     atom    2 type  1   force =     0.00000000   -0.00000029    0.00002603
     The local contribution  to forces
     atom    1 type  1   force =     0.00000000    0.00000079    0.00000000
     atom    2 type  1   force =    -0.00000000   -0.00000088    0.00008466
     The core correction contribution to forces
     atom    1 type  1   force =     0.00000000    0.00000014    0.00000002
     atom    2 type  1   force =    -0.00000000   -0.00000015    0.00001369
     The Hubbard contrib.    to forces
     atom    1 type  1   force =     0.00000000    0.00000000    0.00000000
     atom    2 type  1   force =     0.00000000    0.00000000    0.00000000
     The SCF correction term to forces
     atom    1 type  1   force =     0.00000000   -0.00000008    0.00000000
     atom    2 type  1   force =     0.00000000    0.00000011   -0.00000000

     Total force =     0.000001     Total SCF correction =     0.000000
     SCF correction compared to forces is large: reduce conv_thr to get better values


     Computing stress (Cartesian axis) and pressure

          total   stress  (Ry/bohr**3)                   (kbar)     P=      -11.00
  -0.00019735  -0.00000000   0.00000000          -29.03       -0.00        0.00
  -0.00000000  -0.00019737   0.00000000           -0.00      -29.03        0.00
   0.00000000   0.00000000   0.00017035            0.00        0.00       25.06

     Energy error            =      1.1E-03 Ry
     Gradient error          =      5.1E-07 Ry/Bohr
     Cell gradient error     =      2.9E+01 kbar

     number of scf cycles    =   3
     number of bfgs steps    =   2

     enthalpy           old  =    -111.5811606134 Ry
     enthalpy           new  =    -111.5822890523 Ry

     CASE: enthalpy          _new < enthalpy          _old

     new trust radius        =       0.0357508498 bohr
     new conv_thr            =       0.0000000010 Ry

     new unit-cell volume =    166.80285 a.u.^3 (    24.71763 Ang^3 )
     density =      7.50337 g/cm^3

CELL_PARAMETERS (angstrom)
   2.543740375  -0.000000000   0.000000000
  -1.271870188   2.202938098   0.000000000
   0.000000000   0.000000000   4.410946418

ATOMIC_POSITIONS (angstrom)
Fe            0.0000000000        0.0000000632        0.0000000000
Fe            0.0000000000        1.4686297379        2.2054716400



     Writing config-only to output data dir /home/gridsan/epan1/labutil/lab3_samples/problem1/Lab3/Fe_hcp_a_2.5_ecut_30_nk_6/pwscf.save/
     NEW-OLD atomic charge density approx. for the potential

     Check: negative core charge=   -0.000006
     extrapolated charge   15.97510, renormalised to   16.00000
     Generating pointlists ...

     total cpu time spent up to now is       29.0 secs

     Self-consistent Calculation

     iteration #  1     ecut=    30.00 Ry     beta= 0.50
     Davidson diagonalization with overlap
     ethr =  1.00E-06,  avg # of iterations =  5.6

     total cpu time spent up to now is       31.5 secs

     total energy              =    -111.58247813 Ry
     estimated scf accuracy    <       0.00040430 Ry

     total magnetization       =     5.40 Bohr mag/cell
     absolute magnetization    =     5.64 Bohr mag/cell

     iteration #  2     ecut=    30.00 Ry     beta= 0.50
     Davidson diagonalization with overlap
     ethr =  2.53E-06,  avg # of iterations =  3.4

     total cpu time spent up to now is       32.3 secs

     total energy              =    -111.58273727 Ry
     estimated scf accuracy    <       0.00051600 Ry

     total magnetization       =     5.40 Bohr mag/cell
     absolute magnetization    =     5.65 Bohr mag/cell

     iteration #  3     ecut=    30.00 Ry     beta= 0.50
     Davidson diagonalization with overlap
     ethr =  2.53E-06,  avg # of iterations =  1.4

     total cpu time spent up to now is       32.7 secs

     total energy              =    -111.58274547 Ry
     estimated scf accuracy    <       0.00008955 Ry

     total magnetization       =     5.40 Bohr mag/cell
     absolute magnetization    =     5.64 Bohr mag/cell

     iteration #  4     ecut=    30.00 Ry     beta= 0.50
     Davidson diagonalization with overlap
     ethr =  5.60E-07,  avg # of iterations =  2.4

     total cpu time spent up to now is       33.3 secs

     total energy              =    -111.58274413 Ry
     estimated scf accuracy    <       0.00062614 Ry

     total magnetization       =     5.40 Bohr mag/cell
     absolute magnetization    =     5.64 Bohr mag/cell

     iteration #  5     ecut=    30.00 Ry     beta= 0.50
     Davidson diagonalization with overlap
     ethr =  5.60E-07,  avg # of iterations =  2.0

     total cpu time spent up to now is       33.8 secs

     total energy              =    -111.58276650 Ry
     estimated scf accuracy    <       0.00004354 Ry

     total magnetization       =     5.40 Bohr mag/cell
     absolute magnetization    =     5.64 Bohr mag/cell

     iteration #  6     ecut=    30.00 Ry     beta= 0.50
     Davidson diagonalization with overlap
     ethr =  2.72E-07,  avg # of iterations =  1.7

     total cpu time spent up to now is       34.3 secs

     total energy              =    -111.58277381 Ry
     estimated scf accuracy    <       0.00000086 Ry

     total magnetization       =     5.40 Bohr mag/cell
     absolute magnetization    =     5.64 Bohr mag/cell

     iteration #  7     ecut=    30.00 Ry     beta= 0.50
     Davidson diagonalization with overlap
     ethr =  5.38E-09,  avg # of iterations =  3.6

     total cpu time spent up to now is       35.0 secs

     total energy              =    -111.58277471 Ry
     estimated scf accuracy    <       0.00000095 Ry

     total magnetization       =     5.40 Bohr mag/cell
     absolute magnetization    =     5.64 Bohr mag/cell

     iteration #  8     ecut=    30.00 Ry     beta= 0.50
     Davidson diagonalization with overlap
     ethr =  5.38E-09,  avg # of iterations =  1.0

     total cpu time spent up to now is       35.5 secs

     total energy              =    -111.58277462 Ry
     estimated scf accuracy    <       0.00000030 Ry

     total magnetization       =     5.40 Bohr mag/cell
     absolute magnetization    =     5.64 Bohr mag/cell

     iteration #  9     ecut=    30.00 Ry     beta= 0.50
     Davidson diagonalization with overlap
     ethr =  1.89E-09,  avg # of iterations =  2.4

     total cpu time spent up to now is       36.1 secs

     total energy              =    -111.58277472 Ry
     estimated scf accuracy    <          2.9E-09 Ry

     total magnetization       =     5.40 Bohr mag/cell
     absolute magnetization    =     5.64 Bohr mag/cell

     iteration # 10     ecut=    30.00 Ry     beta= 0.50
     Davidson diagonalization with overlap
     ethr =  1.83E-11,  avg # of iterations = 10.0

     total cpu time spent up to now is       37.5 secs

     total energy              =    -111.58277473 Ry
     estimated scf accuracy    <       0.00000003 Ry

     total magnetization       =     5.40 Bohr mag/cell
     absolute magnetization    =     5.64 Bohr mag/cell

     iteration # 11     ecut=    30.00 Ry     beta= 0.50
     Davidson diagonalization with overlap
     ethr =  1.83E-11,  avg # of iterations =  4.2

     total cpu time spent up to now is       38.3 secs

     total energy              =    -111.58277474 Ry
     estimated scf accuracy    <          1.5E-09 Ry

     total magnetization       =     5.40 Bohr mag/cell
     absolute magnetization    =     5.64 Bohr mag/cell

     iteration # 12     ecut=    30.00 Ry     beta= 0.50
     Davidson diagonalization with overlap
     ethr =  9.17E-12,  avg # of iterations =  2.0

     Magnetic moment per site  (integrated on atomic sphere of radius R)
     atom   1 (R=0.412)  charge=  6.4690  magn=  2.7422
     atom   2 (R=0.412)  charge=  6.4690  magn=  2.7422

     total cpu time spent up to now is       38.8 secs

     End of self-consistent calculation

     Number of k-points >= 100: set verbosity='high' to print the bands.

     the Fermi energy is    12.4816 ev

!    total energy              =    -111.58277474 Ry
     estimated scf accuracy    <          2.4E-11 Ry
     smearing contrib. (-TS)   =       0.00000725 Ry
     internal energy E=F+TS    =    -111.58278199 Ry

     The total energy is F=E-TS. E is the sum of the following terms:
     one-electron contribution =      11.86944554 Ry
     hartree contribution      =      14.02955379 Ry
     xc contribution           =     -52.91155564 Ry
     ewald contribution        =     -84.57022568 Ry

     total magnetization       =     5.40 Bohr mag/cell
     absolute magnetization    =     5.64 Bohr mag/cell

     convergence has been achieved in  12 iterations

     Forces acting on atoms (cartesian axes, Ry/au):

     atom    1 type  1   force =    -0.00000000   -0.00000077    0.00000000
     atom    2 type  1   force =     0.00000000    0.00000077    0.00000000
     The non-local contrib.  to forces
     atom    1 type  1   force =    -0.00000000   -0.00000240    0.00000000
     atom    2 type  1   force =     0.00000000    0.00000251    0.00000000
     The ionic contribution  to forces
     atom    1 type  1   force =     0.00000000   -0.00000099   -0.00002666
     atom    2 type  1   force =    -0.00000000    0.00000099    0.00002666
     The local contribution  to forces
     atom    1 type  1   force =    -0.00000000    0.00000251   -0.00000000
     atom    2 type  1   force =    -0.00000000   -0.00000250    0.00008647
     The core correction contribution to forces
     atom    1 type  1   force =    -0.00000000    0.00000019    0.00000002
     atom    2 type  1   force =     0.00000000   -0.00000019    0.00001391
     The Hubbard contrib.    to forces
     atom    1 type  1   force =     0.00000000    0.00000000    0.00000000
     atom    2 type  1   force =     0.00000000    0.00000000    0.00000000
     The SCF correction term to forces
     atom    1 type  1   force =    -0.00000000   -0.00000002    0.00000000
     atom    2 type  1   force =     0.00000000    0.00000002   -0.00000000

     Total force =     0.000001     Total SCF correction =     0.000000


     Computing stress (Cartesian axis) and pressure

          total   stress  (Ry/bohr**3)                   (kbar)     P=       -5.95
  -0.00004716  -0.00000000   0.00000000           -6.94       -0.00        0.00
  -0.00000000  -0.00004717   0.00000000           -0.00       -6.94        0.00
   0.00000000   0.00000000  -0.00002695            0.00        0.00       -3.96

     Energy error            =      4.9E-04 Ry
     Gradient error          =      7.7E-07 Ry/Bohr
     Cell gradient error     =      6.9E+00 kbar

     number of scf cycles    =   4
     number of bfgs steps    =   3

     enthalpy           old  =    -111.5822890523 Ry
     enthalpy           new  =    -111.5827747408 Ry

     CASE: enthalpy          _new < enthalpy          _old

     new trust radius        =       0.0032043549 bohr
     new conv_thr            =       0.0000000010 Ry

     new unit-cell volume =    166.37828 a.u.^3 (    24.65472 Ang^3 )
     density =      7.52252 g/cm^3

CELL_PARAMETERS (angstrom)
   2.540586148  -0.000000000   0.000000000
  -1.270293074   2.200205277   0.000000000
   0.000000000   0.000000000   4.410653116

ATOMIC_POSITIONS (angstrom)
Fe            0.0000000000       -0.0000003590        0.0000000000
Fe            0.0000000000        1.4668082741        2.2053249889



     Writing config-only to output data dir /home/gridsan/epan1/labutil/lab3_samples/problem1/Lab3/Fe_hcp_a_2.5_ecut_30_nk_6/pwscf.save/
     NEW-OLD atomic charge density approx. for the potential

     Check: negative core charge=   -0.000006
     extrapolated charge   15.95917, renormalised to   16.00000
     Generating pointlists ...

     total cpu time spent up to now is       40.8 secs

     Self-consistent Calculation

     iteration #  1     ecut=    30.00 Ry     beta= 0.50
     Davidson diagonalization with overlap
     ethr =  1.00E-06,  avg # of iterations =  3.7

     total cpu time spent up to now is       41.6 secs

     total energy              =    -111.58216665 Ry
     estimated scf accuracy    <       0.00064458 Ry

     total magnetization       =     5.40 Bohr mag/cell
     absolute magnetization    =     5.64 Bohr mag/cell

     iteration #  2     ecut=    30.00 Ry     beta= 0.50
     Davidson diagonalization with overlap
     ethr =  4.03E-06,  avg # of iterations =  3.7

     total cpu time spent up to now is       42.3 secs

     total energy              =    -111.58275544 Ry
     estimated scf accuracy    <       0.00123558 Ry

     total magnetization       =     5.40 Bohr mag/cell
     absolute magnetization    =     5.64 Bohr mag/cell

     iteration #  3     ecut=    30.00 Ry     beta= 0.50
     Davidson diagonalization with overlap
     ethr =  4.03E-06,  avg # of iterations =  1.7

     total cpu time spent up to now is       42.8 secs

     total energy              =    -111.58281473 Ry
     estimated scf accuracy    <       0.00024641 Ry

     total magnetization       =     5.40 Bohr mag/cell
     absolute magnetization    =     5.64 Bohr mag/cell

     iteration #  4     ecut=    30.00 Ry     beta= 0.50
     Davidson diagonalization with overlap
     ethr =  1.54E-06,  avg # of iterations =  1.1

     total cpu time spent up to now is       43.2 secs

     total energy              =    -111.58272398 Ry
     estimated scf accuracy    <       0.00014899 Ry

     total magnetization       =     5.40 Bohr mag/cell
     absolute magnetization    =     5.64 Bohr mag/cell

     iteration #  5     ecut=    30.00 Ry     beta= 0.50
     Davidson diagonalization with overlap
     ethr =  9.31E-07,  avg # of iterations =  3.2

     total cpu time spent up to now is       43.9 secs

     total energy              =    -111.58281449 Ry
     estimated scf accuracy    <       0.00006105 Ry

     total magnetization       =     5.40 Bohr mag/cell
     absolute magnetization    =     5.64 Bohr mag/cell

     iteration #  6     ecut=    30.00 Ry     beta= 0.50
     Davidson diagonalization with overlap
     ethr =  3.82E-07,  avg # of iterations =  1.4

     total cpu time spent up to now is       44.3 secs

     total energy              =    -111.58277670 Ry
     estimated scf accuracy    <       0.00010609 Ry

     total magnetization       =     5.40 Bohr mag/cell
     absolute magnetization    =     5.64 Bohr mag/cell

     iteration #  7     ecut=    30.00 Ry     beta= 0.50
     Davidson diagonalization with overlap
     ethr =  3.82E-07,  avg # of iterations =  2.0

     total cpu time spent up to now is       44.8 secs

     total energy              =    -111.58278627 Ry
     estimated scf accuracy    <       0.00000886 Ry

     total magnetization       =     5.40 Bohr mag/cell
     absolute magnetization    =     5.64 Bohr mag/cell

     iteration #  8     ecut=    30.00 Ry     beta= 0.50
     Davidson diagonalization with overlap
     ethr =  5.54E-08,  avg # of iterations =  1.8

     total cpu time spent up to now is       45.3 secs

     total energy              =    -111.58278608 Ry
     estimated scf accuracy    <       0.00000287 Ry

     total magnetization       =     5.40 Bohr mag/cell
     absolute magnetization    =     5.64 Bohr mag/cell

     iteration #  9     ecut=    30.00 Ry     beta= 0.50
     Davidson diagonalization with overlap
     ethr =  1.79E-08,  avg # of iterations =  2.1

     total cpu time spent up to now is       45.9 secs

     total energy              =    -111.58278647 Ry
     estimated scf accuracy    <       0.00000023 Ry

     total magnetization       =     5.40 Bohr mag/cell
     absolute magnetization    =     5.64 Bohr mag/cell

     iteration # 10     ecut=    30.00 Ry     beta= 0.50
     Davidson diagonalization with overlap
     ethr =  1.44E-09,  avg # of iterations =  2.4

     total cpu time spent up to now is       46.4 secs

     total energy              =    -111.58278646 Ry
     estimated scf accuracy    <       0.00000014 Ry

     total magnetization       =     5.40 Bohr mag/cell
     absolute magnetization    =     5.64 Bohr mag/cell

     iteration # 11     ecut=    30.00 Ry     beta= 0.50
     Davidson diagonalization with overlap
     ethr =  8.58E-10,  avg # of iterations =  2.0

     total cpu time spent up to now is       46.9 secs

     total energy              =    -111.58278649 Ry
     estimated scf accuracy    <          8.5E-09 Ry

     total magnetization       =     5.40 Bohr mag/cell
     absolute magnetization    =     5.64 Bohr mag/cell

     iteration # 12     ecut=    30.00 Ry     beta= 0.50
     Davidson diagonalization with overlap
     ethr =  5.33E-11,  avg # of iterations =  3.9

     total cpu time spent up to now is       47.6 secs

     total energy              =    -111.58278649 Ry
     estimated scf accuracy    <          3.1E-09 Ry

     total magnetization       =     5.40 Bohr mag/cell
     absolute magnetization    =     5.64 Bohr mag/cell

     iteration # 13     ecut=    30.00 Ry     beta= 0.50
     Davidson diagonalization with overlap
     ethr =  1.94E-11,  avg # of iterations =  2.1

     total cpu time spent up to now is       48.1 secs

     total energy              =    -111.58278649 Ry
     estimated scf accuracy    <          2.2E-09 Ry

     total magnetization       =     5.40 Bohr mag/cell
     absolute magnetization    =     5.64 Bohr mag/cell

     iteration # 14     ecut=    30.00 Ry     beta= 0.50
     Davidson diagonalization with overlap
     ethr =  1.41E-11,  avg # of iterations =  1.3

     Magnetic moment per site  (integrated on atomic sphere of radius R)
     atom   1 (R=0.412)  charge=  6.4720  magn=  2.7415
     atom   2 (R=0.412)  charge=  6.4720  magn=  2.7415

     total cpu time spent up to now is       48.6 secs

     End of self-consistent calculation

     Number of k-points >= 100: set verbosity='high' to print the bands.

     the Fermi energy is    12.5180 ev

!    total energy              =    -111.58278649 Ry
     estimated scf accuracy    <          7.7E-10 Ry
     smearing contrib. (-TS)   =       0.00001693 Ry
     internal energy E=F+TS    =    -111.58280342 Ry

     The total energy is F=E-TS. E is the sum of the following terms:
     one-electron contribution =      11.96844047 Ry
     hartree contribution      =      14.00406934 Ry
     xc contribution           =     -52.91504609 Ry
     ewald contribution        =     -84.64026714 Ry

     total magnetization       =     5.40 Bohr mag/cell
     absolute magnetization    =     5.64 Bohr mag/cell

     convergence has been achieved in  14 iterations

     Forces acting on atoms (cartesian axes, Ry/au):

     atom    1 type  1   force =    -0.00000000   -0.00000072    0.00000000
     atom    2 type  1   force =     0.00000000    0.00000072    0.00000000
     The non-local contrib.  to forces
     atom    1 type  1   force =    -0.00000000   -0.00000282    0.00000000
     atom    2 type  1   force =     0.00000000    0.00000289    0.00000000
     The ionic contribution  to forces
     atom    1 type  1   force =     0.00000000   -0.00000122   -0.00002673
     atom    2 type  1   force =     0.00000000    0.00000122    0.00002673
     The local contribution  to forces
     atom    1 type  1   force =     0.00000000    0.00000303   -0.00000000
     atom    2 type  1   force =    -0.00000000   -0.00000299    0.00008645
     The core correction contribution to forces
     atom    1 type  1   force =     0.00000000    0.00000024    0.00000002
     atom    2 type  1   force =    -0.00000000   -0.00000023    0.00001391
     The Hubbard contrib.    to forces
     atom    1 type  1   force =     0.00000000    0.00000000    0.00000000
     atom    2 type  1   force =     0.00000000    0.00000000    0.00000000
     The SCF correction term to forces
     atom    1 type  1   force =    -0.00000000    0.00000009    0.00000000
     atom    2 type  1   force =    -0.00000000   -0.00000013   -0.00000000

     Total force =     0.000001     Total SCF correction =     0.000000
     SCF correction compared to forces is large: reduce conv_thr to get better values


     Computing stress (Cartesian axis) and pressure

          total   stress  (Ry/bohr**3)                   (kbar)     P=       -1.06
  -0.00000589  -0.00000000   0.00000000           -0.87       -0.00        0.00
  -0.00000000  -0.00000591   0.00000000           -0.00       -0.87        0.00
   0.00000000   0.00000000  -0.00000975            0.00        0.00       -1.43

     Energy error            =      1.2E-05 Ry
     Gradient error          =      7.2E-07 Ry/Bohr
     Cell gradient error     =      1.4E+00 kbar

     number of scf cycles    =   5
     number of bfgs steps    =   4

     enthalpy           old  =    -111.5827747408 Ry
     enthalpy           new  =    -111.5827864908 Ry

     CASE: enthalpy          _new < enthalpy          _old

     new trust radius        =       0.0009427036 bohr
     new conv_thr            =       0.0000000010 Ry

     new unit-cell volume =    166.28124 a.u.^3 (    24.64034 Ang^3 )
     density =      7.52691 g/cm^3

CELL_PARAMETERS (angstrom)
   2.540310144  -0.000000000   0.000000000
  -1.270155072   2.199964890   0.000000000
   0.000000000   0.000000000   4.409041358

ATOMIC_POSITIONS (angstrom)
Fe            0.0000000000       -0.0000008110        0.0000000000
Fe            0.0000000000        1.4666484681        2.2045191106



     Writing config-only to output data dir /home/gridsan/epan1/labutil/lab3_samples/problem1/Lab3/Fe_hcp_a_2.5_ecut_30_nk_6/pwscf.save/
     NEW-OLD atomic charge density approx. for the potential

     Check: negative core charge=   -0.000006
     extrapolated charge   15.99066, renormalised to   16.00000
     Generating pointlists ...

     total cpu time spent up to now is       49.0 secs

     Self-consistent Calculation

     iteration #  1     ecut=    30.00 Ry     beta= 0.50
     Davidson diagonalization with overlap
     ethr =  1.00E-06,  avg # of iterations =  2.0

     total cpu time spent up to now is       49.6 secs

     total energy              =    -111.58276277 Ry
     estimated scf accuracy    <       0.00002496 Ry

     total magnetization       =     5.40 Bohr mag/cell
     absolute magnetization    =     5.64 Bohr mag/cell

     iteration #  2     ecut=    30.00 Ry     beta= 0.50
     Davidson diagonalization with overlap
     ethr =  1.56E-07,  avg # of iterations =  3.6

     total cpu time spent up to now is       51.3 secs

     total energy              =    -111.58278592 Ry
     estimated scf accuracy    <       0.00004889 Ry

     total magnetization       =     5.40 Bohr mag/cell
     absolute magnetization    =     5.64 Bohr mag/cell

     iteration #  3     ecut=    30.00 Ry     beta= 0.50
     Davidson diagonalization with overlap
     ethr =  1.56E-07,  avg # of iterations =  1.7

     total cpu time spent up to now is       51.9 secs

     total energy              =    -111.58278839 Ry
     estimated scf accuracy    <       0.00000995 Ry

     total magnetization       =     5.40 Bohr mag/cell
     absolute magnetization    =     5.64 Bohr mag/cell

     iteration #  4     ecut=    30.00 Ry     beta= 0.50
     Davidson diagonalization with overlap
     ethr =  6.22E-08,  avg # of iterations =  1.1

     total cpu time spent up to now is       52.4 secs

     total energy              =    -111.58278469 Ry
     estimated scf accuracy    <       0.00000646 Ry

     total magnetization       =     5.40 Bohr mag/cell
     absolute magnetization    =     5.64 Bohr mag/cell

     iteration #  5     ecut=    30.00 Ry     beta= 0.50
     Davidson diagonalization with overlap
     ethr =  4.04E-08,  avg # of iterations =  3.0

     total cpu time spent up to now is       53.1 secs

     total energy              =    -111.58278810 Ry
     estimated scf accuracy    <       0.00000164 Ry

     total magnetization       =     5.40 Bohr mag/cell
     absolute magnetization    =     5.64 Bohr mag/cell

     iteration #  6     ecut=    30.00 Ry     beta= 0.50
     Davidson diagonalization with overlap
     ethr =  1.02E-08,  avg # of iterations =  1.8

     total cpu time spent up to now is       53.6 secs

     total energy              =    -111.58278700 Ry
     estimated scf accuracy    <       0.00000361 Ry

     total magnetization       =     5.40 Bohr mag/cell
     absolute magnetization    =     5.64 Bohr mag/cell

     iteration #  7     ecut=    30.00 Ry     beta= 0.50
     Davidson diagonalization with overlap
     ethr =  1.02E-08,  avg # of iterations =  1.8

     total cpu time spent up to now is       54.1 secs

     total energy              =    -111.58278722 Ry
     estimated scf accuracy    <       0.00000052 Ry

     total magnetization       =     5.40 Bohr mag/cell
     absolute magnetization    =     5.64 Bohr mag/cell

     iteration #  8     ecut=    30.00 Ry     beta= 0.50
     Davidson diagonalization with overlap
     ethr =  3.22E-09,  avg # of iterations =  1.1

     total cpu time spent up to now is       54.6 secs

     total energy              =    -111.58278713 Ry
     estimated scf accuracy    <       0.00000027 Ry

     total magnetization       =     5.40 Bohr mag/cell
     absolute magnetization    =     5.64 Bohr mag/cell

     iteration #  9     ecut=    30.00 Ry     beta= 0.50
     Davidson diagonalization with overlap
     ethr =  1.72E-09,  avg # of iterations =  2.0

     total cpu time spent up to now is       55.1 secs

     total energy              =    -111.58278717 Ry
     estimated scf accuracy    <       0.00000001 Ry

     total magnetization       =     5.40 Bohr mag/cell
     absolute magnetization    =     5.64 Bohr mag/cell

     iteration # 10     ecut=    30.00 Ry     beta= 0.50
     Davidson diagonalization with overlap
     ethr =  8.39E-11,  avg # of iterations =  3.9

     total cpu time spent up to now is       55.8 secs

     total energy              =    -111.58278718 Ry
     estimated scf accuracy    <       0.00000001 Ry

     total magnetization       =     5.40 Bohr mag/cell
     absolute magnetization    =     5.64 Bohr mag/cell

     iteration # 11     ecut=    30.00 Ry     beta= 0.50
     Davidson diagonalization with overlap
     ethr =  6.92E-11,  avg # of iterations =  1.0

     total cpu time spent up to now is       56.3 secs

     total energy              =    -111.58278718 Ry
     estimated scf accuracy    <          2.0E-09 Ry

     total magnetization       =     5.40 Bohr mag/cell
     absolute magnetization    =     5.64 Bohr mag/cell

     iteration # 12     ecut=    30.00 Ry     beta= 0.50
     Davidson diagonalization with overlap
     ethr =  1.23E-11,  avg # of iterations =  3.1

     Magnetic moment per site  (integrated on atomic sphere of radius R)
     atom   1 (R=0.412)  charge=  6.4726  magn=  2.7413
     atom   2 (R=0.412)  charge=  6.4726  magn=  2.7413

     total cpu time spent up to now is       56.9 secs

     End of self-consistent calculation

     Number of k-points >= 100: set verbosity='high' to print the bands.

     the Fermi energy is    12.5270 ev

!    total energy              =    -111.58278718 Ry
     estimated scf accuracy    <          1.7E-10 Ry
     smearing contrib. (-TS)   =       0.00001886 Ry
     internal energy E=F+TS    =    -111.58280604 Ry

     The total energy is F=E-TS. E is the sum of the following terms:
     one-electron contribution =      11.99269339 Ry
     hartree contribution      =      13.99732870 Ry
     xc contribution           =     -52.91569584 Ry
     ewald contribution        =     -84.65713228 Ry

     total magnetization       =     5.40 Bohr mag/cell
     absolute magnetization    =     5.64 Bohr mag/cell

     convergence has been achieved in  12 iterations

     Forces acting on atoms (cartesian axes, Ry/au):

     atom    1 type  1   force =    -0.00000000   -0.00000074    0.00000000
     atom    2 type  1   force =     0.00000000    0.00000074    0.00000000
     The non-local contrib.  to forces
     atom    1 type  1   force =    -0.00000000   -0.00000340    0.00000000
     atom    2 type  1   force =     0.00000000    0.00000353    0.00000000
     The ionic contribution  to forces
     atom    1 type  1   force =     0.00000000   -0.00000154   -0.00002674
     atom    2 type  1   force =     0.00000000    0.00000154    0.00002674
     The local contribution  to forces
     atom    1 type  1   force =     0.00000000    0.00000385   -0.00000000
     atom    2 type  1   force =    -0.00000000   -0.00000386    0.00008640
     The core correction contribution to forces
     atom    1 type  1   force =     0.00000000    0.00000031    0.00000002
     atom    2 type  1   force =    -0.00000000   -0.00000030    0.00001390
     The Hubbard contrib.    to forces
     atom    1 type  1   force =     0.00000000    0.00000000    0.00000000
     atom    2 type  1   force =     0.00000000    0.00000000    0.00000000
     The SCF correction term to forces
     atom    1 type  1   force =    -0.00000000    0.00000010    0.00000000
     atom    2 type  1   force =     0.00000000   -0.00000011   -0.00000000

     Total force =     0.000001     Total SCF correction =     0.000000
     SCF correction compared to forces is large: reduce conv_thr to get better values


     Computing stress (Cartesian axis) and pressure

          total   stress  (Ry/bohr**3)                   (kbar)     P=       -0.30
  -0.00000192  -0.00000000   0.00000000           -0.28       -0.00        0.00
  -0.00000000  -0.00000194   0.00000000           -0.00       -0.29        0.00
   0.00000000   0.00000000  -0.00000223            0.00        0.00       -0.33

     Energy error            =      6.9E-07 Ry
     Gradient error          =      7.4E-07 Ry/Bohr
     Cell gradient error     =      3.3E-01 kbar

     bfgs converged in   6 scf cycles and   5 bfgs steps
     (criteria: energy <  1.0E-04 Ry, force <  1.0E-03 Ry/Bohr, cell <  5.0E-01 kbar)

     End of BFGS Geometry Optimization

     Final enthalpy           =    -111.5827871774 Ry

     File /home/gridsan/epan1/labutil/lab3_samples/problem1/Lab3/Fe_hcp_a_2.5_ecut_30_nk_6/pwscf.bfgs deleted, as requested
Begin final coordinates
     new unit-cell volume =    166.28124 a.u.^3 (    24.64034 Ang^3 )
     density =      7.52691 g/cm^3

CELL_PARAMETERS (angstrom)
   2.540310144  -0.000000000   0.000000000
  -1.270155072   2.199964890   0.000000000
   0.000000000   0.000000000   4.409041358

ATOMIC_POSITIONS (angstrom)
Fe            0.0000000000       -0.0000008110        0.0000000000
Fe            0.0000000000        1.4666484681        2.2045191106
End final coordinates



     Writing config-only to output data dir /home/gridsan/epan1/labutil/lab3_samples/problem1/Lab3/Fe_hcp_a_2.5_ecut_30_nk_6/pwscf.save/

     Final scf calculation at the relaxed structure.
     The G-vectors are recalculated for the final unit cell
     Results may differ from those at the preceding step.

     Parallelization info
     --------------------
     sticks:   dense  smooth     PW     G-vecs:    dense   smooth      PW
     Min          47      24      7                 1301      464      89
     Max          48      26      8                 1304      466      94
     Sum         379     199     61                10415     3719     725

     Using Slab Decomposition



     bravais-lattice index     =            0
     lattice parameter (alat)  =       4.7243  a.u.
     unit-cell volume          =     166.2812 (a.u.)^3
     number of atoms/cell      =            2
     number of atomic types    =            1
     number of electrons       =        16.00
     number of Kohn-Sham states=           12
     kinetic-energy cutoff     =      30.0000  Ry
     charge density cutoff     =     240.0000  Ry
     scf convergence threshold =      1.0E-09
     mixing beta               =       0.5000
     number of iterations used =            8  plain     mixing
     press convergence thresh. =      5.0E-01
     Exchange-correlation=  SLA  PW   PBE  PBE
                           (   1   4   3   4   0   0   0)

     celldm(1)=   4.724315  celldm(2)=   0.000000  celldm(3)=   0.000000
     celldm(4)=   0.000000  celldm(5)=   0.000000  celldm(6)=   0.000000

     crystal axes: (cart. coord. in units of alat)
               a(1) = (   1.016124  -0.000000   0.000000 )  
               a(2) = (  -0.508062   0.879986   0.000000 )  
               a(3) = (   0.000000   0.000000   1.763617 )  

     reciprocal axes: (cart. coord. in units 2 pi/alat)
               b(1) = (  0.984132  0.568191 -0.000000 )  
               b(2) = (  0.000000  1.136382 -0.000000 )  
               b(3) = ( -0.000000 -0.000000  0.567017 )  


     PseudoPot. # 1 for Fe read from file:
     /home/gridsan/epan1/labutil/lab3_samples/pseudopotentials/Fe.pbe-nd-rrkjus.UPF
     MD5 check sum: 398036227a04b607635f6f5e8dfd8242
     Pseudo is Ultrasoft + core correction, Zval =  8.0
     Generated by new atomic code, or converted to UPF format
     Using radial grid of  957 points,  6 beta functions with: 
                l(1) =   0
                l(2) =   0
                l(3) =   1
                l(4) =   1
                l(5) =   2
                l(6) =   2
     Q(r) pseudized with 0 coefficients 


     atomic species   valence    mass     pseudopotential
        Fe             8.00    55.84500     Fe( 1.00)

     Starting magnetic structure 
     atomic species   magnetization
        Fe           0.424

      4 Sym. Ops. (no inversion) found



   Cartesian axes

     site n.     atom                  positions (alat units)
         1           Fe  tau(   1) = (   0.0000000  -0.0000003   0.0000000  )
         2           Fe  tau(   2) = (   0.0000000   0.5866594   0.8818076  )

     number of k points=    52  Methfessel-Paxton smearing, width (Ry)=  0.0200
                       cart. coord. in units 2pi/alat
        k(    1) = (   0.0000000   0.0000000   0.0000000), wk =   0.0046296
        k(    2) = (   0.0000000   0.0000000   0.0945028), wk =   0.0092593
        k(    3) = (   0.0000000   0.0000000   0.1890056), wk =   0.0092593
        k(    4) = (   0.0000000   0.0000000  -0.2835083), wk =   0.0046296
        k(    5) = (   0.0000000   0.1893970   0.0000000), wk =   0.0092593
        k(    6) = (   0.0000000   0.1893970   0.0945028), wk =   0.0185185
        k(    7) = (   0.0000000   0.1893970   0.1890056), wk =   0.0185185
        k(    8) = (   0.0000000   0.1893970  -0.2835083), wk =   0.0092593
        k(    9) = (   0.0000000   0.3787939   0.0000000), wk =   0.0092593
        k(   10) = (   0.0000000   0.3787939   0.0945028), wk =   0.0185185
        k(   11) = (   0.0000000   0.3787939   0.1890056), wk =   0.0185185
        k(   12) = (   0.0000000   0.3787939  -0.2835083), wk =   0.0092593
        k(   13) = (  -0.0000000  -0.5681909   0.0000000), wk =   0.0046296
        k(   14) = (  -0.0000000  -0.5681909   0.0945028), wk =   0.0092593
        k(   15) = (  -0.0000000  -0.5681909   0.1890056), wk =   0.0092593
        k(   16) = (  -0.0000000  -0.5681909  -0.2835083), wk =   0.0046296
        k(   17) = (   0.1640220   0.2840954   0.0000000), wk =   0.0185185
        k(   18) = (   0.1640220   0.2840954   0.0945028), wk =   0.0370370
        k(   19) = (   0.1640220   0.2840954   0.1890056), wk =   0.0370370
        k(   20) = (   0.1640220   0.2840954  -0.2835083), wk =   0.0185185
        k(   21) = (   0.1640220   0.4734924   0.0000000), wk =   0.0185185
        k(   22) = (   0.1640220   0.4734924   0.0945028), wk =   0.0370370
        k(   23) = (   0.1640220   0.4734924   0.1890056), wk =   0.0370370
        k(   24) = (   0.1640220   0.4734924  -0.2835083), wk =   0.0185185
        k(   25) = (   0.3280439   0.5681909   0.0000000), wk =   0.0092593
        k(   26) = (   0.3280439   0.5681909   0.0945028), wk =   0.0185185
        k(   27) = (   0.3280439   0.5681909   0.1890056), wk =   0.0185185
        k(   28) = (   0.3280439   0.5681909  -0.2835083), wk =   0.0092593
        k(   29) = (   0.1640220  -0.0946985   0.0000000), wk =   0.0185185
        k(   30) = (   0.1640220  -0.0946985   0.0945028), wk =   0.0370370
        k(   31) = (   0.1640220  -0.0946985   0.1890056), wk =   0.0370370
        k(   32) = (   0.1640220  -0.0946985  -0.2835083), wk =   0.0185185
        k(   33) = (   0.3280439  -0.1893970   0.0000000), wk =   0.0185185
        k(   34) = (   0.3280439  -0.1893970   0.0945028), wk =   0.0370370
        k(   35) = (   0.3280439  -0.1893970   0.1890056), wk =   0.0370370
        k(   36) = (   0.3280439  -0.1893970  -0.2835083), wk =   0.0185185
        k(   37) = (  -0.4920659   0.2840954   0.0000000), wk =   0.0092593
        k(   38) = (  -0.4920659   0.2840954   0.0945028), wk =   0.0185185
        k(   39) = (  -0.4920659   0.2840954   0.1890056), wk =   0.0185185
        k(   40) = (  -0.4920659   0.2840954  -0.2835083), wk =   0.0092593
        k(   41) = (   0.3280439  -0.0000000   0.0000000), wk =   0.0092593
        k(   42) = (   0.3280439  -0.0000000  -0.0945028), wk =   0.0185185
        k(   43) = (   0.3280439  -0.0000000  -0.1890056), wk =   0.0185185
        k(   44) = (   0.3280439  -0.0000000   0.2835083), wk =   0.0092593
        k(   45) = (   0.3280439  -0.3787939   0.0000000), wk =   0.0185185
        k(   46) = (   0.4920659  -0.0946985   0.0000000), wk =   0.0185185
        k(   47) = (   0.3280439  -0.3787939   0.0945028), wk =   0.0370370
        k(   48) = (   0.4920659  -0.0946985  -0.0945028), wk =   0.0370370
        k(   49) = (   0.3280439  -0.3787939   0.1890056), wk =   0.0370370
        k(   50) = (   0.4920659  -0.0946985  -0.1890056), wk =   0.0370370
        k(   51) = (   0.3280439  -0.3787939  -0.2835083), wk =   0.0185185
        k(   52) = (   0.4920659  -0.0946985   0.2835083), wk =   0.0185185

     Dense  grid:    10415 G-vectors     FFT dimensions: (  24,  24,  45)

     Smooth grid:     3719 G-vectors     FFT dimensions: (  18,  18,  30)

     Estimated max dynamical RAM per process >       8.95 MB

     Estimated total dynamical RAM >      71.56 MB
     Generating pointlists ...

     Initial potential from superposition of free atoms

     starting charge      15.9987, renormalised to      16.0000
     Starting wfcs are   12 randomized atomic wfcs

     total cpu time spent up to now is       60.1 secs

     Self-consistent Calculation

     iteration #  1     ecut=    30.00 Ry     beta= 0.50
     Davidson diagonalization with overlap
     c_bands:  1 eigenvalues not converged
     c_bands:  1 eigenvalues not converged
     c_bands:  1 eigenvalues not converged
     c_bands:  1 eigenvalues not converged
     c_bands:  1 eigenvalues not converged
     c_bands:  1 eigenvalues not converged
     c_bands:  1 eigenvalues not converged
     c_bands:  1 eigenvalues not converged
     c_bands:  1 eigenvalues not converged
     c_bands:  1 eigenvalues not converged
     c_bands:  1 eigenvalues not converged
     c_bands:  1 eigenvalues not converged
     c_bands:  1 eigenvalues not converged
     c_bands:  2 eigenvalues not converged
     c_bands:  1 eigenvalues not converged
     c_bands:  1 eigenvalues not converged
     c_bands:  1 eigenvalues not converged
     c_bands:  1 eigenvalues not converged
     ethr =  1.00E-06,  avg # of iterations = 15.9

     total cpu time spent up to now is       62.5 secs

     total energy              =    -111.31438608 Ry
     estimated scf accuracy    <       0.70025392 Ry

     total magnetization       =     5.14 Bohr mag/cell
     absolute magnetization    =     5.14 Bohr mag/cell

     iteration #  2     ecut=    30.00 Ry     beta= 0.50
     Davidson diagonalization with overlap
     ethr =  4.38E-03,  avg # of iterations =  2.4

     total cpu time spent up to now is       63.1 secs

     total energy              =    -111.54940117 Ry
     estimated scf accuracy    <       0.15513399 Ry

     total magnetization       =     5.38 Bohr mag/cell
     absolute magnetization    =     5.40 Bohr mag/cell

     iteration #  3     ecut=    30.00 Ry     beta= 0.50
     Davidson diagonalization with overlap
     ethr =  9.70E-04,  avg # of iterations =  1.5

     total cpu time spent up to now is       63.6 secs

     total energy              =    -111.57497808 Ry
     estimated scf accuracy    <       0.00922364 Ry

     total magnetization       =     5.40 Bohr mag/cell
     absolute magnetization    =     5.45 Bohr mag/cell

     iteration #  4     ecut=    30.00 Ry     beta= 0.50
     Davidson diagonalization with overlap
     ethr =  5.76E-05,  avg # of iterations =  3.1

     total cpu time spent up to now is       64.2 secs

     total energy              =    -111.57861391 Ry
     estimated scf accuracy    <       0.00895070 Ry

     total magnetization       =     5.41 Bohr mag/cell
     absolute magnetization    =     5.57 Bohr mag/cell

     iteration #  5     ecut=    30.00 Ry     beta= 0.50
     Davidson diagonalization with overlap
     ethr =  5.59E-05,  avg # of iterations =  2.8

     total cpu time spent up to now is       64.9 secs

     total energy              =    -111.58452549 Ry
     estimated scf accuracy    <       0.00873255 Ry

     total magnetization       =     5.40 Bohr mag/cell
     absolute magnetization    =     5.62 Bohr mag/cell

     iteration #  6     ecut=    30.00 Ry     beta= 0.50
     Davidson diagonalization with overlap
     ethr =  5.46E-05,  avg # of iterations =  1.0

     total cpu time spent up to now is       65.3 secs

     total energy              =    -111.58237905 Ry
     estimated scf accuracy    <       0.00670830 Ry

     total magnetization       =     5.40 Bohr mag/cell
     absolute magnetization    =     5.62 Bohr mag/cell

     iteration #  7     ecut=    30.00 Ry     beta= 0.50
     Davidson diagonalization with overlap
     ethr =  4.19E-05,  avg # of iterations =  1.3

     total cpu time spent up to now is       65.8 secs

     total energy              =    -111.58282144 Ry
     estimated scf accuracy    <       0.00057042 Ry

     total magnetization       =     5.40 Bohr mag/cell
     absolute magnetization    =     5.63 Bohr mag/cell

     iteration #  8     ecut=    30.00 Ry     beta= 0.50
     Davidson diagonalization with overlap
     ethr =  3.57E-06,  avg # of iterations =  2.6

     total cpu time spent up to now is       66.4 secs

     total energy              =    -111.58302295 Ry
     estimated scf accuracy    <       0.00000378 Ry

     total magnetization       =     5.40 Bohr mag/cell
     absolute magnetization    =     5.63 Bohr mag/cell

     iteration #  9     ecut=    30.00 Ry     beta= 0.50
     Davidson diagonalization with overlap
     ethr =  2.36E-08,  avg # of iterations =  7.6

     total cpu time spent up to now is       67.6 secs

     total energy              =    -111.58303106 Ry
     estimated scf accuracy    <       0.00003553 Ry

     total magnetization       =     5.40 Bohr mag/cell
     absolute magnetization    =     5.64 Bohr mag/cell

     iteration # 10     ecut=    30.00 Ry     beta= 0.50
     Davidson diagonalization with overlap
     ethr =  2.36E-08,  avg # of iterations =  3.8

     total cpu time spent up to now is       68.3 secs

     total energy              =    -111.58303654 Ry
     estimated scf accuracy    <       0.00000031 Ry

     total magnetization       =     5.40 Bohr mag/cell
     absolute magnetization    =     5.64 Bohr mag/cell

     iteration # 11     ecut=    30.00 Ry     beta= 0.50
     Davidson diagonalization with overlap
     ethr =  1.94E-09,  avg # of iterations =  4.2

     total cpu time spent up to now is       69.1 secs

     total energy              =    -111.58303676 Ry
     estimated scf accuracy    <       0.00000016 Ry

     total magnetization       =     5.40 Bohr mag/cell
     absolute magnetization    =     5.64 Bohr mag/cell

     iteration # 12     ecut=    30.00 Ry     beta= 0.50
     Davidson diagonalization with overlap
     ethr =  9.89E-10,  avg # of iterations =  2.6

     total cpu time spent up to now is       70.3 secs

     total energy              =    -111.58303680 Ry
     estimated scf accuracy    <          2.7E-09 Ry

     total magnetization       =     5.40 Bohr mag/cell
     absolute magnetization    =     5.64 Bohr mag/cell

     iteration # 13     ecut=    30.00 Ry     beta= 0.50
     Davidson diagonalization with overlap
     ethr =  1.72E-11,  avg # of iterations =  8.0

     total cpu time spent up to now is       71.8 secs

     total energy              =    -111.58303681 Ry
     estimated scf accuracy    <          5.3E-09 Ry

     total magnetization       =     5.40 Bohr mag/cell
     absolute magnetization    =     5.64 Bohr mag/cell

     iteration # 14     ecut=    30.00 Ry     beta= 0.50
     Davidson diagonalization with overlap
     ethr =  1.72E-11,  avg # of iterations =  2.4

     Magnetic moment per site  (integrated on atomic sphere of radius R)
     atom   1 (R=0.412)  charge=  6.4732  magn=  2.7413
     atom   2 (R=0.412)  charge=  6.4726  magn=  2.7412

     total cpu time spent up to now is       72.4 secs

     End of self-consistent calculation

     Number of k-points >= 100: set verbosity='high' to print the bands.

     the Fermi energy is    12.5246 ev

!    total energy              =    -111.58303681 Ry
     estimated scf accuracy    <          3.5E-10 Ry
     smearing contrib. (-TS)   =       0.00001673 Ry
     internal energy E=F+TS    =    -111.58305354 Ry

     The total energy is F=E-TS. E is the sum of the following terms:
     one-electron contribution =      11.99204993 Ry
     hartree contribution      =      13.99580438 Ry
     xc contribution           =     -52.91377564 Ry
     ewald contribution        =     -84.65713221 Ry

     total magnetization       =     5.40 Bohr mag/cell
     absolute magnetization    =     5.64 Bohr mag/cell

     convergence has been achieved in  14 iterations

     Forces acting on atoms (cartesian axes, Ry/au):

     atom    1 type  1   force =    -0.00000000   -0.00000093    0.00000000
     atom    2 type  1   force =     0.00000000    0.00000093    0.00000000
     The non-local contrib.  to forces
     atom    1 type  1   force =    -0.00000000   -0.00000317    0.00000000
     atom    2 type  1   force =     0.00000000    0.00000353    0.00000000
     The ionic contribution  to forces
     atom    1 type  1   force =    -0.00000000   -0.00000154   -0.00002674
     atom    2 type  1   force =     0.00000000    0.00000154    0.00002674
     The local contribution  to forces
     atom    1 type  1   force =    -0.00000000    0.00000348    0.00000000
     atom    2 type  1   force =    -0.00000000   -0.00000384    0.00008638
     The core correction contribution to forces
     atom    1 type  1   force =     0.00000000    0.00000024   -0.00000000
     atom    2 type  1   force =    -0.00000000   -0.00000028    0.00001389
     The Hubbard contrib.    to forces
     atom    1 type  1   force =     0.00000000    0.00000000    0.00000000
     atom    2 type  1   force =     0.00000000    0.00000000    0.00000000
     The SCF correction term to forces
     atom    1 type  1   force =     0.00000000    0.00000011    0.00000000
     atom    2 type  1   force =    -0.00000000    0.00000004   -0.00000000

     Total force =     0.000001     Total SCF correction =     0.000000


     Computing stress (Cartesian axis) and pressure

          total   stress  (Ry/bohr**3)                   (kbar)     P=       -7.19
  -0.00003936  -0.00000000   0.00000000           -5.79       -0.00        0.00
  -0.00000000  -0.00003938   0.00000000           -0.00       -5.79        0.00
   0.00000000   0.00000000  -0.00006788            0.00        0.00       -9.99


     init_run     :      0.80s CPU      2.18s WALL (       2 calls)
     electrons    :     67.00s CPU     64.56s WALL (       7 calls)
     update_pot   :      0.45s CPU      0.51s WALL (       5 calls)
     forces       :      0.81s CPU      1.33s WALL (       7 calls)
     stress       :      2.32s CPU      2.70s WALL (       7 calls)

     Called by init_run:
     wfcinit      :      0.22s CPU      0.25s WALL (       2 calls)
     potinit      :      0.17s CPU      0.22s WALL (       2 calls)
     hinit0       :      0.40s CPU      0.54s WALL (       2 calls)

     Called by electrons:
     c_bands      :     58.00s CPU     55.40s WALL (      91 calls)
     sum_band     :      7.47s CPU      7.11s WALL (      91 calls)
     v_of_rho     :      0.72s CPU      0.96s WALL (      98 calls)
     newd         :      0.51s CPU      0.45s WALL (      98 calls)
     mix_rho      :      0.17s CPU      0.18s WALL (      91 calls)

     Called by c_bands:
     init_us_2    :      0.77s CPU      0.78s WALL (   20592 calls)
     init_us_2:cp :      0.74s CPU      0.70s WALL (   20592 calls)
     cegterg      :     51.63s CPU     46.93s WALL (    9464 calls)

     Called by *egterg:
     cdiaghg      :     11.23s CPU     10.15s WALL (   37931 calls)
     h_psi        :     32.76s CPU     29.75s WALL (   38659 calls)
     s_psi        :      0.98s CPU      0.88s WALL (   38659 calls)
     g_psi        :      0.13s CPU      0.12s WALL (   28987 calls)

     Called by h_psi:
     h_psi:calbec :      2.78s CPU      2.64s WALL (   38659 calls)
     vloc_psi     :     28.95s CPU     26.06s WALL (   38659 calls)
     add_vuspsi   :      0.77s CPU      0.69s WALL (   38659 calls)

     General routines
     calbec       :      3.94s CPU      3.72s WALL (   51763 calls)
     fft          :      0.51s CPU      0.46s WALL (    2721 calls)
     ffts         :      0.15s CPU      0.14s WALL (     378 calls)
     fftw         :     30.47s CPU     27.35s WALL (  789882 calls)
     interpolate  :      0.14s CPU      0.13s WALL (     196 calls)

     Parallel routines

     PWSCF        :   1m11.74s CPU   1m13.30s WALL


   This run was terminated on:  10:27: 7  31Oct2023            

=------------------------------------------------------------------------------=
   JOB DONE.
=------------------------------------------------------------------------------=
