
     Program PWSCF v.7.2 starts on  3Nov2023 at 11: 5:42 

     This program is part of the open-source Quantum ESPRESSO suite
     for quantum simulation of materials; please cite
         "P. Giannozzi et al., J. Phys.:Condens. Matter 21 395502 (2009);
         "P. Giannozzi et al., J. Phys.:Condens. Matter 29 465901 (2017);
         "P. Giannozzi et al., J. Chem. Phys. 152 154105 (2020);
          URL http://www.quantum-espresso.org", 
     in publications or presentations arising from this work. More details at
     http://www.quantum-espresso.org/quote

     Parallel version (MPI), running on     8 processors

     MPI processes distributed on     8 nodes
     185450 MiB available memory on the printing compute node when the environment starts

     Waiting for input...
     Reading input from standard input

     Current dimensions of program PWSCF are:
     Max number of different atomic species (ntypx) = 10
     Max number of k-points (npk) =  40000
     Max angular momentum in pseudopotentials (lmaxx) =  4
     Message from routine setup:
     using ibrav=0 with symmetry is DISCOURAGED, use correct ibrav instead

     R & G space division:  proc/nbgrp/npool/nimage =       8
     Subspace diagonalization in iterative solution of the eigenvalue problem:
     a serial algorithm will be used


     Parallelization info
     --------------------
     sticks:   dense  smooth     PW     G-vecs:    dense   smooth      PW
     Min          79      39     10                 1301      461      57
     Max          80      40     11                 1303      463      58
     Sum         637     313     85                10417     3695     459

     Using Slab Decomposition



     bravais-lattice index     =            0
     lattice parameter (alat)  =       5.3450  a.u.
     unit-cell volume          =     107.9734 (a.u.)^3
     number of atoms/cell      =            1
     number of atomic types    =            1
     number of electrons       =        11.00
     number of Kohn-Sham states=           10
     kinetic-energy cutoff     =      40.0000  Ry
     charge density cutoff     =     320.0000  Ry
     scf convergence threshold =      1.0E-07
     mixing beta               =       0.5000
     number of iterations used =            8  plain     mixing
     energy convergence thresh.=      1.0E-04
     force convergence thresh. =      1.0E-03
     press convergence thresh. =      5.0E-01
     Exchange-correlation=  SLA  PZ   NOGX NOGC
                           (   1   1   0   0   0   0   0)
     nstep                     =           50


     celldm(1)=   5.344953  celldm(2)=   0.000000  celldm(3)=   0.000000
     celldm(4)=   0.000000  celldm(5)=   0.000000  celldm(6)=   0.000000

     crystal axes: (cart. coord. in units of alat)
               a(1) = (   0.000000   0.707107   0.707107 )  
               a(2) = (   0.707107   0.000000   0.707107 )  
               a(3) = (   0.707107   0.707107   0.000000 )  

     reciprocal axes: (cart. coord. in units 2 pi/alat)
               b(1) = ( -0.707107  0.707107  0.707107 )  
               b(2) = (  0.707107 -0.707107  0.707107 )  
               b(3) = (  0.707107  0.707107 -0.707107 )  


     PseudoPot. # 1 for Au read from file:
     /home/gridsan/epan1/labutil/lab3_samples/pseudopotentials/Au.pz-d-rrkjus.UPF
     MD5 check sum: 424ffd4ac9c90487cbadcd287136c95b
     Pseudo is Ultrasoft, Zval = 11.0
     Generated by new atomic code, or converted to UPF format
     Using radial grid of 1279 points,  3 beta functions with: 
                l(1) =   2
                l(2) =   2
                l(3) =   1
     Q(r) pseudized with 0 coefficients 


     atomic species   valence    mass     pseudopotential
        Au            11.00   196.96657     Au( 1.00)

     Starting magnetic structure 
     atomic species   magnetization
        Au           0.700

     48 Sym. Ops., with inversion, found



   Cartesian axes

     site n.     atom                  positions (alat units)
         1           Au  tau(   1) = (   0.0000000   0.0000000   0.0000000  )

     number of k points=     1  Methfessel-Paxton smearing, width (Ry)=  0.0200
                       cart. coord. in units 2pi/alat
        k(    1) = (   0.0000000   0.0000000   0.0000000), wk =   1.0000000

     Dense  grid:    10417 G-vectors     FFT dimensions: (  32,  32,  32)

     Smooth grid:     3695 G-vectors     FFT dimensions: (  24,  24,  24)

     Estimated max dynamical RAM per process >       4.66 MB

     Estimated total dynamical RAM >      37.31 MB
     Generating pointlists ...
     new r_m :   0.4125 (alat units)  2.2048 (a.u.) for type    1

     Initial potential from superposition of free atoms

     starting charge      10.9999, renormalised to      11.0000
     Starting wfcs are    9 randomized atomic wfcs +    1 random wfcs

     total cpu time spent up to now is        0.6 secs

     Self-consistent Calculation

     iteration #  1     ecut=    40.00 Ry     beta= 0.50
     Davidson diagonalization with overlap
     ethr =  1.00E-02,  avg # of iterations =  9.0

     total cpu time spent up to now is        0.6 secs

     total energy              =     -67.57569393 Ry
     estimated scf accuracy    <       0.39146909 Ry

     total magnetization       =     1.00 Bohr mag/cell
     absolute magnetization    =     1.14 Bohr mag/cell

     iteration #  2     ecut=    40.00 Ry     beta= 0.50
     Davidson diagonalization with overlap
     ethr =  3.56E-03,  avg # of iterations =  1.5

     total cpu time spent up to now is        0.6 secs

     total energy              =     -67.73950227 Ry
     estimated scf accuracy    <       0.07699103 Ry

     total magnetization       =     1.00 Bohr mag/cell
     absolute magnetization    =     1.06 Bohr mag/cell

     iteration #  3     ecut=    40.00 Ry     beta= 0.50
     Davidson diagonalization with overlap
     ethr =  7.00E-04,  avg # of iterations =  1.0

     total cpu time spent up to now is        0.6 secs

     total energy              =     -67.75153747 Ry
     estimated scf accuracy    <       0.00595730 Ry

     total magnetization       =     1.00 Bohr mag/cell
     absolute magnetization    =     1.02 Bohr mag/cell

     iteration #  4     ecut=    40.00 Ry     beta= 0.50
     Davidson diagonalization with overlap
     ethr =  5.42E-05,  avg # of iterations =  1.5

     total cpu time spent up to now is        0.6 secs

     total energy              =     -67.75206654 Ry
     estimated scf accuracy    <       0.00005300 Ry

     total magnetization       =     1.00 Bohr mag/cell
     absolute magnetization    =     1.01 Bohr mag/cell

     iteration #  5     ecut=    40.00 Ry     beta= 0.50
     Davidson diagonalization with overlap
     ethr =  4.82E-07,  avg # of iterations =  5.0

     total cpu time spent up to now is        0.7 secs

     total energy              =     -67.75209040 Ry
     estimated scf accuracy    <       0.00001366 Ry

     total magnetization       =     1.00 Bohr mag/cell
     absolute magnetization    =     1.01 Bohr mag/cell

     iteration #  6     ecut=    40.00 Ry     beta= 0.50
     Davidson diagonalization with overlap
     ethr =  1.24E-07,  avg # of iterations =  1.5

     Magnetic moment per site  (integrated on atomic sphere of radius R)
     atom   1 (R=0.413)  charge=  9.3251  magn=  0.9695

     total cpu time spent up to now is        0.7 secs

     End of self-consistent calculation

 ------ SPIN UP ------------


          k = 0.0000 0.0000 0.0000 (   459 PWs)   bands (ev):

     6.3238  11.5001  11.5001  11.5001  12.7404  12.7404  33.8835  37.2366
    37.2366  37.2366

 ------ SPIN DOWN ----------


          k = 0.0000 0.0000 0.0000 (   459 PWs)   bands (ev):

     6.6138  12.1492  12.1492  12.1492  14.1460  14.1460  33.9276  37.5981
    37.5981  37.5981

     the Fermi energy is    14.1460 ev

!    total energy              =     -67.75209341 Ry
     estimated scf accuracy    <       0.00000008 Ry
     smearing contrib. (-TS)   =      -0.00564190 Ry
     internal energy E=F+TS    =     -67.74645151 Ry

     The total energy is F=E-TS. E is the sum of the following terms:
     one-electron contribution =       9.46230977 Ry
     hartree contribution      =       6.67204158 Ry
     xc contribution           =     -10.48811598 Ry
     ewald contribution        =     -73.39268687 Ry

     total magnetization       =     1.00 Bohr mag/cell
     absolute magnetization    =     1.01 Bohr mag/cell

     convergence has been achieved in   6 iterations

     Forces acting on atoms (cartesian axes, Ry/au):

     atom    1 type  1   force =     0.00000000    0.00000000    0.00000000
     The non-local contrib.  to forces
     atom    1 type  1   force =     0.00000000    0.00000000    0.00000000
     The ionic contribution  to forces
     atom    1 type  1   force =    -0.00000000   -0.00000000   -0.00000000
     The local contribution  to forces
     atom    1 type  1   force =     0.00000000    0.00000000    0.00000000
     The core correction contribution to forces
     atom    1 type  1   force =     0.00000000    0.00000000    0.00000000
     The Hubbard contrib.    to forces
     atom    1 type  1   force =     0.00000000    0.00000000    0.00000000
     The SCF correction term to forces
     atom    1 type  1   force =     0.00000000    0.00000000    0.00000000

     Total force =     0.000000     Total SCF correction =     0.000000


     Computing stress (Cartesian axis) and pressure

          total   stress  (Ry/bohr**3)                   (kbar)     P=    -1000.30
  -0.00679993   0.00000000  -0.00000000        -1000.30        0.00       -0.00
   0.00000000  -0.00679993   0.00000000            0.00    -1000.30        0.00
   0.00000000  -0.00000000  -0.00679993            0.00       -0.00    -1000.30


     BFGS Geometry Optimization
     Energy error            =      0.0E+00 Ry
     Gradient error          =      0.0E+00 Ry/Bohr
     Cell gradient error     =      1.0E+03 kbar

     number of scf cycles    =   1
     number of bfgs steps    =   0

     enthalpy           new  =     -67.7520934075 Ry

     new trust radius        =       0.3532913450 bohr
     new conv_thr            =       0.0000001000 Ry

     new unit-cell volume =     61.73813 a.u.^3 (     9.14865 Ang^3 )
     density =     35.75072 g/cm^3

CELL_PARAMETERS (angstrom)
   0.000000000   1.660003297   1.660003297
   1.660003297   0.000000000   1.660003297
   1.660003297   1.660003297  -0.000000000

ATOMIC_POSITIONS (angstrom)
Au            0.0000000000        0.0000000000        0.0000000000



     Writing config-only to output data dir /home/gridsan/epan1/labutil/lab3_samples/problem3/Lab3/Au_a_4.0_ecut_40_nk_1/pwscf.save/
     NEW-OLD atomic charge density approx. for the potential

     negative rho (up, down):  4.176E-01 4.176E-01
     extrapolated charge    2.76224, renormalised to   11.00000
     Generating pointlists ...
     new r_m :   0.3424 (alat units)  1.8300 (a.u.) for type    1

     total cpu time spent up to now is        1.0 secs

     Self-consistent Calculation

     iteration #  1     ecut=    40.00 Ry     beta= 0.50
     Davidson diagonalization with overlap
     ethr =  1.00E-06,  avg # of iterations =  5.0

     negative rho (up, down):  1.822E-01 1.927E-01

     total cpu time spent up to now is        1.0 secs

     total energy              =     -69.68010903 Ry
     estimated scf accuracy    <      38.41825595 Ry

     total magnetization       =     0.58 Bohr mag/cell
     absolute magnetization    =     0.58 Bohr mag/cell

     iteration #  2     ecut=    40.00 Ry     beta= 0.50
     Davidson diagonalization with overlap
     ethr =  1.00E-02,  avg # of iterations =  2.0

     total cpu time spent up to now is        1.0 secs

     total energy              =     -66.79217607 Ry
     estimated scf accuracy    <       4.68775021 Ry

     total magnetization       =     1.07 Bohr mag/cell
     absolute magnetization    =     1.07 Bohr mag/cell

     iteration #  3     ecut=    40.00 Ry     beta= 0.50
     Davidson diagonalization with overlap
     ethr =  1.00E-02,  avg # of iterations =  2.0

     total cpu time spent up to now is        1.0 secs

     total energy              =     -67.80003305 Ry
     estimated scf accuracy    <       0.14144947 Ry

     total magnetization       =     1.00 Bohr mag/cell
     absolute magnetization    =     1.00 Bohr mag/cell

     iteration #  4     ecut=    40.00 Ry     beta= 0.50
     Davidson diagonalization with overlap
     ethr =  1.29E-03,  avg # of iterations =  2.0

     total cpu time spent up to now is        1.0 secs

     total energy              =     -67.82204391 Ry
     estimated scf accuracy    <       0.00503347 Ry

     total magnetization       =     1.00 Bohr mag/cell
     absolute magnetization    =     1.00 Bohr mag/cell

     iteration #  5     ecut=    40.00 Ry     beta= 0.50
     Davidson diagonalization with overlap
     ethr =  4.58E-05,  avg # of iterations =  1.0

     total cpu time spent up to now is        1.1 secs

     total energy              =     -67.82208464 Ry
     estimated scf accuracy    <       0.00009611 Ry

     total magnetization       =     1.00 Bohr mag/cell
     absolute magnetization    =     1.00 Bohr mag/cell

     iteration #  6     ecut=    40.00 Ry     beta= 0.50
     Davidson diagonalization with overlap
     ethr =  8.74E-07,  avg # of iterations =  2.0

     total cpu time spent up to now is        1.1 secs

     total energy              =     -67.82209987 Ry
     estimated scf accuracy    <       0.00000215 Ry

     total magnetization       =     1.00 Bohr mag/cell
     absolute magnetization    =     1.00 Bohr mag/cell

     iteration #  7     ecut=    40.00 Ry     beta= 0.50
     Davidson diagonalization with overlap
     ethr =  1.96E-08,  avg # of iterations =  1.5

     total cpu time spent up to now is        1.1 secs

     total energy              =     -67.82209993 Ry
     estimated scf accuracy    <       0.00000018 Ry

     total magnetization       =     1.00 Bohr mag/cell
     absolute magnetization    =     1.00 Bohr mag/cell

     iteration #  8     ecut=    40.00 Ry     beta= 0.50
     Davidson diagonalization with overlap
     ethr =  1.60E-09,  avg # of iterations =  1.5

     Magnetic moment per site  (integrated on atomic sphere of radius R)
     atom   1 (R=0.342)  charge=  8.6162  magn=  0.9255

     total cpu time spent up to now is        1.1 secs

     End of self-consistent calculation

 ------ SPIN UP ------------


          k = 0.0000 0.0000 0.0000 (   459 PWs)   bands (ev):

    16.7746  25.2064  25.2064  25.2064  28.9935  28.9935  53.1753  60.1306
    60.1306  60.1306

 ------ SPIN DOWN ----------


          k = 0.0000 0.0000 0.0000 (   459 PWs)   bands (ev):

    17.1681  25.8888  25.8888  25.8888  30.4662  30.4662  53.2772  60.5895
    60.5895  60.5895

     the Fermi energy is    30.4662 ev

!    total energy              =     -67.82209994 Ry
     estimated scf accuracy    <          5.1E-09 Ry
     smearing contrib. (-TS)   =      -0.00564190 Ry
     internal energy E=F+TS    =     -67.81645805 Ry

     The total energy is F=E-TS. E is the sum of the following terms:
     one-electron contribution =      28.82355740 Ry
     hartree contribution      =       3.18117211 Ry
     xc contribution           =     -11.39643922 Ry
     ewald contribution        =     -88.42474835 Ry

     total magnetization       =     1.00 Bohr mag/cell
     absolute magnetization    =     1.00 Bohr mag/cell

     convergence has been achieved in   8 iterations

     Forces acting on atoms (cartesian axes, Ry/au):

     atom    1 type  1   force =     0.00000000    0.00000000    0.00000000
     The non-local contrib.  to forces
     atom    1 type  1   force =     0.00000000    0.00000000    0.00000000
     The ionic contribution  to forces
     atom    1 type  1   force =    -0.00000000   -0.00000000   -0.00000000
     The local contribution  to forces
     atom    1 type  1   force =     0.00000000    0.00000000    0.00000000
     The core correction contribution to forces
     atom    1 type  1   force =     0.00000000    0.00000000    0.00000000
     The Hubbard contrib.    to forces
     atom    1 type  1   force =     0.00000000    0.00000000    0.00000000
     The SCF correction term to forces
     atom    1 type  1   force =     0.00000000    0.00000000    0.00000000

     Total force =     0.000000     Total SCF correction =     0.000000


     Computing stress (Cartesian axis) and pressure

          total   stress  (Ry/bohr**3)                   (kbar)     P=     2155.44
   0.01465236  -0.00000000  -0.00000000         2155.44       -0.00       -0.00
  -0.00000000   0.01465236  -0.00000000           -0.00     2155.44       -0.00
  -0.00000000  -0.00000000   0.01465236           -0.00       -0.00     2155.44

     Energy error            =      7.0E-02 Ry
     Gradient error          =      0.0E+00 Ry/Bohr
     Cell gradient error     =      2.2E+03 kbar

     number of scf cycles    =   2
     number of bfgs steps    =   1

     enthalpy           old  =     -67.7520934075 Ry
     enthalpy           new  =     -67.8220999441 Ry

     CASE: enthalpy          _new < enthalpy          _old

     new trust radius        =       0.1923117608 bohr
     new conv_thr            =       0.0000000010 Ry

     new unit-cell volume =     87.29101 a.u.^3 (    12.93519 Ang^3 )
     density =     25.28534 g/cm^3

CELL_PARAMETERS (angstrom)
  -0.000000000   1.863149203   1.863149203
   1.863149203  -0.000000000   1.863149203
   1.863149203   1.863149203  -0.000000000

ATOMIC_POSITIONS (angstrom)
Au            0.0000000000        0.0000000000        0.0000000000



     Writing config-only to output data dir /home/gridsan/epan1/labutil/lab3_samples/problem3/Lab3/Au_a_4.0_ecut_40_nk_1/pwscf.save/
     NEW-OLD atomic charge density approx. for the potential
     extrapolated charge   14.22003, renormalised to   11.00000
     Generating pointlists ...

     total cpu time spent up to now is        1.3 secs

     Self-consistent Calculation

     iteration #  1     ecut=    40.00 Ry     beta= 0.50
     Davidson diagonalization with overlap
     ethr =  1.00E-06,  avg # of iterations =  4.0

     total cpu time spent up to now is        1.4 secs

     total energy              =     -67.53781614 Ry
     estimated scf accuracy    <       0.12203026 Ry

     total magnetization       =     1.00 Bohr mag/cell
     absolute magnetization    =     1.01 Bohr mag/cell

     iteration #  2     ecut=    40.00 Ry     beta= 0.50
     Davidson diagonalization with overlap
     ethr =  1.11E-03,  avg # of iterations =  2.0

     total cpu time spent up to now is        1.4 secs

     total energy              =     -67.90724194 Ry
     estimated scf accuracy    <       0.18085332 Ry

     total magnetization       =     1.00 Bohr mag/cell
     absolute magnetization    =     1.01 Bohr mag/cell

     iteration #  3     ecut=    40.00 Ry     beta= 0.50
     Davidson diagonalization with overlap
     ethr =  1.11E-03,  avg # of iterations =  1.0

     total cpu time spent up to now is        1.4 secs

     total energy              =     -67.86631298 Ry
     estimated scf accuracy    <       0.07462580 Ry

     total magnetization       =     1.00 Bohr mag/cell
     absolute magnetization    =     1.00 Bohr mag/cell

     iteration #  4     ecut=    40.00 Ry     beta= 0.50
     Davidson diagonalization with overlap
     ethr =  6.78E-04,  avg # of iterations =  2.0

     total cpu time spent up to now is        1.4 secs

     total energy              =     -67.87638106 Ry
     estimated scf accuracy    <       0.00109361 Ry

     total magnetization       =     1.00 Bohr mag/cell
     absolute magnetization    =     1.00 Bohr mag/cell

     iteration #  5     ecut=    40.00 Ry     beta= 0.50
     Davidson diagonalization with overlap
     ethr =  9.94E-06,  avg # of iterations =  2.0

     total cpu time spent up to now is        1.4 secs

     total energy              =     -67.87669713 Ry
     estimated scf accuracy    <       0.00134643 Ry

     total magnetization       =     1.00 Bohr mag/cell
     absolute magnetization    =     1.00 Bohr mag/cell

     iteration #  6     ecut=    40.00 Ry     beta= 0.50
     Davidson diagonalization with overlap
     ethr =  9.94E-06,  avg # of iterations =  2.0

     total cpu time spent up to now is        1.5 secs

     total energy              =     -67.87667128 Ry
     estimated scf accuracy    <       0.00017653 Ry

     total magnetization       =     1.00 Bohr mag/cell
     absolute magnetization    =     1.00 Bohr mag/cell

     iteration #  7     ecut=    40.00 Ry     beta= 0.50
     Davidson diagonalization with overlap
     ethr =  1.60E-06,  avg # of iterations =  2.0

     total cpu time spent up to now is        1.5 secs

     total energy              =     -67.87671570 Ry
     estimated scf accuracy    <       0.00000449 Ry

     total magnetization       =     1.00 Bohr mag/cell
     absolute magnetization    =     1.00 Bohr mag/cell

     iteration #  8     ecut=    40.00 Ry     beta= 0.50
     Davidson diagonalization with overlap
     ethr =  4.09E-08,  avg # of iterations =  2.0

     total cpu time spent up to now is        1.5 secs

     total energy              =     -67.87671469 Ry
     estimated scf accuracy    <       0.00000185 Ry

     total magnetization       =     1.00 Bohr mag/cell
     absolute magnetization    =     1.00 Bohr mag/cell

     iteration #  9     ecut=    40.00 Ry     beta= 0.50
     Davidson diagonalization with overlap
     ethr =  1.68E-08,  avg # of iterations =  2.0

     total cpu time spent up to now is        1.5 secs

     total energy              =     -67.87671506 Ry
     estimated scf accuracy    <          4.0E-09 Ry

     total magnetization       =     1.00 Bohr mag/cell
     absolute magnetization    =     1.00 Bohr mag/cell

     iteration # 10     ecut=    40.00 Ry     beta= 0.50
     Davidson diagonalization with overlap
     ethr =  3.61E-11,  avg # of iterations =  2.0

     total cpu time spent up to now is        1.5 secs

     total energy              =     -67.87671506 Ry
     estimated scf accuracy    <          1.9E-09 Ry

     total magnetization       =     1.00 Bohr mag/cell
     absolute magnetization    =     1.00 Bohr mag/cell

     iteration # 11     ecut=    40.00 Ry     beta= 0.50
     Davidson diagonalization with overlap
     ethr =  1.73E-11,  avg # of iterations =  1.0

     Magnetic moment per site  (integrated on atomic sphere of radius R)
     atom   1 (R=0.342)  charge=  7.9274  magn=  0.8949

     total cpu time spent up to now is        1.6 secs

     End of self-consistent calculation

 ------ SPIN UP ------------


          k = 0.0000 0.0000 0.0000 (   459 PWs)   bands (ev):

     9.5325  16.0710  16.0710  16.0710  18.0489  18.0489  40.1135  44.7753
    44.7753  44.7753

 ------ SPIN DOWN ----------


          k = 0.0000 0.0000 0.0000 (   459 PWs)   bands (ev):

     9.8563  16.7280  16.7280  16.7280  19.4754  19.4754  40.1780  45.1631
    45.1631  45.1631

     the Fermi energy is    19.4754 ev

!    total energy              =     -67.87671506 Ry
     estimated scf accuracy    <          3.0E-10 Ry
     smearing contrib. (-TS)   =      -0.00564190 Ry
     internal energy E=F+TS    =     -67.87107317 Ry

     The total energy is F=E-TS. E is the sum of the following terms:
     one-electron contribution =      16.52395365 Ry
     hartree contribution      =       5.15754392 Ry
     xc contribution           =     -10.76909300 Ry
     ewald contribution        =     -78.78347774 Ry

     total magnetization       =     1.00 Bohr mag/cell
     absolute magnetization    =     1.00 Bohr mag/cell

     convergence has been achieved in  11 iterations

     Forces acting on atoms (cartesian axes, Ry/au):

     atom    1 type  1   force =     0.00000000    0.00000000    0.00000000
     The non-local contrib.  to forces
     atom    1 type  1   force =     0.00000000    0.00000000    0.00000000
     The ionic contribution  to forces
     atom    1 type  1   force =    -0.00000000   -0.00000000   -0.00000000
     The local contribution  to forces
     atom    1 type  1   force =     0.00000000    0.00000000    0.00000000
     The core correction contribution to forces
     atom    1 type  1   force =     0.00000000    0.00000000    0.00000000
     The Hubbard contrib.    to forces
     atom    1 type  1   force =     0.00000000    0.00000000    0.00000000
     The SCF correction term to forces
     atom    1 type  1   force =     0.00000000    0.00000000    0.00000000

     Total force =     0.000000     Total SCF correction =     0.000000


     Computing stress (Cartesian axis) and pressure

          total   stress  (Ry/bohr**3)                   (kbar)     P=     -666.42
  -0.00453020  -0.00000000  -0.00000000         -666.42       -0.00       -0.00
  -0.00000000  -0.00453020   0.00000000           -0.00     -666.42        0.00
  -0.00000000   0.00000000  -0.00453020           -0.00        0.00     -666.42

     Energy error            =      5.5E-02 Ry
     Gradient error          =      0.0E+00 Ry/Bohr
     Cell gradient error     =      6.7E+02 kbar

     number of scf cycles    =   3
     number of bfgs steps    =   2

     enthalpy           old  =     -67.8220999441 Ry
     enthalpy           new  =     -67.8767150621 Ry

     CASE: enthalpy          _new < enthalpy          _old

     new trust radius        =       0.0571096348 bohr
     new conv_thr            =       0.0000000010 Ry

     new unit-cell volume =     79.52953 a.u.^3 (    11.78506 Ang^3 )
     density =     27.75299 g/cm^3

CELL_PARAMETERS (angstrom)
  -0.000000000   1.806205950   1.806205950
   1.806205950  -0.000000000   1.806205950
   1.806205950   1.806205950  -0.000000000

ATOMIC_POSITIONS (angstrom)
Au            0.0000000000        0.0000000000        0.0000000000



     Writing config-only to output data dir /home/gridsan/epan1/labutil/lab3_samples/problem3/Lab3/Au_a_4.0_ecut_40_nk_1/pwscf.save/
     NEW-OLD atomic charge density approx. for the potential
     extrapolated charge    9.92649, renormalised to   11.00000
     Generating pointlists ...

     total cpu time spent up to now is        1.8 secs

     Self-consistent Calculation

     iteration #  1     ecut=    40.00 Ry     beta= 0.50
     Davidson diagonalization with overlap
     ethr =  1.00E-06,  avg # of iterations =  3.0

     total cpu time spent up to now is        1.8 secs

     total energy              =     -67.85232930 Ry
     estimated scf accuracy    <       0.05195046 Ry

     total magnetization       =     1.00 Bohr mag/cell
     absolute magnetization    =     1.00 Bohr mag/cell

     iteration #  2     ecut=    40.00 Ry     beta= 0.50
     Davidson diagonalization with overlap
     ethr =  4.72E-04,  avg # of iterations =  2.0

     total cpu time spent up to now is        1.8 secs

     total energy              =     -67.90326149 Ry
     estimated scf accuracy    <       0.00897670 Ry

     total magnetization       =     1.00 Bohr mag/cell
     absolute magnetization    =     1.00 Bohr mag/cell

     iteration #  3     ecut=    40.00 Ry     beta= 0.50
     Davidson diagonalization with overlap
     ethr =  8.16E-05,  avg # of iterations =  1.0

     total cpu time spent up to now is        1.8 secs

     total energy              =     -67.90237405 Ry
     estimated scf accuracy    <       0.00187105 Ry

     total magnetization       =     1.00 Bohr mag/cell
     absolute magnetization    =     1.00 Bohr mag/cell

     iteration #  4     ecut=    40.00 Ry     beta= 0.50
     Davidson diagonalization with overlap
     ethr =  1.70E-05,  avg # of iterations =  2.0

     total cpu time spent up to now is        1.9 secs

     total energy              =     -67.90284648 Ry
     estimated scf accuracy    <       0.00007283 Ry

     total magnetization       =     1.00 Bohr mag/cell
     absolute magnetization    =     1.00 Bohr mag/cell

     iteration #  5     ecut=    40.00 Ry     beta= 0.50
     Davidson diagonalization with overlap
     ethr =  6.62E-07,  avg # of iterations =  1.0

     total cpu time spent up to now is        1.9 secs

     total energy              =     -67.90282486 Ry
     estimated scf accuracy    <       0.00004113 Ry

     total magnetization       =     1.00 Bohr mag/cell
     absolute magnetization    =     1.00 Bohr mag/cell

     iteration #  6     ecut=    40.00 Ry     beta= 0.50
     Davidson diagonalization with overlap
     ethr =  3.74E-07,  avg # of iterations =  2.0

     total cpu time spent up to now is        1.9 secs

     total energy              =     -67.90282839 Ry
     estimated scf accuracy    <       0.00000188 Ry

     total magnetization       =     1.00 Bohr mag/cell
     absolute magnetization    =     1.00 Bohr mag/cell

     iteration #  7     ecut=    40.00 Ry     beta= 0.50
     Davidson diagonalization with overlap
     ethr =  1.71E-08,  avg # of iterations =  2.0

     total cpu time spent up to now is        1.9 secs

     total energy              =     -67.90282861 Ry
     estimated scf accuracy    <       0.00000005 Ry

     total magnetization       =     1.00 Bohr mag/cell
     absolute magnetization    =     1.00 Bohr mag/cell

     iteration #  8     ecut=    40.00 Ry     beta= 0.50
     Davidson diagonalization with overlap
     ethr =  4.45E-10,  avg # of iterations =  2.0

     total cpu time spent up to now is        1.9 secs

     total energy              =     -67.90282863 Ry
     estimated scf accuracy    <          2.8E-09 Ry

     total magnetization       =     1.00 Bohr mag/cell
     absolute magnetization    =     1.00 Bohr mag/cell

     iteration #  9     ecut=    40.00 Ry     beta= 0.50
     Davidson diagonalization with overlap
     ethr =  2.55E-11,  avg # of iterations =  1.0

     total cpu time spent up to now is        2.0 secs

     total energy              =     -67.90282863 Ry
     estimated scf accuracy    <          6.8E-09 Ry

     total magnetization       =     1.00 Bohr mag/cell
     absolute magnetization    =     1.00 Bohr mag/cell

     iteration # 10     ecut=    40.00 Ry     beta= 0.50
     Davidson diagonalization with overlap
     ethr =  2.55E-11,  avg # of iterations =  2.0

     Magnetic moment per site  (integrated on atomic sphere of radius R)
     atom   1 (R=0.342)  charge=  8.0671  magn=  0.9016

     total cpu time spent up to now is        2.0 secs

     End of self-consistent calculation

 ------ SPIN UP ------------


          k = 0.0000 0.0000 0.0000 (   459 PWs)   bands (ev):

    11.1987  18.3110  18.3110  18.3110  20.6928  20.6928  43.2228  48.4771
    48.4771  48.4771

 ------ SPIN DOWN ----------


          k = 0.0000 0.0000 0.0000 (   459 PWs)   bands (ev):

    11.5391  18.9731  18.9731  18.9731  22.1301  22.1301  43.2966  48.8803
    48.8803  48.8803

     the Fermi energy is    22.1301 ev

!    total energy              =     -67.90282863 Ry
     estimated scf accuracy    <          4.4E-12 Ry
     smearing contrib. (-TS)   =      -0.00564190 Ry
     internal energy E=F+TS    =     -67.89718673 Ry

     The total energy is F=E-TS. E is the sum of the following terms:
     one-electron contribution =      19.72075374 Ry
     hartree contribution      =       4.56532113 Ry
     xc contribution           =     -10.91602087 Ry
     ewald contribution        =     -81.26724073 Ry

     total magnetization       =     1.00 Bohr mag/cell
     absolute magnetization    =     1.00 Bohr mag/cell

     convergence has been achieved in  10 iterations

     Forces acting on atoms (cartesian axes, Ry/au):

     atom    1 type  1   force =     0.00000000    0.00000000    0.00000000
     The non-local contrib.  to forces
     atom    1 type  1   force =     0.00000000    0.00000000    0.00000000
     The ionic contribution  to forces
     atom    1 type  1   force =    -0.00000000   -0.00000000   -0.00000000
     The local contribution  to forces
     atom    1 type  1   force =     0.00000000    0.00000000    0.00000000
     The core correction contribution to forces
     atom    1 type  1   force =     0.00000000    0.00000000    0.00000000
     The Hubbard contrib.    to forces
     atom    1 type  1   force =     0.00000000    0.00000000    0.00000000
     The SCF correction term to forces
     atom    1 type  1   force =     0.00000000    0.00000000    0.00000000

     Total force =     0.000000     Total SCF correction =     0.000000


     Computing stress (Cartesian axis) and pressure

          total   stress  (Ry/bohr**3)                   (kbar)     P=     -286.83
  -0.00194980  -0.00000000  -0.00000000         -286.83       -0.00       -0.00
   0.00000000  -0.00194980  -0.00000000            0.00     -286.83       -0.00
  -0.00000000  -0.00000000  -0.00194980           -0.00       -0.00     -286.83

     Energy error            =      2.6E-02 Ry
     Gradient error          =      0.0E+00 Ry/Bohr
     Cell gradient error     =      2.9E+02 kbar

     number of scf cycles    =   4
     number of bfgs steps    =   3

     enthalpy           old  =     -67.8767150621 Ry
     enthalpy           new  =     -67.9028286270 Ry

     CASE: enthalpy          _new < enthalpy          _old

     new trust radius        =       0.0381939087 bohr
     new conv_thr            =       0.0000000010 Ry

     new unit-cell volume =     74.52899 a.u.^3 (    11.04406 Ang^3 )
     density =     29.61508 g/cm^3

CELL_PARAMETERS (angstrom)
  -0.000000000   1.767527668   1.767527668
   1.767527668  -0.000000000   1.767527668
   1.767527668   1.767527668  -0.000000000

ATOMIC_POSITIONS (angstrom)
Au            0.0000000000        0.0000000000        0.0000000000



     Writing config-only to output data dir /home/gridsan/epan1/labutil/lab3_samples/problem3/Lab3/Au_a_4.0_ecut_40_nk_1/pwscf.save/
     NEW-OLD atomic charge density approx. for the potential
     extrapolated charge   10.26196, renormalised to   11.00000
     Generating pointlists ...

     total cpu time spent up to now is        2.2 secs

     Self-consistent Calculation

     iteration #  1     ecut=    40.00 Ry     beta= 0.50
     Davidson diagonalization with overlap
     ethr =  1.00E-06,  avg # of iterations =  3.0

     total cpu time spent up to now is        2.2 secs

     total energy              =     -67.88605561 Ry
     estimated scf accuracy    <       0.01947137 Ry

     total magnetization       =     1.00 Bohr mag/cell
     absolute magnetization    =     1.00 Bohr mag/cell

     iteration #  2     ecut=    40.00 Ry     beta= 0.50
     Davidson diagonalization with overlap
     ethr =  1.77E-04,  avg # of iterations =  2.0

     total cpu time spent up to now is        2.2 secs

     total energy              =     -67.90648951 Ry
     estimated scf accuracy    <       0.00355334 Ry

     total magnetization       =     1.00 Bohr mag/cell
     absolute magnetization    =     1.00 Bohr mag/cell

     iteration #  3     ecut=    40.00 Ry     beta= 0.50
     Davidson diagonalization with overlap
     ethr =  3.23E-05,  avg # of iterations =  1.0

     total cpu time spent up to now is        2.3 secs

     total energy              =     -67.90609602 Ry
     estimated scf accuracy    <       0.00078646 Ry

     total magnetization       =     1.00 Bohr mag/cell
     absolute magnetization    =     1.00 Bohr mag/cell

     iteration #  4     ecut=    40.00 Ry     beta= 0.50
     Davidson diagonalization with overlap
     ethr =  7.15E-06,  avg # of iterations =  2.0

     total cpu time spent up to now is        2.3 secs

     total energy              =     -67.90628635 Ry
     estimated scf accuracy    <       0.00002568 Ry

     total magnetization       =     1.00 Bohr mag/cell
     absolute magnetization    =     1.00 Bohr mag/cell

     iteration #  5     ecut=    40.00 Ry     beta= 0.50
     Davidson diagonalization with overlap
     ethr =  2.33E-07,  avg # of iterations =  1.0

     total cpu time spent up to now is        2.3 secs

     total energy              =     -67.90627816 Ry
     estimated scf accuracy    <       0.00001570 Ry

     total magnetization       =     1.00 Bohr mag/cell
     absolute magnetization    =     1.00 Bohr mag/cell

     iteration #  6     ecut=    40.00 Ry     beta= 0.50
     Davidson diagonalization with overlap
     ethr =  1.43E-07,  avg # of iterations =  2.0

     total cpu time spent up to now is        2.3 secs

     total energy              =     -67.90627931 Ry
     estimated scf accuracy    <       0.00000087 Ry

     total magnetization       =     1.00 Bohr mag/cell
     absolute magnetization    =     1.00 Bohr mag/cell

     iteration #  7     ecut=    40.00 Ry     beta= 0.50
     Davidson diagonalization with overlap
     ethr =  7.91E-09,  avg # of iterations =  2.0

     total cpu time spent up to now is        2.3 secs

     total energy              =     -67.90627938 Ry
     estimated scf accuracy    <       0.00000004 Ry

     total magnetization       =     1.00 Bohr mag/cell
     absolute magnetization    =     1.00 Bohr mag/cell

     iteration #  8     ecut=    40.00 Ry     beta= 0.50
     Davidson diagonalization with overlap
     ethr =  3.71E-10,  avg # of iterations =  2.0

     total cpu time spent up to now is        2.4 secs

     total energy              =     -67.90627939 Ry
     estimated scf accuracy    <          2.0E-09 Ry

     total magnetization       =     1.00 Bohr mag/cell
     absolute magnetization    =     1.00 Bohr mag/cell

     iteration #  9     ecut=    40.00 Ry     beta= 0.50
     Davidson diagonalization with overlap
     ethr =  1.79E-11,  avg # of iterations =  1.0

     total cpu time spent up to now is        2.4 secs

     total energy              =     -67.90627939 Ry
     estimated scf accuracy    <          3.4E-09 Ry

     total magnetization       =     1.00 Bohr mag/cell
     absolute magnetization    =     1.00 Bohr mag/cell

     iteration # 10     ecut=    40.00 Ry     beta= 0.50
     Davidson diagonalization with overlap
     ethr =  1.79E-11,  avg # of iterations =  2.0

     Magnetic moment per site  (integrated on atomic sphere of radius R)
     atom   1 (R=0.342)  charge=  8.1823  magn=  0.9068

     total cpu time spent up to now is        2.4 secs

     End of self-consistent calculation

 ------ SPIN UP ------------


          k = 0.0000 0.0000 0.0000 (   459 PWs)   bands (ev):

    12.4717  19.9646  19.9646  19.9646  22.6615  22.6615  45.5507  51.2284
    51.2284  51.2284

 ------ SPIN DOWN ----------


          k = 0.0000 0.0000 0.0000 (   459 PWs)   bands (ev):

    12.8244  20.6310  20.6310  20.6310  24.1070  24.1070  45.6314  51.6437
    51.6437  51.6437

     the Fermi energy is    24.1070 ev

!    total energy              =     -67.90627939 Ry
     estimated scf accuracy    <          8.3E-11 Ry
     smearing contrib. (-TS)   =      -0.00564190 Ry
     internal energy E=F+TS    =     -67.90063750 Ry

     The total energy is F=E-TS. E is the sum of the following terms:
     one-electron contribution =      21.99393603 Ry
     hartree contribution      =       4.17871623 Ry
     xc contribution           =     -11.02770217 Ry
     ewald contribution        =     -83.04558758 Ry

     total magnetization       =     1.00 Bohr mag/cell
     absolute magnetization    =     1.00 Bohr mag/cell

     convergence has been achieved in  10 iterations

     Forces acting on atoms (cartesian axes, Ry/au):

     atom    1 type  1   force =     0.00000000    0.00000000    0.00000000
     The non-local contrib.  to forces
     atom    1 type  1   force =    -0.00000000   -0.00000000   -0.00000000
     The ionic contribution  to forces
     atom    1 type  1   force =    -0.00000000   -0.00000000   -0.00000000
     The local contribution  to forces
     atom    1 type  1   force =     0.00000000    0.00000000    0.00000000
     The core correction contribution to forces
     atom    1 type  1   force =     0.00000000    0.00000000    0.00000000
     The Hubbard contrib.    to forces
     atom    1 type  1   force =     0.00000000    0.00000000    0.00000000
     The SCF correction term to forces
     atom    1 type  1   force =     0.00000000    0.00000000    0.00000000

     Total force =     0.000000     Total SCF correction =     0.000000


     Computing stress (Cartesian axis) and pressure

          total   stress  (Ry/bohr**3)                   (kbar)     P=      107.69
   0.00073204   0.00000000   0.00000000          107.69        0.00        0.00
   0.00000000   0.00073204   0.00000000            0.00      107.69        0.00
   0.00000000   0.00000000   0.00073204            0.00        0.00      107.69

     Energy error            =      3.5E-03 Ry
     Gradient error          =      0.0E+00 Ry/Bohr
     Cell gradient error     =      1.1E+02 kbar

     number of scf cycles    =   5
     number of bfgs steps    =   4

     enthalpy           old  =     -67.9028286270 Ry
     enthalpy           new  =     -67.9062793920 Ry

     CASE: enthalpy          _new < enthalpy          _old

     new trust radius        =       0.0099918260 bohr
     new conv_thr            =       0.0000000010 Ry

     new unit-cell volume =     75.83039 a.u.^3 (    11.23690 Ang^3 )
     density =     29.10683 g/cm^3

CELL_PARAMETERS (angstrom)
  -0.000000000   1.777756321   1.777756321
   1.777756321  -0.000000000   1.777756321
   1.777756321   1.777756321  -0.000000000

ATOMIC_POSITIONS (angstrom)
Au            0.0000000000        0.0000000000        0.0000000000



     Writing config-only to output data dir /home/gridsan/epan1/labutil/lab3_samples/problem3/Lab3/Au_a_4.0_ecut_40_nk_1/pwscf.save/
     NEW-OLD atomic charge density approx. for the potential
     extrapolated charge   11.18878, renormalised to   11.00000
     Generating pointlists ...

     total cpu time spent up to now is        2.6 secs

     Self-consistent Calculation

     iteration #  1     ecut=    40.00 Ry     beta= 0.50
     Davidson diagonalization with overlap
     ethr =  1.00E-06,  avg # of iterations =  3.0

     total cpu time spent up to now is        2.6 secs

     total energy              =     -67.90543297 Ry
     estimated scf accuracy    <       0.00098342 Ry

     total magnetization       =     1.00 Bohr mag/cell
     absolute magnetization    =     1.00 Bohr mag/cell

     iteration #  2     ecut=    40.00 Ry     beta= 0.50
     Davidson diagonalization with overlap
     ethr =  8.94E-06,  avg # of iterations =  2.0

     total cpu time spent up to now is        2.7 secs

     total energy              =     -67.90673344 Ry
     estimated scf accuracy    <       0.00030501 Ry

     total magnetization       =     1.00 Bohr mag/cell
     absolute magnetization    =     1.00 Bohr mag/cell

     iteration #  3     ecut=    40.00 Ry     beta= 0.50
     Davidson diagonalization with overlap
     ethr =  2.77E-06,  avg # of iterations =  1.0

     total cpu time spent up to now is        2.7 secs

     total energy              =     -67.90669167 Ry
     estimated scf accuracy    <       0.00007936 Ry

     total magnetization       =     1.00 Bohr mag/cell
     absolute magnetization    =     1.00 Bohr mag/cell

     iteration #  4     ecut=    40.00 Ry     beta= 0.50
     Davidson diagonalization with overlap
     ethr =  7.21E-07,  avg # of iterations =  2.0

     total cpu time spent up to now is        2.7 secs

     total energy              =     -67.90670853 Ry
     estimated scf accuracy    <       0.00000042 Ry

     total magnetization       =     1.00 Bohr mag/cell
     absolute magnetization    =     1.00 Bohr mag/cell

     iteration #  5     ecut=    40.00 Ry     beta= 0.50
     Davidson diagonalization with overlap
     ethr =  3.81E-09,  avg # of iterations =  2.0

     total cpu time spent up to now is        2.7 secs

     total energy              =     -67.90670785 Ry
     estimated scf accuracy    <       0.00000165 Ry

     total magnetization       =     1.00 Bohr mag/cell
     absolute magnetization    =     1.00 Bohr mag/cell

     iteration #  6     ecut=    40.00 Ry     beta= 0.50
     Davidson diagonalization with overlap
     ethr =  3.81E-09,  avg # of iterations =  2.0

     total cpu time spent up to now is        2.7 secs

     total energy              =     -67.90670784 Ry
     estimated scf accuracy    <       0.00000021 Ry

     total magnetization       =     1.00 Bohr mag/cell
     absolute magnetization    =     1.00 Bohr mag/cell

     iteration #  7     ecut=    40.00 Ry     beta= 0.50
     Davidson diagonalization with overlap
     ethr =  1.88E-09,  avg # of iterations =  2.0

     Magnetic moment per site  (integrated on atomic sphere of radius R)
     atom   1 (R=0.342)  charge=  8.1498  magn=  0.9054

     total cpu time spent up to now is        2.8 secs

     End of self-consistent calculation

 ------ SPIN UP ------------


          k = 0.0000 0.0000 0.0000 (   459 PWs)   bands (ev):

    12.1228  19.5163  19.5163  19.5163  22.1264  22.1264  44.9165  50.4805
    50.4805  50.4805

 ------ SPIN DOWN ----------


          k = 0.0000 0.0000 0.0000 (   459 PWs)   bands (ev):

    12.4722  20.1815  20.1815  20.1815  23.5696  23.5696  44.9953  50.8925
    50.8925  50.8925

     the Fermi energy is    23.5696 ev

!    total energy              =     -67.90670788 Ry
     estimated scf accuracy    <          1.3E-10 Ry
     smearing contrib. (-TS)   =      -0.00564190 Ry
     internal energy E=F+TS    =     -67.90106598 Ry

     The total energy is F=E-TS. E is the sum of the following terms:
     one-electron contribution =      21.38424110 Ry
     hartree contribution      =       4.27963615 Ry
     xc contribution           =     -10.99717396 Ry
     ewald contribution        =     -82.56776927 Ry

     total magnetization       =     1.00 Bohr mag/cell
     absolute magnetization    =     1.00 Bohr mag/cell

     convergence has been achieved in   7 iterations

     Forces acting on atoms (cartesian axes, Ry/au):

     atom    1 type  1   force =     0.00000000    0.00000000    0.00000000
     The non-local contrib.  to forces
     atom    1 type  1   force =    -0.00000000   -0.00000000   -0.00000000
     The ionic contribution  to forces
     atom    1 type  1   force =    -0.00000000   -0.00000000   -0.00000000
     The local contribution  to forces
     atom    1 type  1   force =     0.00000000    0.00000000    0.00000000
     The core correction contribution to forces
     atom    1 type  1   force =     0.00000000    0.00000000    0.00000000
     The Hubbard contrib.    to forces
     atom    1 type  1   force =     0.00000000    0.00000000    0.00000000
     The SCF correction term to forces
     atom    1 type  1   force =     0.00000000    0.00000000    0.00000000

     Total force =     0.000000     Total SCF correction =     0.000000


     Computing stress (Cartesian axis) and pressure

          total   stress  (Ry/bohr**3)                   (kbar)     P=       -9.71
  -0.00006598  -0.00000000  -0.00000000           -9.71       -0.00       -0.00
   0.00000000  -0.00006598  -0.00000000            0.00       -9.71       -0.00
  -0.00000000  -0.00000000  -0.00006598           -0.00       -0.00       -9.71

     Energy error            =      4.3E-04 Ry
     Gradient error          =      0.0E+00 Ry/Bohr
     Cell gradient error     =      9.7E+00 kbar

     number of scf cycles    =   6
     number of bfgs steps    =   5

     enthalpy           old  =     -67.9062793920 Ry
     enthalpy           new  =     -67.9067078800 Ry

     CASE: enthalpy          _new < enthalpy          _old

     new trust radius        =       0.0008372678 bohr
     new conv_thr            =       0.0000000010 Ry

     new unit-cell volume =     75.72108 a.u.^3 (    11.22071 Ang^3 )
     density =     29.14885 g/cm^3

CELL_PARAMETERS (angstrom)
  -0.000000000   1.776901678   1.776901678
   1.776901678  -0.000000000   1.776901678
   1.776901678   1.776901678  -0.000000000

ATOMIC_POSITIONS (angstrom)
Au            0.0000000000        0.0000000000        0.0000000000



     Writing config-only to output data dir /home/gridsan/epan1/labutil/lab3_samples/problem3/Lab3/Au_a_4.0_ecut_40_nk_1/pwscf.save/
     NEW-OLD atomic charge density approx. for the potential
     extrapolated charge   10.98412, renormalised to   11.00000
     Generating pointlists ...

     total cpu time spent up to now is        3.0 secs

     Self-consistent Calculation

     iteration #  1     ecut=    40.00 Ry     beta= 0.50
     Davidson diagonalization with overlap
     ethr =  1.00E-06,  avg # of iterations =  2.0

     Threshold (ethr) on eigenvalues was too large:
     Diagonalizing with lowered threshold

     Davidson diagonalization with overlap
     ethr =  6.79E-08,  avg # of iterations =  1.0

     total cpu time spent up to now is        3.0 secs

     total energy              =     -67.90670250 Ry
     estimated scf accuracy    <       0.00000739 Ry

     total magnetization       =     1.00 Bohr mag/cell
     absolute magnetization    =     1.00 Bohr mag/cell

     iteration #  2     ecut=    40.00 Ry     beta= 0.50
     Davidson diagonalization with overlap
     ethr =  6.72E-08,  avg # of iterations =  2.0

     total cpu time spent up to now is        3.0 secs

     total energy              =     -67.90671181 Ry
     estimated scf accuracy    <       0.00000207 Ry

     total magnetization       =     1.00 Bohr mag/cell
     absolute magnetization    =     1.00 Bohr mag/cell

     iteration #  3     ecut=    40.00 Ry     beta= 0.50
     Davidson diagonalization with overlap
     ethr =  1.88E-08,  avg # of iterations =  1.0

     total cpu time spent up to now is        3.0 secs

     total energy              =     -67.90671154 Ry
     estimated scf accuracy    <       0.00000052 Ry

     total magnetization       =     1.00 Bohr mag/cell
     absolute magnetization    =     1.00 Bohr mag/cell

     iteration #  4     ecut=    40.00 Ry     beta= 0.50
     Davidson diagonalization with overlap
     ethr =  4.74E-09,  avg # of iterations =  2.0

     total cpu time spent up to now is        3.1 secs

     total energy              =     -67.90671165 Ry
     estimated scf accuracy    <          4.2E-09 Ry

     total magnetization       =     1.00 Bohr mag/cell
     absolute magnetization    =     1.00 Bohr mag/cell

     iteration #  5     ecut=    40.00 Ry     beta= 0.50
     Davidson diagonalization with overlap
     ethr =  3.81E-11,  avg # of iterations =  2.0

     total cpu time spent up to now is        3.1 secs

     total energy              =     -67.90671165 Ry
     estimated scf accuracy    <       0.00000001 Ry

     total magnetization       =     1.00 Bohr mag/cell
     absolute magnetization    =     1.00 Bohr mag/cell

     iteration #  6     ecut=    40.00 Ry     beta= 0.50
     Davidson diagonalization with overlap
     ethr =  3.81E-11,  avg # of iterations =  2.0

     total cpu time spent up to now is        3.1 secs

     total energy              =     -67.90671165 Ry
     estimated scf accuracy    <          1.3E-09 Ry

     total magnetization       =     1.00 Bohr mag/cell
     absolute magnetization    =     1.00 Bohr mag/cell

     iteration #  7     ecut=    40.00 Ry     beta= 0.50
     Davidson diagonalization with overlap
     ethr =  1.20E-11,  avg # of iterations =  2.0

     Magnetic moment per site  (integrated on atomic sphere of radius R)
     atom   1 (R=0.342)  charge=  8.1525  magn=  0.9055

     total cpu time spent up to now is        3.1 secs

     End of self-consistent calculation

 ------ SPIN UP ------------


          k = 0.0000 0.0000 0.0000 (   459 PWs)   bands (ev):

    12.1516  19.5535  19.5535  19.5535  22.1707  22.1707  44.9690  50.5424
    50.5424  50.5424

 ------ SPIN DOWN ----------


          k = 0.0000 0.0000 0.0000 (   459 PWs)   bands (ev):

    12.5013  20.2188  20.2188  20.2188  23.6142  23.6142  45.0479  50.9546
    50.9546  50.9546

     the Fermi energy is    23.6142 ev

!    total energy              =     -67.90671165 Ry
     estimated scf accuracy    <          1.1E-11 Ry
     smearing contrib. (-TS)   =      -0.00564190 Ry
     internal energy E=F+TS    =     -67.90106975 Ry

     The total energy is F=E-TS. E is the sum of the following terms:
     one-electron contribution =      21.43494591 Ry
     hartree contribution      =       4.27116305 Ry
     xc contribution           =     -10.99969650 Ry
     ewald contribution        =     -82.60748222 Ry

     total magnetization       =     1.00 Bohr mag/cell
     absolute magnetization    =     1.00 Bohr mag/cell

     convergence has been achieved in   7 iterations

     Forces acting on atoms (cartesian axes, Ry/au):

     atom    1 type  1   force =     0.00000000    0.00000000    0.00000000
     The non-local contrib.  to forces
     atom    1 type  1   force =     0.00000000    0.00000000    0.00000000
     The ionic contribution  to forces
     atom    1 type  1   force =    -0.00000000   -0.00000000   -0.00000000
     The local contribution  to forces
     atom    1 type  1   force =     0.00000000    0.00000000    0.00000000
     The core correction contribution to forces
     atom    1 type  1   force =     0.00000000    0.00000000    0.00000000
     The Hubbard contrib.    to forces
     atom    1 type  1   force =     0.00000000    0.00000000    0.00000000
     The SCF correction term to forces
     atom    1 type  1   force =     0.00000000    0.00000000    0.00000000

     Total force =     0.000000     Total SCF correction =     0.000000


     Computing stress (Cartesian axis) and pressure

          total   stress  (Ry/bohr**3)                   (kbar)     P=       -0.30
  -0.00000205  -0.00000000  -0.00000000           -0.30       -0.00       -0.00
  -0.00000000  -0.00000205  -0.00000000           -0.00       -0.30       -0.00
  -0.00000000  -0.00000000  -0.00000205           -0.00       -0.00       -0.30

     Energy error            =      3.8E-06 Ry
     Gradient error          =      0.0E+00 Ry/Bohr
     Cell gradient error     =      3.0E-01 kbar

     bfgs converged in   7 scf cycles and   6 bfgs steps
     (criteria: energy <  1.0E-04 Ry, force <  1.0E-03 Ry/Bohr, cell <  5.0E-01 kbar)

     End of BFGS Geometry Optimization

     Final enthalpy           =     -67.9067116478 Ry

     File /home/gridsan/epan1/labutil/lab3_samples/problem3/Lab3/Au_a_4.0_ecut_40_nk_1/pwscf.bfgs deleted, as requested
Begin final coordinates
     new unit-cell volume =     75.72108 a.u.^3 (    11.22071 Ang^3 )
     density =     29.14885 g/cm^3

CELL_PARAMETERS (angstrom)
  -0.000000000   1.776901678   1.776901678
   1.776901678  -0.000000000   1.776901678
   1.776901678   1.776901678  -0.000000000

ATOMIC_POSITIONS (angstrom)
Au            0.0000000000        0.0000000000        0.0000000000
End final coordinates



     Writing config-only to output data dir /home/gridsan/epan1/labutil/lab3_samples/problem3/Lab3/Au_a_4.0_ecut_40_nk_1/pwscf.save/

     Final scf calculation at the relaxed structure.
     The G-vectors are recalculated for the final unit cell
     Results may differ from those at the preceding step.

     Parallelization info
     --------------------
     sticks:   dense  smooth     PW     G-vecs:    dense   smooth      PW
     Min          62      31      7                  922      329      40
     Max          63      32      8                  926      331      42
     Sum         499     253     61                 7391     2637     331

     Using Slab Decomposition



     bravais-lattice index     =            0
     lattice parameter (alat)  =       5.3450  a.u.
     unit-cell volume          =      75.7211 (a.u.)^3
     number of atoms/cell      =            1
     number of atomic types    =            1
     number of electrons       =        11.00
     number of Kohn-Sham states=           10
     kinetic-energy cutoff     =      40.0000  Ry
     charge density cutoff     =     320.0000  Ry
     scf convergence threshold =      1.0E-09
     mixing beta               =       0.5000
     number of iterations used =            8  plain     mixing
     press convergence thresh. =      5.0E-01
     Exchange-correlation=  SLA  PZ   NOGX NOGC
                           (   1   1   0   0   0   0   0)

     celldm(1)=   5.344953  celldm(2)=   0.000000  celldm(3)=   0.000000
     celldm(4)=   0.000000  celldm(5)=   0.000000  celldm(6)=   0.000000

     crystal axes: (cart. coord. in units of alat)
               a(1) = (  -0.000000   0.628230   0.628230 )  
               a(2) = (   0.628230  -0.000000   0.628230 )  
               a(3) = (   0.628230   0.628230  -0.000000 )  

     reciprocal axes: (cart. coord. in units 2 pi/alat)
               b(1) = ( -0.795887  0.795887  0.795887 )  
               b(2) = (  0.795887 -0.795887  0.795887 )  
               b(3) = (  0.795887  0.795887 -0.795887 )  


     PseudoPot. # 1 for Au read from file:
     /home/gridsan/epan1/labutil/lab3_samples/pseudopotentials/Au.pz-d-rrkjus.UPF
     MD5 check sum: 424ffd4ac9c90487cbadcd287136c95b
     Pseudo is Ultrasoft, Zval = 11.0
     Generated by new atomic code, or converted to UPF format
     Using radial grid of 1279 points,  3 beta functions with: 
                l(1) =   2
                l(2) =   2
                l(3) =   1
     Q(r) pseudized with 0 coefficients 


     atomic species   valence    mass     pseudopotential
        Au            11.00   196.96657     Au( 1.00)

     Starting magnetic structure 
     atomic species   magnetization
        Au           0.111

     48 Sym. Ops., with inversion, found



   Cartesian axes

     site n.     atom                  positions (alat units)
         1           Au  tau(   1) = (   0.0000000   0.0000000   0.0000000  )

     number of k points=     1  Methfessel-Paxton smearing, width (Ry)=  0.0200
                       cart. coord. in units 2pi/alat
        k(    1) = (   0.0000000   0.0000000   0.0000000), wk =   1.0000000

     Dense  grid:     7391 G-vectors     FFT dimensions: (  27,  27,  27)

     Smooth grid:     2637 G-vectors     FFT dimensions: (  20,  20,  20)

     Estimated max dynamical RAM per process >       3.55 MB

     Estimated total dynamical RAM >      28.44 MB
     Generating pointlists ...

     Initial potential from superposition of free atoms

     starting charge      10.9999, renormalised to      11.0000
     Starting wfcs are    9 randomized atomic wfcs +    1 random wfcs

     total cpu time spent up to now is        3.6 secs

     Self-consistent Calculation

     iteration #  1     ecut=    40.00 Ry     beta= 0.50
     Davidson diagonalization with overlap
     ethr =  1.00E-06,  avg # of iterations = 10.5

     total cpu time spent up to now is        3.6 secs

     total energy              =     -67.90048328 Ry
     estimated scf accuracy    <       0.06012293 Ry

     total magnetization       =     1.00 Bohr mag/cell
     absolute magnetization    =     1.00 Bohr mag/cell

     iteration #  2     ecut=    40.00 Ry     beta= 0.50
     Davidson diagonalization with overlap
     ethr =  5.47E-04,  avg # of iterations =  1.0

     total cpu time spent up to now is        3.6 secs

     total energy              =     -67.90571132 Ry
     estimated scf accuracy    <       0.00765559 Ry

     total magnetization       =     1.00 Bohr mag/cell
     absolute magnetization    =     1.00 Bohr mag/cell

     iteration #  3     ecut=    40.00 Ry     beta= 0.50
     Davidson diagonalization with overlap
     ethr =  6.96E-05,  avg # of iterations =  1.0

     total cpu time spent up to now is        3.6 secs

     total energy              =     -67.90646030 Ry
     estimated scf accuracy    <       0.00049191 Ry

     total magnetization       =     1.00 Bohr mag/cell
     absolute magnetization    =     1.00 Bohr mag/cell

     iteration #  4     ecut=    40.00 Ry     beta= 0.50
     Davidson diagonalization with overlap
     ethr =  4.47E-06,  avg # of iterations =  2.0

     total cpu time spent up to now is        3.7 secs

     total energy              =     -67.90648806 Ry
     estimated scf accuracy    <       0.00000403 Ry

     total magnetization       =     1.00 Bohr mag/cell
     absolute magnetization    =     1.00 Bohr mag/cell

     iteration #  5     ecut=    40.00 Ry     beta= 0.50
     Davidson diagonalization with overlap
     ethr =  3.66E-08,  avg # of iterations =  2.0

     total cpu time spent up to now is        3.7 secs

     total energy              =     -67.90648915 Ry
     estimated scf accuracy    <       0.00000058 Ry

     total magnetization       =     1.00 Bohr mag/cell
     absolute magnetization    =     1.00 Bohr mag/cell

     iteration #  6     ecut=    40.00 Ry     beta= 0.50
     Davidson diagonalization with overlap
     ethr =  5.25E-09,  avg # of iterations =  1.5

     total cpu time spent up to now is        3.7 secs

     total energy              =     -67.90648921 Ry
     estimated scf accuracy    <       0.00000002 Ry

     total magnetization       =     1.00 Bohr mag/cell
     absolute magnetization    =     1.00 Bohr mag/cell

     iteration #  7     ecut=    40.00 Ry     beta= 0.50
     Davidson diagonalization with overlap
     ethr =  1.50E-10,  avg # of iterations =  1.0

     total cpu time spent up to now is        3.7 secs

     total energy              =     -67.90648921 Ry
     estimated scf accuracy    <          3.0E-09 Ry

     total magnetization       =     1.00 Bohr mag/cell
     absolute magnetization    =     1.00 Bohr mag/cell

     iteration #  8     ecut=    40.00 Ry     beta= 0.50
     Davidson diagonalization with overlap
     ethr =  2.69E-11,  avg # of iterations =  1.5

     Magnetic moment per site  (integrated on atomic sphere of radius R)
     atom   1 (R=0.342)  charge=  8.1505  magn=  0.9054

     total cpu time spent up to now is        3.7 secs

     End of self-consistent calculation

 ------ SPIN UP ------------


          k = 0.0000 0.0000 0.0000 (   331 PWs)   bands (ev):

    12.1517  19.5543  19.5543  19.5543  22.1718  22.1718  44.9689  50.5424
    50.5424  50.5424

 ------ SPIN DOWN ----------


          k = 0.0000 0.0000 0.0000 (   331 PWs)   bands (ev):

    12.5014  20.2197  20.2197  20.2197  23.6151  23.6151  45.0479  50.9547
    50.9547  50.9547

     the Fermi energy is    23.6151 ev

!    total energy              =     -67.90648921 Ry
     estimated scf accuracy    <          3.6E-12 Ry
     smearing contrib. (-TS)   =      -0.00564190 Ry
     internal energy E=F+TS    =     -67.90084732 Ry

     The total energy is F=E-TS. E is the sum of the following terms:
     one-electron contribution =      21.43493677 Ry
     hartree contribution      =       4.27161171 Ry
     xc contribution           =     -10.99991357 Ry
     ewald contribution        =     -82.60748222 Ry

     total magnetization       =     1.00 Bohr mag/cell
     absolute magnetization    =     1.00 Bohr mag/cell

     convergence has been achieved in   8 iterations

     Forces acting on atoms (cartesian axes, Ry/au):

     atom    1 type  1   force =     0.00000000    0.00000000    0.00000000
     The non-local contrib.  to forces
     atom    1 type  1   force =    -0.00000000   -0.00000000    0.00000000
     The ionic contribution  to forces
     atom    1 type  1   force =    -0.00000000   -0.00000000   -0.00000000
     The local contribution  to forces
     atom    1 type  1   force =    -0.00000000   -0.00000000   -0.00000000
     The core correction contribution to forces
     atom    1 type  1   force =     0.00000000    0.00000000    0.00000000
     The Hubbard contrib.    to forces
     atom    1 type  1   force =     0.00000000    0.00000000    0.00000000
     The SCF correction term to forces
     atom    1 type  1   force =     0.00000000   -0.00000000    0.00000000

     Total force =     0.000000     Total SCF correction =     0.000000


     Computing stress (Cartesian axis) and pressure

          total   stress  (Ry/bohr**3)                   (kbar)     P=       -2.27
  -0.00001545   0.00000000   0.00000000           -2.27        0.00        0.00
   0.00000000  -0.00001545  -0.00000000            0.00       -2.27       -0.00
   0.00000000  -0.00000000  -0.00001545            0.00       -0.00       -2.27


     init_run     :      0.58s CPU      0.59s WALL (       2 calls)
     electrons    :      1.35s CPU      1.29s WALL (       8 calls)
     update_pot   :      0.50s CPU      0.44s WALL (       6 calls)
     forces       :      0.26s CPU      0.25s WALL (       8 calls)
     stress       :      0.72s CPU      0.60s WALL (       8 calls)

     Called by init_run:
     wfcinit      :      0.02s CPU      0.02s WALL (       2 calls)
     potinit      :      0.25s CPU      0.25s WALL (       2 calls)
     hinit0       :      0.30s CPU      0.30s WALL (       2 calls)

     Called by electrons:
     c_bands      :      0.52s CPU      0.52s WALL (      68 calls)
     sum_band     :      0.42s CPU      0.39s WALL (      68 calls)
     v_of_rho     :      0.12s CPU      0.10s WALL (      75 calls)
     newd         :      0.19s CPU      0.18s WALL (      75 calls)
     mix_rho      :      0.05s CPU      0.04s WALL (      68 calls)

     Called by c_bands:
     init_us_2    :      0.01s CPU      0.01s WALL (     308 calls)
     init_us_2:cp :      0.01s CPU      0.01s WALL (     308 calls)
     cegterg      :      0.45s CPU      0.41s WALL (     136 calls)

     Called by *egterg:
     cdiaghg      :      0.08s CPU      0.07s WALL (     408 calls)
     h_psi        :      0.32s CPU      0.30s WALL (     426 calls)
     s_psi        :      0.00s CPU      0.00s WALL (     426 calls)
     g_psi        :      0.00s CPU      0.00s WALL (     286 calls)

     Called by h_psi:
     h_psi:calbec :      0.02s CPU      0.02s WALL (     426 calls)
     vloc_psi     :      0.29s CPU      0.27s WALL (     426 calls)
     add_vuspsi   :      0.00s CPU      0.00s WALL (     426 calls)

     General routines
     calbec       :      0.03s CPU      0.03s WALL (     642 calls)
     fft          :      0.20s CPU      0.19s WALL (     841 calls)
     ffts         :      0.23s CPU      0.23s WALL (     286 calls)
     fftw         :      0.30s CPU      0.28s WALL (    8436 calls)
     interpolate  :      0.24s CPU      0.23s WALL (     150 calls)

     Parallel routines

     PWSCF        :      3.91s CPU      4.08s WALL


   This run was terminated on:  11: 5:46   3Nov2023            

=------------------------------------------------------------------------------=
   JOB DONE.
=------------------------------------------------------------------------------=
