LAMMPS (29 Oct 2020)
Reading data file ...
  orthogonal box = (0.0000000 0.0000000 0.0000000) to (8.7589300 8.7589300 24.129000)
  1 by 1 by 1 MPI processor grid
  reading atoms ...
  26 atoms
  read_data CPU = 0.000 seconds
WARNING: No fixes defined, atoms won't move (../verlet.cpp:54)
Neighbor list info ...
  update every 1 steps, delay 10 steps, check yes
  max neighbors/atom: 2000, page size: 100000
  master list distance cutoff = 6.5
  ghost atom cutoff = 6.5
  binsize = 3.25, bins = 3 3 8
  1 neighbor lists, perpetual/occasional/extra = 1 0 0
  (1) pair lj/cut, perpetual
      attributes: half, newton on
      pair build: half/bin/atomonly/newton
      stencil: half/bin/3d/newton
      bin: standard
Setting up Verlet run ...
  Unit style    : metal
  Current step  : 0
  Time step     : 0.001
Per MPI rank memory allocation (min/avg/max) = 3.061 | 3.061 | 3.061 Mbytes
Step PotEng Lx Ly Lz Press Pxx Pyy Pzz 
       0   -45.516441      8.75893      8.75893       24.129    242.03735   -1529.3887   -1529.3887    3784.8894 
Loop time of 9.53674e-07 on 1 procs for 0 steps with 26 atoms

104.9% CPU use with 1 MPI tasks x no OpenMP threads

MPI task timing breakdown:
Section |  min time  |  avg time  |  max time  |%varavg| %total
---------------------------------------------------------------
Pair    | 0          | 0          | 0          |   0.0 |  0.00
Neigh   | 0          | 0          | 0          |   0.0 |  0.00
Comm    | 0          | 0          | 0          |   0.0 |  0.00
Output  | 0          | 0          | 0          |   0.0 |  0.00
Modify  | 0          | 0          | 0          |   0.0 |  0.00
Other   |            | 9.537e-07  |            |       |100.00

Nlocal:        26.0000 ave          26 max          26 min
Histogram: 1 0 0 0 0 0 0 0 0 0
Nghost:        147.000 ave         147 max         147 min
Histogram: 1 0 0 0 0 0 0 0 0 0
Neighs:        426.000 ave         426 max         426 min
Histogram: 1 0 0 0 0 0 0 0 0 0

Total # of neighbors = 426
Ave neighs/atom = 16.384615
Neighbor list builds = 0
Dangerous builds = 0
Total energy (eV) = -45.5164405742255
Number of atoms = 26
Lattice constant (Angstoms) = 8.75893
Total wall time: 0:00:00
