
     Program PWSCF v.7.2 starts on  1Nov2023 at 17:17:19 

     This program is part of the open-source Quantum ESPRESSO suite
     for quantum simulation of materials; please cite
         "P. Giannozzi et al., J. Phys.:Condens. Matter 21 395502 (2009);
         "P. Giannozzi et al., J. Phys.:Condens. Matter 29 465901 (2017);
         "P. Giannozzi et al., J. Chem. Phys. 152 154105 (2020);
          URL http://www.quantum-espresso.org", 
     in publications or presentations arising from this work. More details at
     http://www.quantum-espresso.org/quote

     Parallel version (MPI), running on     4 processors

     MPI processes distributed on     4 nodes
     186298 MiB available memory on the printing compute node when the environment starts

     Waiting for input...
     Reading input from standard input

     Current dimensions of program PWSCF are:
     Max number of different atomic species (ntypx) = 10
     Max number of k-points (npk) =  40000
     Max angular momentum in pseudopotentials (lmaxx) =  4
     file Fe.pbe-nd-rrkjus.UPF: wavefunction(s)  4S renormalized
     Message from routine setup:
     using ibrav=0 with symmetry is DISCOURAGED, use correct ibrav instead

     R & G space division:  proc/nbgrp/npool/nimage =       4
     Subspace diagonalization in iterative solution of the eigenvalue problem:
     a serial algorithm will be used


     Parallelization info
     --------------------
     sticks:   dense  smooth     PW     G-vecs:    dense   smooth      PW
     Min          95      45     22                 1181      400     138
     Max          96      46     23                 1183      401     139
     Sum         383     181     91                 4729     1601     555

     Using Slab Decomposition



     bravais-lattice index     =            0
     lattice parameter (alat)  =       4.5899  a.u.
     unit-cell volume          =      74.4385 (a.u.)^3
     number of atoms/cell      =            1
     number of atomic types    =            1
     number of electrons       =         8.00
     number of Kohn-Sham states=            8
     kinetic-energy cutoff     =      30.0000  Ry
     charge density cutoff     =     240.0000  Ry
     scf convergence threshold =      1.0E-07
     mixing beta               =       0.5000
     number of iterations used =            8  plain     mixing
     energy convergence thresh.=      1.0E-04
     force convergence thresh. =      1.0E-03
     press convergence thresh. =      5.0E-01
     Exchange-correlation=  SLA  PW   PBE  PBE
                           (   1   4   3   4   0   0   0)
     nstep                     =           50


     celldm(1)=   4.589935  celldm(2)=   0.000000  celldm(3)=   0.000000
     celldm(4)=   0.000000  celldm(5)=   0.000000  celldm(6)=   0.000000

     crystal axes: (cart. coord. in units of alat)
               a(1) = (  -0.577350   0.577350   0.577350 )  
               a(2) = (   0.577350  -0.577350   0.577350 )  
               a(3) = (   0.577350   0.577350  -0.577350 )  

     reciprocal axes: (cart. coord. in units 2 pi/alat)
               b(1) = (  0.000000  0.866025  0.866025 )  
               b(2) = (  0.866025  0.000000  0.866025 )  
               b(3) = (  0.866025  0.866025  0.000000 )  


     PseudoPot. # 1 for Fe read from file:
     /home/gridsan/epan1/labutil/lab3_samples/pseudopotentials/Fe.pbe-nd-rrkjus.UPF
     MD5 check sum: 398036227a04b607635f6f5e8dfd8242
     Pseudo is Ultrasoft + core correction, Zval =  8.0
     Generated by new atomic code, or converted to UPF format
     Using radial grid of  957 points,  6 beta functions with: 
                l(1) =   0
                l(2) =   0
                l(3) =   1
                l(4) =   1
                l(5) =   2
                l(6) =   2
     Q(r) pseudized with 0 coefficients 


     atomic species   valence    mass     pseudopotential
        Fe             8.00    55.84500     Fe( 1.00)

     Starting magnetic structure 
     atomic species   magnetization
        Fe           0.700

     48 Sym. Ops., with inversion, found



   Cartesian axes

     site n.     atom                  positions (alat units)
         1           Fe  tau(   1) = (   0.0000000   0.0000000   0.0000000  )

     number of k points=    29  Methfessel-Paxton smearing, width (Ry)=  0.0200
                       cart. coord. in units 2pi/alat
        k(    1) = (   0.0000000   0.0000000   0.0000000), wk =   0.0019531
        k(    2) = (   0.1082532   0.1082532   0.0000000), wk =   0.0234375
        k(    3) = (   0.2165064   0.2165064   0.0000000), wk =   0.0234375
        k(    4) = (   0.3247595   0.3247595   0.0000000), wk =   0.0234375
        k(    5) = (  -0.4330127  -0.4330127   0.0000000), wk =   0.0117188
        k(    6) = (   0.2165064   0.1082532   0.1082532), wk =   0.0468750
        k(    7) = (   0.3247595   0.2165064   0.1082532), wk =   0.0937500
        k(    8) = (   0.4330127   0.3247595   0.1082532), wk =   0.0937500
        k(    9) = (   0.4330127   0.2165064   0.2165064), wk =   0.0468750
        k(   10) = (   0.5412659   0.3247595   0.2165064), wk =   0.0468750
        k(   11) = (   0.2165064   0.2165064   0.2165064), wk =   0.0156250
        k(   12) = (   0.3247595   0.3247595   0.2165064), wk =   0.0468750
        k(   13) = (   0.4330127   0.4330127   0.2165064), wk =   0.0234375
        k(   14) = (   0.0000000   0.0000000   0.2165064), wk =   0.0117188
        k(   15) = (   0.4330127   0.3247595   0.3247595), wk =   0.0468750
        k(   16) = (   0.0000000  -0.1082532   0.3247595), wk =   0.0468750
        k(   17) = (   0.0000000  -0.2165064   0.4330127), wk =   0.0468750
        k(   18) = (   0.1082532  -0.1082532   0.4330127), wk =   0.0468750
        k(   19) = (  -0.8660254  -0.3247595  -0.3247595), wk =   0.0234375
        k(   20) = (  -0.7577722  -0.2165064  -0.3247595), wk =   0.0937500
        k(   21) = (  -0.6495191  -0.2165064  -0.2165064), wk =   0.0156250
        k(   22) = (   0.4330127   0.4330127   0.4330127), wk =   0.0039062
        k(   23) = (   0.0000000   0.0000000   0.4330127), wk =   0.0117188
        k(   24) = (   0.0000000  -0.1082532   0.5412659), wk =   0.0468750
        k(   25) = (  -0.8660254  -0.2165064  -0.2165064), wk =   0.0234375
        k(   26) = (  -0.7577722  -0.1082532  -0.2165064), wk =   0.0468750
        k(   27) = (   0.0000000   0.0000000   0.6495191), wk =   0.0117188
        k(   28) = (  -0.8660254  -0.1082532  -0.1082532), wk =   0.0234375
        k(   29) = (  -0.8660254  -0.8660254  -0.8660254), wk =   0.0019531

     Dense  grid:     4729 G-vectors     FFT dimensions: (  24,  24,  24)

     Smooth grid:     1601 G-vectors     FFT dimensions: (  15,  15,  15)

     Estimated max dynamical RAM per process >       7.74 MB

     Estimated total dynamical RAM >      30.96 MB
     Generating pointlists ...
     new r_m :   0.4125 (alat units)  1.8933 (a.u.) for type    1

     Initial potential from superposition of free atoms

     starting charge       7.9994, renormalised to       8.0000
     Starting wfcs are    6 randomized atomic wfcs +    2 random wfcs

     total cpu time spent up to now is        4.1 secs

     Self-consistent Calculation

     iteration #  1     ecut=    30.00 Ry     beta= 0.50
     Davidson diagonalization with overlap
     ethr =  1.00E-02,  avg # of iterations =  4.4

     total cpu time spent up to now is        8.0 secs

     total energy              =     -55.67260716 Ry
     estimated scf accuracy    <       0.32856296 Ry

     total magnetization       =     2.95 Bohr mag/cell
     absolute magnetization    =     2.95 Bohr mag/cell

     iteration #  2     ecut=    30.00 Ry     beta= 0.50
     Davidson diagonalization with overlap
     ethr =  4.11E-03,  avg # of iterations =  1.7

     total cpu time spent up to now is       11.9 secs

     total energy              =     -55.76957469 Ry
     estimated scf accuracy    <       0.04904393 Ry

     total magnetization       =     2.81 Bohr mag/cell
     absolute magnetization    =     2.81 Bohr mag/cell

     iteration #  3     ecut=    30.00 Ry     beta= 0.50
     Davidson diagonalization with overlap
     ethr =  6.13E-04,  avg # of iterations =  1.4

     total cpu time spent up to now is       15.0 secs

     total energy              =     -55.79322516 Ry
     estimated scf accuracy    <       0.00773114 Ry

     total magnetization       =     2.71 Bohr mag/cell
     absolute magnetization    =     2.74 Bohr mag/cell

     iteration #  4     ecut=    30.00 Ry     beta= 0.50
     Davidson diagonalization with overlap
     ethr =  9.66E-05,  avg # of iterations =  2.1

     total cpu time spent up to now is       19.7 secs

     total energy              =     -55.79956464 Ry
     estimated scf accuracy    <       0.00053470 Ry

     total magnetization       =     2.41 Bohr mag/cell
     absolute magnetization    =     2.54 Bohr mag/cell

     iteration #  5     ecut=    30.00 Ry     beta= 0.50
     Davidson diagonalization with overlap
     ethr =  6.68E-06,  avg # of iterations =  5.8

     total cpu time spent up to now is       24.4 secs

     total energy              =     -55.79981268 Ry
     estimated scf accuracy    <       0.00013875 Ry

     total magnetization       =     2.36 Bohr mag/cell
     absolute magnetization    =     2.52 Bohr mag/cell

     iteration #  6     ecut=    30.00 Ry     beta= 0.50
     Davidson diagonalization with overlap
     ethr =  1.73E-06,  avg # of iterations =  3.2

     total cpu time spent up to now is       30.6 secs

     total energy              =     -55.79998273 Ry
     estimated scf accuracy    <       0.00008771 Ry

     total magnetization       =     2.35 Bohr mag/cell
     absolute magnetization    =     2.50 Bohr mag/cell

     iteration #  7     ecut=    30.00 Ry     beta= 0.50
     Davidson diagonalization with overlap
     ethr =  1.10E-06,  avg # of iterations =  1.1

     total cpu time spent up to now is       37.8 secs

     total energy              =     -55.79999652 Ry
     estimated scf accuracy    <       0.00000388 Ry

     total magnetization       =     2.34 Bohr mag/cell
     absolute magnetization    =     2.49 Bohr mag/cell

     iteration #  8     ecut=    30.00 Ry     beta= 0.50
     Davidson diagonalization with overlap
     ethr =  4.85E-08,  avg # of iterations =  4.9

     total cpu time spent up to now is       45.8 secs

     total energy              =     -55.80001015 Ry
     estimated scf accuracy    <       0.00005878 Ry

     total magnetization       =     2.34 Bohr mag/cell
     absolute magnetization    =     2.49 Bohr mag/cell

     iteration #  9     ecut=    30.00 Ry     beta= 0.50
     Davidson diagonalization with overlap
     ethr =  4.85E-08,  avg # of iterations =  2.5

     total cpu time spent up to now is       49.3 secs

     total energy              =     -55.80002065 Ry
     estimated scf accuracy    <       0.00000236 Ry

     total magnetization       =     2.34 Bohr mag/cell
     absolute magnetization    =     2.49 Bohr mag/cell

     iteration # 10     ecut=    30.00 Ry     beta= 0.50
     Davidson diagonalization with overlap
     ethr =  2.95E-08,  avg # of iterations =  1.0

     total cpu time spent up to now is       53.3 secs

     total energy              =     -55.80002081 Ry
     estimated scf accuracy    <       0.00000193 Ry

     total magnetization       =     2.34 Bohr mag/cell
     absolute magnetization    =     2.49 Bohr mag/cell

     iteration # 11     ecut=    30.00 Ry     beta= 0.50
     Davidson diagonalization with overlap
     ethr =  2.41E-08,  avg # of iterations =  1.1

     Magnetic moment per site  (integrated on atomic sphere of radius R)
     atom   1 (R=0.413)  charge=  6.4349  magn=  2.3986

     total cpu time spent up to now is       55.4 secs

     End of self-consistent calculation

 ------ SPIN UP ------------


          k = 0.0000 0.0000 0.0000 (   201 PWs)   bands (ev):

     5.5441  11.5772  11.5772  11.5772  12.8959  12.8959  39.1214  39.1214

          k = 0.1083 0.1083 0.0000 (   205 PWs)   bands (ev):

     6.1981  11.4023  11.5503  11.9300  12.7499  12.9116  35.9333  38.1584

          k = 0.2165 0.2165 0.0000 (   205 PWs)   bands (ev):

     7.8421  10.9967  11.4849  12.7142  12.8503  12.9676  30.2726  35.5733

          k = 0.3248 0.3248 0.0000 (   200 PWs)   bands (ev):

     8.8960  10.6120  12.6484  13.0509  13.0772  13.8937  24.7477  33.4448

          k =-0.4330-0.4330 0.0000 (   194 PWs)   bands (ev):

     8.9358  10.4584  12.9504  13.0939  14.3746  14.7531  21.6986  32.6643

          k = 0.2165 0.1083 0.1083 (   203 PWs)   bands (ev):

     7.3850  11.2163  11.2615  12.5962  12.6735  13.0162  32.9499  34.2074

          k = 0.3248 0.2165 0.1083 (   202 PWs)   bands (ev):

     8.9605  10.8000  11.3235  12.7007  13.1449  14.0424  27.6748  31.5278

          k = 0.4330 0.3248 0.1083 (   201 PWs)   bands (ev):

     9.2660  10.5513  12.2275  12.9093  13.4993  16.0061  22.7867  30.2125

          k = 0.4330 0.2165 0.2165 (   202 PWs)   bands (ev):

     9.8702  10.5558  11.2549  12.8337  13.3045  16.4970  25.4491  26.4172

          k = 0.5413 0.3248 0.2165 (   210 PWs)   bands (ev):

     9.9521  10.5991  11.2940  13.0098  13.3617  19.1981  21.9683  25.3966

          k = 0.2165 0.2165 0.2165 (   210 PWs)   bands (ev):

     8.8704  10.7973  10.7973  12.9087  12.9087  14.0787  30.5478  30.5478

          k = 0.3248 0.3248 0.2165 (   204 PWs)   bands (ev):

     9.8333  10.4949  11.2136  12.9831  13.0682  16.1712  25.4412  28.9360

          k = 0.4330 0.4330 0.2165 (   206 PWs)   bands (ev):

     9.7362  10.3945  11.9733  13.0487  13.1121  18.3128  21.9515  28.3655

          k = 0.0000 0.0000 0.2165 (   209 PWs)   bands (ev):

     6.8194  11.6072  11.6072  11.9290  12.3145  13.1259  35.1356  37.2660

          k = 0.4330 0.3248 0.3248 (   208 PWs)   bands (ev):

    10.2086  10.5992  11.1035  13.0828  13.1365  19.3338  23.6281  24.8594

          k = 0.0000-0.1083 0.3248 (   204 PWs)   bands (ev):

     8.3488  11.3452  11.3688  12.2398  12.7693  13.4124  30.7157  34.5307

          k = 0.0000-0.2165 0.4330 (   212 PWs)   bands (ev):

     9.2922  11.0072  11.3883  12.6589  13.8349  14.6507  25.1315  32.8657

          k = 0.1083-0.1083 0.4330 (   208 PWs)   bands (ev):

     9.5401  10.7205  11.5204  12.3667  13.3725  14.7090  28.2407  29.0187

          k =-0.8660-0.3248-0.3248 (   208 PWs)   bands (ev):

     9.2838  10.8696  11.6891  12.6721  14.3325  16.6291  21.7972  32.2642

          k =-0.7578-0.2165-0.3248 (   210 PWs)   bands (ev):

     9.8102  10.7033  11.2197  12.7386  13.8541  17.6216  23.3476  27.3308

          k =-0.6495-0.2165-0.2165 (   206 PWs)   bands (ev):

    10.3618  10.3618  10.8294  13.4088  13.4088  21.4429  21.4429  23.9097

          k = 0.4330 0.4330 0.4330 (   216 PWs)   bands (ev):

    10.6677  10.6677  10.6677  13.1307  13.1307  22.9942  22.9942  22.9942

          k = 0.0000 0.0000 0.4330 (   209 PWs)   bands (ev):

     9.3627  10.9118  12.0487  12.0487  12.8027  14.3146  31.6668  31.6668

          k = 0.0000-0.1083 0.5413 (   208 PWs)   bands (ev):

     9.7941  10.2615  12.0617  12.5145  13.7031  16.5535  26.2610  29.2870

          k =-0.8660-0.2165-0.2165 (   210 PWs)   bands (ev):

     9.6523  10.2198  11.9859  12.6377  14.2322  19.4732  22.2505  28.3409

          k =-0.7578-0.1083-0.2165 (   216 PWs)   bands (ev):

     9.7496   9.7839  12.1276  13.2818  13.9199  19.9085  24.3781  25.1469

          k = 0.0000 0.0000 0.6495 (   212 PWs)   bands (ev):

     9.5011   9.5455  13.2101  13.2101  13.7081  19.1571  26.6224  26.6224

          k =-0.8660-0.1083-0.1083 (   216 PWs)   bands (ev):

     9.2619   9.3048  13.3747  13.5638  14.1327  22.4798  23.3583  25.5367

          k =-0.8660-0.8660-0.8660 (   236 PWs)   bands (ev):

     8.9958   8.9958  14.0916  14.0916  14.0916  24.3638  24.3638  24.3638

 ------ SPIN DOWN ----------


          k = 0.0000 0.0000 0.0000 (   201 PWs)   bands (ev):

     5.6310  13.9075  13.9075  13.9075  15.9836  15.9836  38.8279  38.8280

          k = 0.1083 0.1083 0.0000 (   205 PWs)   bands (ev):

     6.2917  13.6889  13.8429  14.2977  15.7754  16.0026  36.1166  38.0427

          k = 0.2165 0.2165 0.0000 (   205 PWs)   bands (ev):

     8.0580  13.1881  13.5349  15.3279  15.6340  16.0790  30.9559  35.5900

          k = 0.3248 0.3248 0.0000 (   200 PWs)   bands (ev):

     9.9042  12.7206  13.7577  15.7925  16.2026  16.5243  25.8619  33.4174

          k =-0.4330-0.4330 0.0000 (   194 PWs)   bands (ev):

    10.4012  12.5358  14.7705  15.8642  16.2693  17.0897  23.2673  32.6011

          k = 0.2165 0.1083 0.1083 (   203 PWs)   bands (ev):

     7.5214  13.4224  13.4852  15.0879  15.5316  16.1197  33.3980  34.6020

          k = 0.3248 0.2165 0.1083 (   202 PWs)   bands (ev):

     9.4931  12.9113  13.1681  15.5645  16.1898  16.4851  28.5172  31.9991

          k = 0.4330 0.3248 0.1083 (   201 PWs)   bands (ev):

    10.6767  12.6033  13.6722  15.7866  16.3750  17.8592  24.0990  30.6639

          k = 0.4330 0.2165 0.2165 (   202 PWs)   bands (ev):

    11.1137  12.4823  12.9712  15.6881  16.2907  18.4254  26.4220  27.1765

          k = 0.5413 0.3248 0.2165 (   210 PWs)   bands (ev):

    11.6296  12.5085  12.9179  15.8903  16.2580  20.5339  23.2730  26.2067

          k = 0.2165 0.2165 0.2165 (   210 PWs)   bands (ev):

     9.1430  12.8848  12.8848  15.9605  15.9605  16.4557  31.1129  31.1129

          k = 0.3248 0.3248 0.2165 (   204 PWs)   bands (ev):

    10.9204  12.4751  12.7365  16.0071  16.2138  18.1856  26.3732  29.5147

          k = 0.4330 0.4330 0.2165 (   206 PWs)   bands (ev):

    11.2900  12.3355  13.3174  16.0699  16.2941  19.6885  23.3219  28.9359

          k = 0.0000 0.0000 0.2165 (   209 PWs)   bands (ev):

     6.9264  13.8867  13.8867  14.3028  15.2028  16.2580  35.3027  37.6129

          k = 0.4330 0.3248 0.3248 (   208 PWs)   bands (ev):

    11.9027  12.3395  12.5949  16.1752  16.2826  20.7531  24.6350  25.7063

          k = 0.0000-0.1083 0.3248 (   204 PWs)   bands (ev):

     8.6093  13.5599  13.5981  14.8814  15.2341  16.4652  31.3947  34.8019

          k = 0.0000-0.2165 0.4330 (   212 PWs)   bands (ev):

    10.3721  13.1497  13.2108  15.3088  16.4545  16.9612  26.1896  33.4123

          k = 0.1083-0.1083 0.4330 (   208 PWs)   bands (ev):

    10.2927  12.9120  13.6264  14.9014  16.0517  17.1053  29.1131  29.6842

          k =-0.8660-0.3248-0.3248 (   208 PWs)   bands (ev):

    10.8546  12.9840  13.4615  15.4032  17.0413  18.0008  23.2848  32.5064

          k =-0.7578-0.2165-0.3248 (   210 PWs)   bands (ev):

    11.4152  12.5794  13.2941  15.3369  16.5240  19.1835  24.5025  28.0610

          k =-0.6495-0.2165-0.2165 (   206 PWs)   bands (ev):

    12.2494  12.2494  12.7741  16.0396  16.0396  22.6326  22.6326  24.8376

          k = 0.4330 0.4330 0.4330 (   216 PWs)   bands (ev):

    12.3316  12.3316  12.3316  16.3196  16.3196  24.0067  24.0067  24.0067

          k = 0.0000 0.0000 0.4330 (   209 PWs)   bands (ev):

     9.9542  13.3714  14.2916  14.2916  15.2909  16.9437  32.3409  32.3414

          k = 0.0000-0.1083 0.5413 (   208 PWs)   bands (ev):

    11.1791  12.4119  14.3102  14.8800  16.3017  18.2610  27.1406  29.9063

          k =-0.8660-0.2165-0.2165 (   210 PWs)   bands (ev):

    11.5478  12.1079  14.2238  15.0172  16.9263  20.5634  23.4467  28.8946

          k =-0.7578-0.1083-0.2165 (   216 PWs)   bands (ev):

    11.6222  11.8039  14.3227  15.7469  16.5391  21.0396  25.2806  25.8515

          k = 0.0000 0.0000 0.6495 (   212 PWs)   bands (ev):

    11.2955  11.6626  15.6123  15.6123  16.3246  20.1959  27.1275  27.1275

          k =-0.8660-0.1083-0.1083 (   216 PWs)   bands (ev):

    11.2737  11.2788  15.8495  16.0415  16.8124  23.1408  24.0050  25.9276

          k =-0.8660-0.8660-0.8660 (   236 PWs)   bands (ev):

    10.9940  10.9940  16.7653  16.7653  16.7653  24.5843  24.5843  24.5844

     the Fermi energy is    14.0822 ev

!    total energy              =     -55.80002121 Ry
     estimated scf accuracy    <       0.00000009 Ry
     smearing contrib. (-TS)   =       0.00019185 Ry
     internal energy E=F+TS    =     -55.80021306 Ry

     The total energy is F=E-TS. E is the sum of the following terms:
     one-electron contribution =       8.28615970 Ry
     hartree contribution      =       6.34119931 Ry
     xc contribution           =     -26.48211470 Ry
     ewald contribution        =     -43.94545736 Ry

     total magnetization       =     2.33 Bohr mag/cell
     absolute magnetization    =     2.48 Bohr mag/cell

     convergence has been achieved in  11 iterations

     Forces acting on atoms (cartesian axes, Ry/au):

     atom    1 type  1   force =     0.00000000    0.00000000    0.00000000
     The non-local contrib.  to forces
     atom    1 type  1   force =     0.00000000    0.00000000    0.00000000
     The ionic contribution  to forces
     atom    1 type  1   force =    -0.00000000   -0.00000000   -0.00000000
     The local contribution  to forces
     atom    1 type  1   force =    -0.00000000    0.00000000   -0.00000000
     The core correction contribution to forces
     atom    1 type  1   force =    -0.00000000    0.00000000   -0.00000000
     The Hubbard contrib.    to forces
     atom    1 type  1   force =     0.00000000    0.00000000    0.00000000
     The SCF correction term to forces
     atom    1 type  1   force =     0.00000000    0.00000000    0.00000000

     Total force =     0.000000     Total SCF correction =     0.000000


     Computing stress (Cartesian axis) and pressure

          total   stress  (Ry/bohr**3)                   (kbar)     P=      102.45
   0.00069645   0.00000000   0.00000000          102.45        0.00        0.00
   0.00000000   0.00069645   0.00000000            0.00      102.45        0.00
   0.00000000   0.00000000   0.00069645            0.00        0.00      102.45


     BFGS Geometry Optimization
     Energy error            =      0.0E+00 Ry
     Gradient error          =      0.0E+00 Ry/Bohr
     Cell gradient error     =      1.0E+02 kbar

     number of scf cycles    =   1
     number of bfgs steps    =   0

     enthalpy           new  =     -55.8000212093 Ry

     new trust radius        =       0.0300442843 bohr
     new conv_thr            =       0.0000001000 Ry

     new unit-cell volume =     78.39484 a.u.^3 (    11.61692 Ang^3 )
     density =      7.98257 g/cm^3

CELL_PARAMETERS (angstrom)
  -1.426736021   1.426736021   1.426736021
   1.426736021  -1.426736021   1.426736021
   1.426736021   1.426736021  -1.426736021

ATOMIC_POSITIONS (angstrom)
Fe            0.0000000000        0.0000000000        0.0000000000



     Writing config-only to output data dir /home/gridsan/epan1/labutil/lab3_samples/problem1/Lab3/Fe_bcc_a_2.8046394196999995_ecut_30_nk_8/pwscf.save/
     NEW-OLD atomic charge density approx. for the potential
     extrapolated charge    8.40370, renormalised to    8.00000
     Generating pointlists ...

     total cpu time spent up to now is       58.0 secs

     Self-consistent Calculation

     iteration #  1     ecut=    30.00 Ry     beta= 0.50
     Davidson diagonalization with overlap
     ethr =  1.00E-06,  avg # of iterations =  6.2

     total cpu time spent up to now is       66.1 secs

     total energy              =     -55.69119137 Ry
     estimated scf accuracy    <       0.11202925 Ry

     total magnetization       =     2.25 Bohr mag/cell
     absolute magnetization    =     2.37 Bohr mag/cell

     iteration #  2     ecut=    30.00 Ry     beta= 0.50
     Davidson diagonalization with overlap
     ethr =  1.40E-03,  avg # of iterations =  2.4

     total cpu time spent up to now is       69.9 secs

     total energy              =     -55.79557597 Ry
     estimated scf accuracy    <       0.25838671 Ry

     total magnetization       =     2.54 Bohr mag/cell
     absolute magnetization    =     2.62 Bohr mag/cell

     iteration #  3     ecut=    30.00 Ry     beta= 0.50
     Davidson diagonalization with overlap
     ethr =  1.40E-03,  avg # of iterations =  1.1

     total cpu time spent up to now is       72.4 secs

     total energy              =     -55.81122441 Ry
     estimated scf accuracy    <       0.04528947 Ry

     total magnetization       =     2.49 Bohr mag/cell
     absolute magnetization    =     2.61 Bohr mag/cell

     iteration #  4     ecut=    30.00 Ry     beta= 0.50
     Davidson diagonalization with overlap
     ethr =  5.66E-04,  avg # of iterations =  1.0

     total cpu time spent up to now is       78.7 secs

     total energy              =     -55.81365108 Ry
     estimated scf accuracy    <       0.04608720 Ry

     total magnetization       =     2.50 Bohr mag/cell
     absolute magnetization    =     2.61 Bohr mag/cell

     iteration #  5     ecut=    30.00 Ry     beta= 0.50
     Davidson diagonalization with overlap
     ethr =  5.66E-04,  avg # of iterations =  1.0

     total cpu time spent up to now is       81.5 secs

     total energy              =     -55.79504060 Ry
     estimated scf accuracy    <       0.05360372 Ry

     total magnetization       =     2.51 Bohr mag/cell
     absolute magnetization    =     2.61 Bohr mag/cell

     iteration #  6     ecut=    30.00 Ry     beta= 0.50
     Davidson diagonalization with overlap
     ethr =  5.66E-04,  avg # of iterations =  1.1

     total cpu time spent up to now is       84.6 secs

     total energy              =     -55.80060937 Ry
     estimated scf accuracy    <       0.00262167 Ry

     total magnetization       =     2.39 Bohr mag/cell
     absolute magnetization    =     2.55 Bohr mag/cell

     iteration #  7     ecut=    30.00 Ry     beta= 0.50
     Davidson diagonalization with overlap
     ethr =  3.28E-05,  avg # of iterations =  2.0

     total cpu time spent up to now is       88.9 secs

     total energy              =     -55.80127103 Ry
     estimated scf accuracy    <       0.00228539 Ry

     total magnetization       =     2.38 Bohr mag/cell
     absolute magnetization    =     2.55 Bohr mag/cell

     iteration #  8     ecut=    30.00 Ry     beta= 0.50
     Davidson diagonalization with overlap
     ethr =  2.86E-05,  avg # of iterations =  1.0

     total cpu time spent up to now is       91.6 secs

     total energy              =     -55.80124056 Ry
     estimated scf accuracy    <       0.00510470 Ry

     total magnetization       =     2.39 Bohr mag/cell
     absolute magnetization    =     2.55 Bohr mag/cell

     iteration #  9     ecut=    30.00 Ry     beta= 0.50
     Davidson diagonalization with overlap
     ethr =  2.86E-05,  avg # of iterations =  1.0

     total cpu time spent up to now is       94.0 secs

     total energy              =     -55.80076104 Ry
     estimated scf accuracy    <       0.00597210 Ry

     total magnetization       =     2.39 Bohr mag/cell
     absolute magnetization    =     2.55 Bohr mag/cell

     iteration # 10     ecut=    30.00 Ry     beta= 0.50
     Davidson diagonalization with overlap
     ethr =  2.86E-05,  avg # of iterations =  1.0

     total cpu time spent up to now is       99.5 secs

     total energy              =     -55.80101193 Ry
     estimated scf accuracy    <       0.00881636 Ry

     total magnetization       =     2.39 Bohr mag/cell
     absolute magnetization    =     2.55 Bohr mag/cell

     iteration # 11     ecut=    30.00 Ry     beta= 0.50
     Davidson diagonalization with overlap
     ethr =  2.86E-05,  avg # of iterations =  1.0

     total cpu time spent up to now is      102.9 secs

     total energy              =     -55.80040298 Ry
     estimated scf accuracy    <       0.00606638 Ry

     total magnetization       =     2.39 Bohr mag/cell
     absolute magnetization    =     2.56 Bohr mag/cell

     iteration # 12     ecut=    30.00 Ry     beta= 0.50
     Davidson diagonalization with overlap
     ethr =  2.86E-05,  avg # of iterations =  1.0

     total cpu time spent up to now is      104.9 secs

     total energy              =     -55.80107396 Ry
     estimated scf accuracy    <       0.01757017 Ry

     total magnetization       =     2.39 Bohr mag/cell
     absolute magnetization    =     2.55 Bohr mag/cell

     iteration # 13     ecut=    30.00 Ry     beta= 0.50
     Davidson diagonalization with overlap
     ethr =  2.86E-05,  avg # of iterations =  1.6

     total cpu time spent up to now is      107.4 secs

     total energy              =     -55.80143264 Ry
     estimated scf accuracy    <       0.00015407 Ry

     total magnetization       =     2.40 Bohr mag/cell
     absolute magnetization    =     2.58 Bohr mag/cell

     iteration # 14     ecut=    30.00 Ry     beta= 0.50
     Davidson diagonalization with overlap
     ethr =  1.93E-06,  avg # of iterations =  1.9

     total cpu time spent up to now is      111.3 secs

     total energy              =     -55.80145250 Ry
     estimated scf accuracy    <       0.00001225 Ry

     total magnetization       =     2.40 Bohr mag/cell
     absolute magnetization    =     2.58 Bohr mag/cell

     iteration # 15     ecut=    30.00 Ry     beta= 0.50
     Davidson diagonalization with overlap
     ethr =  1.53E-07,  avg # of iterations =  1.6

     total cpu time spent up to now is      116.3 secs

     total energy              =     -55.80145563 Ry
     estimated scf accuracy    <       0.00000014 Ry

     total magnetization       =     2.40 Bohr mag/cell
     absolute magnetization    =     2.58 Bohr mag/cell

     iteration # 16     ecut=    30.00 Ry     beta= 0.50
     Davidson diagonalization with overlap
     ethr =  1.79E-09,  avg # of iterations =  5.2

     Magnetic moment per site  (integrated on atomic sphere of radius R)
     atom   1 (R=0.413)  charge=  6.3737  magn=  2.4791

     total cpu time spent up to now is      121.3 secs

     End of self-consistent calculation

 ------ SPIN UP ------------


          k = 0.0000 0.0000 0.0000 (   201 PWs)   bands (ev):

     4.9235  10.7295  10.7295  10.7295  11.9522  11.9522  37.7253  37.7253

          k = 0.1064 0.1064 0.0000 (   205 PWs)   bands (ev):

     5.5520  10.5694  10.7068  11.0560  11.8190  11.9663  34.4465  36.7147

          k = 0.2128 0.2128 0.0000 (   205 PWs)   bands (ev):

     7.1482  10.1971  10.6540  11.7830  11.9069  12.0165  28.7724  34.1355

          k = 0.3192 0.3192 0.0000 (   200 PWs)   bands (ev):

     8.2189   9.8428  11.7438  12.0906  12.1447  12.8693  23.3178  32.0717

          k =-0.4256-0.4256 0.0000 (   194 PWs)   bands (ev):

     8.2770   9.7010  11.9963  12.1288  13.3115  13.8392  20.2902  31.3208

          k = 0.2128 0.1064 0.1064 (   203 PWs)   bands (ev):

     6.6983  10.3999  10.4447  11.6775  11.7442  12.0607  31.4752  32.6408

          k = 0.3192 0.2128 0.1064 (   202 PWs)   bands (ev):

     8.2493  10.0185  10.5051  11.7707  12.1768  13.0212  26.2128  30.0211

          k = 0.4256 0.3192 0.1064 (   201 PWs)   bands (ev):

     8.5836   9.7877  11.3525  11.9603  12.5119  14.9308  21.3882  28.7444

          k = 0.4256 0.2128 0.2128 (   202 PWs)   bands (ev):

     9.1421   9.7989  10.4416  11.8924  12.3236  15.3686  24.0778  24.9292

          k = 0.5320 0.3192 0.2128 (   210 PWs)   bands (ev):

     9.2291   9.8354  10.4850  12.0535  12.3785  18.0197  20.6174  23.9621

          k = 0.2128 0.2128 0.2128 (   210 PWs)   bands (ev):

     8.1386  10.0167  10.0167  11.9612  11.9612  13.0527  29.0986  29.0986

          k = 0.3192 0.3192 0.2128 (   204 PWs)   bands (ev):

     9.1050   9.7361  10.4011  12.0278  12.1057  15.0491  24.0307  27.5263

          k = 0.4256 0.4256 0.2128 (   206 PWs)   bands (ev):

     9.0261   9.6426  11.1165  12.0872  12.1453  17.1694  20.5696  26.9734

          k = 0.0000 0.0000 0.2128 (   209 PWs)   bands (ev):

     6.1508  10.7597  10.7597  11.0560  11.4234  12.1608  33.7346  35.6313

          k = 0.4256 0.3192 0.3192 (   208 PWs)   bands (ev):

     9.4676   9.8343  10.3013  12.1189  12.1679  18.1197  22.3122  23.4103

          k = 0.0000-0.1064 0.3192 (   204 PWs)   bands (ev):

     7.6396  10.5197  10.5517  11.3493  11.8329  12.4243  29.2131  33.0330

          k = 0.0000-0.2128 0.4256 (   212 PWs)   bands (ev):

     8.5972  10.2086  10.5741  11.7333  12.8154  13.6189  23.7002  31.1318

          k = 0.1064-0.1064 0.4256 (   208 PWs)   bands (ev):

     8.8144   9.9575  10.6850  11.4650  12.3879  13.6552  26.7950  27.4780

          k =-0.8512-0.3192-0.3192 (   208 PWs)   bands (ev):

     8.6078  10.0818  10.8543  11.7437  13.2730  15.5800  20.3988  30.2986

          k =-0.7448-0.2128-0.3192 (   210 PWs)   bands (ev):

     9.1021   9.9376  10.4097  11.8065  12.8341  16.4775  21.9639  25.8663

          k =-0.6384-0.2128-0.2128 (   206 PWs)   bands (ev):

     9.6242   9.6242  10.0426  12.4242  12.4242  20.1815  20.1815  22.4586

          k = 0.4256 0.4256 0.4256 (   216 PWs)   bands (ev):

     9.8960   9.8960   9.8960  12.1622  12.1622  21.6983  21.6983  21.6983

          k = 0.0000 0.0000 0.4256 (   209 PWs)   bands (ev):

     8.6387  10.1389  11.1712  11.1712  11.8646  13.2729  30.0590  30.0590

          k = 0.0000-0.1064 0.5320 (   208 PWs)   bands (ev):

     9.0849   9.5356  11.1840  11.6019  12.6946  15.4356  24.8208  27.7607

          k =-0.8512-0.2128-0.2128 (   210 PWs)   bands (ev):

     8.9669   9.4942  11.1144  11.7152  13.1808  18.3007  20.8796  26.8554

          k =-0.7448-0.1064-0.2128 (   216 PWs)   bands (ev):

     9.0626   9.0888  11.2453  12.3093  12.8947  18.6889  23.0258  23.7233

          k = 0.0000 0.0000 0.6384 (   212 PWs)   bands (ev):

     8.8256   8.8763  12.2439  12.2439  12.6991  17.9656  25.2073  25.2073

          k =-0.8512-0.1064-0.1064 (   216 PWs)   bands (ev):

     8.6116   8.6496  12.3946  12.5691  13.0894  21.2163  22.0280  24.1757

          k =-0.8512-0.8512-0.8512 (   236 PWs)   bands (ev):

     8.3654   8.3654  13.0516  13.0516  13.0516  23.0655  23.0655  23.0655

 ------ SPIN DOWN ----------


          k = 0.0000 0.0000 0.0000 (   201 PWs)   bands (ev):

     4.9846  13.1530  13.1530  13.1530  15.0958  15.0958  37.3822  37.3822

          k = 0.1064 0.1064 0.0000 (   205 PWs)   bands (ev):

     5.6192  12.9487  13.0914  13.5179  14.9027  15.1134  34.6057  36.5603

          k = 0.2128 0.2128 0.0000 (   205 PWs)   bands (ev):

     7.3332  12.4796  12.7888  14.4811  14.7695  15.1841  29.4396  34.1151

          k = 0.3192 0.3192 0.0000 (   200 PWs)   bands (ev):

     9.2133  12.0405  12.9180  14.9142  15.2978  15.5993  24.4284  32.0074

          k =-0.4256-0.4256 0.0000 (   194 PWs)   bands (ev):

     9.7807  11.8666  13.8193  14.9792  15.3589  16.1272  21.8890  31.2215

          k = 0.2128 0.1064 0.1064 (   203 PWs)   bands (ev):

     6.8071  12.6972  12.7553  14.2545  14.6758  15.2209  31.8969  33.0304

          k = 0.3192 0.2128 0.1064 (   202 PWs)   bands (ev):

     8.7498  12.2149  12.4328  14.7048  15.2854  15.5525  27.0411  30.4851

          k = 0.4256 0.3192 0.1064 (   201 PWs)   bands (ev):

    10.0208  11.9257  12.8331  14.9086  15.4547  16.8308  22.7097  29.1906

          k = 0.4256 0.2128 0.2128 (   202 PWs)   bands (ev):

    10.3898  11.7906  12.2387  14.8196  15.3768  17.3550  25.0355  25.6868

          k = 0.5320 0.3192 0.2128 (   210 PWs)   bands (ev):

    10.9616  11.8182  12.1496  15.0064  15.3480  19.3614  21.9339  24.7691

          k = 0.2128 0.2128 0.2128 (   210 PWs)   bands (ev):

     8.3861  12.1885  12.1885  15.0734  15.0734  15.5254  29.6414  29.6414

          k = 0.3192 0.3192 0.2128 (   204 PWs)   bands (ev):

    10.1829  11.7993  12.0042  15.1154  15.3078  17.1357  24.9536  28.0879

          k = 0.4256 0.4256 0.2128 (   206 PWs)   bands (ev):

    10.6288  11.6662  12.5071  15.1728  15.3819  18.5630  21.9600  27.5291

          k = 0.0000 0.0000 0.2128 (   209 PWs)   bands (ev):

     6.2307  13.1318  13.1318  13.5243  14.3712  15.3485  33.8503  35.9860

          k = 0.4256 0.3192 0.3192 (   208 PWs)   bands (ev):

    11.2156  11.6408  11.8574  15.2717  15.3710  19.5645  23.3135  24.2545

          k = 0.0000-0.1064 0.3192 (   204 PWs)   bands (ev):

     7.8689  12.8259  12.8555  14.0683  14.3943  15.5346  29.8727  33.2733

          k = 0.0000-0.2128 0.4256 (   212 PWs)   bands (ev):

     9.6640  12.4408  12.4476  14.4621  15.5344  15.9782  24.7510  31.7575

          k = 0.1064-0.1064 0.4256 (   208 PWs)   bands (ev):

     9.5438  12.2125  12.8786  14.0843  15.1573  16.1114  27.6436  28.1403

          k =-0.8512-0.3192-0.3192 (   208 PWs)   bands (ev):

    10.2181  12.2851  12.6504  14.5496  16.0823  16.9467  21.9109  31.0650

          k =-0.7448-0.2128-0.3192 (   210 PWs)   bands (ev):

    10.7335  11.8615  12.5640  14.4882  15.5950  18.0583  23.1159  26.5871

          k =-0.6384-0.2128-0.2128 (   206 PWs)   bands (ev):

    11.5551  11.5551  12.0664  15.1440  15.1440  21.3613  21.3613  23.3979

          k = 0.4256 0.4256 0.4256 (   216 PWs)   bands (ev):

    11.6269  11.6269  11.6269  15.4055  15.4055  22.7099  22.7099  22.7099

          k = 0.0000 0.0000 0.4256 (   209 PWs)   bands (ev):

     9.1994  12.6588  13.5061  13.5061  14.4502  15.9595  30.7273  30.7273

          k = 0.0000-0.1064 0.5320 (   208 PWs)   bands (ev):

    10.4700  11.7441  13.5245  14.0564  15.3926  17.1702  25.6861  28.3712

          k =-0.8512-0.2128-0.2128 (   210 PWs)   bands (ev):

    10.9062  11.4186  13.4440  14.1806  15.9753  19.3768  22.0844  27.3991

          k =-0.7448-0.1064-0.2128 (   216 PWs)   bands (ev):

    10.9625  11.1670  13.5289  14.8690  15.6114  19.8168  23.9103  24.4241

          k = 0.0000 0.0000 0.6384 (   212 PWs)   bands (ev):

    10.6524  11.0470  14.7419  14.7419  15.4151  19.0017  25.6993  25.6993

          k =-0.8512-0.1064-0.1064 (   216 PWs)   bands (ev):

    10.6647  10.6780  14.9666  15.1429  15.8692  21.8595  22.6648  24.5511

          k =-0.8512-0.8512-0.8512 (   236 PWs)   bands (ev):

    10.4135  10.4135  15.8253  15.8253  15.8253  23.2677  23.2677  23.2677

     the Fermi energy is    13.1065 ev

!    total energy              =     -55.80145602 Ry
     estimated scf accuracy    <       0.00000006 Ry
     smearing contrib. (-TS)   =       0.00039982 Ry
     internal energy E=F+TS    =     -55.80185583 Ry

     The total energy is F=E-TS. E is the sum of the following terms:
     one-electron contribution =       7.22810595 Ry
     hartree contribution      =       6.61760018 Ry
     xc contribution           =     -26.45416100 Ry
     ewald contribution        =     -43.19340097 Ry

     total magnetization       =     2.40 Bohr mag/cell
     absolute magnetization    =     2.58 Bohr mag/cell

     convergence has been achieved in  16 iterations

     Forces acting on atoms (cartesian axes, Ry/au):

     atom    1 type  1   force =     0.00000000    0.00000000    0.00000000
     The non-local contrib.  to forces
     atom    1 type  1   force =     0.00000000   -0.00000000   -0.00000000
     The ionic contribution  to forces
     atom    1 type  1   force =    -0.00000000   -0.00000000   -0.00000000
     The local contribution  to forces
     atom    1 type  1   force =    -0.00000000   -0.00000000   -0.00000000
     The core correction contribution to forces
     atom    1 type  1   force =    -0.00000000   -0.00000000   -0.00000000
     The Hubbard contrib.    to forces
     atom    1 type  1   force =     0.00000000    0.00000000    0.00000000
     The SCF correction term to forces
     atom    1 type  1   force =     0.00000000   -0.00000000    0.00000000

     Total force =     0.000000     Total SCF correction =     0.000000


     Computing stress (Cartesian axis) and pressure

          total   stress  (Ry/bohr**3)                   (kbar)     P=        2.45
   0.00001669  -0.00000000  -0.00000000            2.45       -0.00       -0.00
  -0.00000000   0.00001669  -0.00000000           -0.00        2.45       -0.00
  -0.00000000  -0.00000000   0.00001669           -0.00       -0.00        2.45

     Energy error            =      1.4E-03 Ry
     Gradient error          =      0.0E+00 Ry/Bohr
     Cell gradient error     =      2.5E+00 kbar

     number of scf cycles    =   2
     number of bfgs steps    =   1

     enthalpy           old  =     -55.8000212093 Ry
     enthalpy           new  =     -55.8014560166 Ry

     CASE: enthalpy          _new < enthalpy          _old

     new trust radius        =       0.0007706282 bohr
     new conv_thr            =       0.0000000010 Ry

     new unit-cell volume =     78.49723 a.u.^3 (    11.63209 Ang^3 )
     density =      7.97215 g/cm^3

CELL_PARAMETERS (angstrom)
  -1.427356911   1.427356911   1.427356911
   1.427356911  -1.427356911   1.427356911
   1.427356911   1.427356911  -1.427356911

ATOMIC_POSITIONS (angstrom)
Fe            0.0000000000        0.0000000000        0.0000000000



     Writing config-only to output data dir /home/gridsan/epan1/labutil/lab3_samples/problem1/Lab3/Fe_bcc_a_2.8046394196999995_ecut_30_nk_8/pwscf.save/
     NEW-OLD atomic charge density approx. for the potential
     extrapolated charge    8.01043, renormalised to    8.00000
     Generating pointlists ...

     total cpu time spent up to now is      123.9 secs

     Self-consistent Calculation

     iteration #  1     ecut=    30.00 Ry     beta= 0.50
     Davidson diagonalization with overlap
     ethr =  1.00E-06,  avg # of iterations =  2.0

     total cpu time spent up to now is      129.3 secs

     total energy              =     -55.80138724 Ry
     estimated scf accuracy    <       0.00007313 Ry

     total magnetization       =     2.40 Bohr mag/cell
     absolute magnetization    =     2.58 Bohr mag/cell

     iteration #  2     ecut=    30.00 Ry     beta= 0.50
     Davidson diagonalization with overlap
     ethr =  9.14E-07,  avg # of iterations =  2.4

     total cpu time spent up to now is      132.8 secs

     total energy              =     -55.80145620 Ry
     estimated scf accuracy    <       0.00016973 Ry

     total magnetization       =     2.41 Bohr mag/cell
     absolute magnetization    =     2.58 Bohr mag/cell

     iteration #  3     ecut=    30.00 Ry     beta= 0.50
     Davidson diagonalization with overlap
     ethr =  9.14E-07,  avg # of iterations =  1.2

     total cpu time spent up to now is      136.6 secs

     total energy              =     -55.80144831 Ry
     estimated scf accuracy    <       0.00002824 Ry

     total magnetization       =     2.41 Bohr mag/cell
     absolute magnetization    =     2.58 Bohr mag/cell

     iteration #  4     ecut=    30.00 Ry     beta= 0.50
     Davidson diagonalization with overlap
     ethr =  3.53E-07,  avg # of iterations =  2.1

     total cpu time spent up to now is      139.2 secs

     total energy              =     -55.80146283 Ry
     estimated scf accuracy    <       0.00001607 Ry

     total magnetization       =     2.40 Bohr mag/cell
     absolute magnetization    =     2.58 Bohr mag/cell

     iteration #  5     ecut=    30.00 Ry     beta= 0.50
     Davidson diagonalization with overlap
     ethr =  2.01E-07,  avg # of iterations =  1.0

     total cpu time spent up to now is      143.8 secs

     total energy              =     -55.80146042 Ry
     estimated scf accuracy    <       0.00001049 Ry

     total magnetization       =     2.41 Bohr mag/cell
     absolute magnetization    =     2.58 Bohr mag/cell

     iteration #  6     ecut=    30.00 Ry     beta= 0.50
     Davidson diagonalization with overlap
     ethr =  1.31E-07,  avg # of iterations =  1.0

     total cpu time spent up to now is      148.1 secs

     total energy              =     -55.80145873 Ry
     estimated scf accuracy    <       0.00000265 Ry

     total magnetization       =     2.41 Bohr mag/cell
     absolute magnetization    =     2.58 Bohr mag/cell

     iteration #  7     ecut=    30.00 Ry     beta= 0.50
     Davidson diagonalization with overlap
     ethr =  3.31E-08,  avg # of iterations =  2.5

     total cpu time spent up to now is      152.0 secs

     total energy              =     -55.80146024 Ry
     estimated scf accuracy    <       0.00000783 Ry

     total magnetization       =     2.41 Bohr mag/cell
     absolute magnetization    =     2.58 Bohr mag/cell

     iteration #  8     ecut=    30.00 Ry     beta= 0.50
     Davidson diagonalization with overlap
     ethr =  3.31E-08,  avg # of iterations =  1.2

     total cpu time spent up to now is      155.9 secs

     total energy              =     -55.80146015 Ry
     estimated scf accuracy    <       0.00000164 Ry

     total magnetization       =     2.41 Bohr mag/cell
     absolute magnetization    =     2.58 Bohr mag/cell

     iteration #  9     ecut=    30.00 Ry     beta= 0.50
     Davidson diagonalization with overlap
     ethr =  2.05E-08,  avg # of iterations =  1.1

     total cpu time spent up to now is      161.6 secs

     total energy              =     -55.80146023 Ry
     estimated scf accuracy    <       0.00000020 Ry

     total magnetization       =     2.41 Bohr mag/cell
     absolute magnetization    =     2.58 Bohr mag/cell

     iteration # 10     ecut=    30.00 Ry     beta= 0.50
     Davidson diagonalization with overlap
     ethr =  2.50E-09,  avg # of iterations =  1.5

     total cpu time spent up to now is      170.9 secs

     total energy              =     -55.80146023 Ry
     estimated scf accuracy    <       0.00000004 Ry

     total magnetization       =     2.41 Bohr mag/cell
     absolute magnetization    =     2.58 Bohr mag/cell

     iteration # 11     ecut=    30.00 Ry     beta= 0.50
     Davidson diagonalization with overlap
     ethr =  4.74E-10,  avg # of iterations =  1.7

     total cpu time spent up to now is      173.6 secs

     total energy              =     -55.80146024 Ry
     estimated scf accuracy    <          1.4E-09 Ry

     total magnetization       =     2.41 Bohr mag/cell
     absolute magnetization    =     2.58 Bohr mag/cell

     iteration # 12     ecut=    30.00 Ry     beta= 0.50
     Davidson diagonalization with overlap
     ethr =  1.71E-11,  avg # of iterations =  4.4

     Magnetic moment per site  (integrated on atomic sphere of radius R)
     atom   1 (R=0.413)  charge=  6.3725  magn=  2.4828

     total cpu time spent up to now is      178.5 secs

     End of self-consistent calculation

 ------ SPIN UP ------------


          k = 0.0000 0.0000 0.0000 (   201 PWs)   bands (ev):

     4.9078  10.7071  10.7071  10.7071  11.9283  11.9283  37.6903  37.6903

          k = 0.1064 0.1064 0.0000 (   205 PWs)   bands (ev):

     5.5357  10.5474  10.6846  11.0330  11.7953  11.9423  34.4092  36.6784

          k = 0.2127 0.2127 0.0000 (   205 PWs)   bands (ev):

     7.1307  10.1759  10.6324  11.7592  11.8822  11.9923  28.7348  34.0996

          k = 0.3191 0.3191 0.0000 (   200 PWs)   bands (ev):

     8.2014   9.8224  11.7208  12.0662  12.1209  12.8426  23.2820  32.0374

          k =-0.4254-0.4254 0.0000 (   194 PWs)   bands (ev):

     8.2598   9.6809  11.9718  12.1043  13.2839  13.8163  20.2548  31.2873

          k = 0.2127 0.1064 0.1064 (   203 PWs)   bands (ev):

     6.6810  10.3784  10.4233  11.6541  11.7199  12.0365  31.4383  32.6014

          k = 0.3191 0.2127 0.1064 (   202 PWs)   bands (ev):

     8.2311   9.9979  10.4839  11.7468  12.1522  12.9948  26.1762  29.9832

          k = 0.4254 0.3191 0.1064 (   201 PWs)   bands (ev):

     8.5658   9.7675  11.3302  11.9360  12.4866  14.9036  21.3530  28.7075

          k = 0.4254 0.2127 0.2127 (   202 PWs)   bands (ev):

     9.1232   9.7792  10.4204  11.8682  12.2985  15.3399  24.0435  24.8918

          k = 0.5318 0.3191 0.2127 (   210 PWs)   bands (ev):

     9.2101   9.8154  10.4643  12.0289  12.3533  17.9900  20.5834  23.9262

          k = 0.2127 0.2127 0.2127 (   210 PWs)   bands (ev):

     8.1201   9.9961   9.9961  11.9371  11.9371  13.0261  29.0623  29.0623

          k = 0.3191 0.3191 0.2127 (   204 PWs)   bands (ev):

     9.0861   9.7160  10.3801  12.0034  12.0813  15.0205  23.9952  27.4910

          k = 0.4254 0.4254 0.2127 (   206 PWs)   bands (ev):

     9.0076   9.6227  11.0943  12.0626  12.1208  17.1406  20.5347  26.9385

          k = 0.0000 0.0000 0.2127 (   209 PWs)   bands (ev):

     6.1340  10.7374  10.7374  11.0330  11.4007  12.1364  33.6997  35.5899

          k = 0.4254 0.3191 0.3191 (   208 PWs)   bands (ev):

     9.4481   9.8143  10.2804  12.0943  12.1433  18.0890  22.2792  23.3738

          k = 0.0000-0.1064 0.3191 (   204 PWs)   bands (ev):

     7.6217  10.4979  10.5306  11.3262  11.8084  12.3993  29.1754  32.9956

          k = 0.0000-0.2127 0.4254 (   212 PWs)   bands (ev):

     8.5792  10.1875  10.5534  11.7094  12.7889  13.5928  23.6643  31.0903

          k = 0.1064-0.1064 0.4254 (   208 PWs)   bands (ev):

     8.7959   9.9378  10.6631  11.4415  12.3623  13.6284  26.7588  27.4393

          k =-0.8508-0.3191-0.3191 (   208 PWs)   bands (ev):

     8.5902  10.0610  10.8331  11.7198  13.2454  15.5538  20.3636  30.2578

          k =-0.7445-0.2127-0.3191 (   210 PWs)   bands (ev):

     9.0838   9.9179  10.3886  11.7824  12.8077  16.4487  21.9291  25.8296

          k =-0.6381-0.2127-0.2127 (   206 PWs)   bands (ev):

     9.6053   9.6053  10.0219  12.3987  12.3987  20.1499  20.1499  22.4221

          k = 0.4254 0.4254 0.4254 (   216 PWs)   bands (ev):

     9.8757   9.8757   9.8757  12.1376  12.1376  21.6658  21.6658  21.6658

          k = 0.0000 0.0000 0.4254 (   209 PWs)   bands (ev):

     8.6205  10.1192  11.1482  11.1482  11.8400  13.2466  30.0185  30.0185

          k = 0.0000-0.1064 0.5318 (   208 PWs)   bands (ev):

     9.0668   9.5170  11.1610  11.5781  12.6683  15.4075  24.7847  27.7223

          k =-0.8508-0.2127-0.2127 (   210 PWs)   bands (ev):

     8.9492   9.4757  11.0915  11.6912  13.1534  18.2713  20.8452  26.8180

          k =-0.7445-0.1064-0.2127 (   216 PWs)   bands (ev):

     9.0450   9.0710  11.2221  12.2839  12.8681  18.6583  22.9919  23.6875

          k = 0.0000 0.0000 0.6381 (   212 PWs)   bands (ev):

     8.8083   8.8591  12.2187  12.2187  12.6728  17.9357  25.1716  25.1716

          k =-0.8508-0.1064-0.1064 (   216 PWs)   bands (ev):

     8.5949   8.6328  12.3690  12.5431  13.0622  21.1846  21.9945  24.1414

          k =-0.8508-0.8508-0.8508 (   236 PWs)   bands (ev):

     8.3492   8.3492  13.0245  13.0245  13.0245  23.0328  23.0328  23.0328

 ------ SPIN DOWN ----------


          k = 0.0000 0.0000 0.0000 (   201 PWs)   bands (ev):

     4.9693  13.1355  13.1355  13.1355  15.0740  15.0740  37.3467  37.3467

          k = 0.1064 0.1064 0.0000 (   205 PWs)   bands (ev):

     5.6032  12.9315  13.0740  13.4997  14.8813  15.0916  34.5686  36.5238

          k = 0.2127 0.2127 0.0000 (   205 PWs)   bands (ev):

     7.3159  12.4632  12.7713  14.4614  14.7485  15.1622  29.4026  34.0788

          k = 0.3191 0.3191 0.0000 (   200 PWs)   bands (ev):

     9.1967  12.0247  12.8980  14.8930  15.2756  15.5777  24.3937  31.9726

          k =-0.4254-0.4254 0.0000 (   194 PWs)   bands (ev):

     9.7660  11.8511  13.7964  14.9578  15.3366  16.1047  21.8558  31.1875

          k = 0.2127 0.1064 0.1064 (   203 PWs)   bands (ev):

     6.7901  12.6804  12.7383  14.2351  14.6549  15.1988  31.8602  32.9919

          k = 0.3191 0.2127 0.1064 (   202 PWs)   bands (ev):

     8.7321  12.1987  12.4155  14.6840  15.2636  15.5303  27.0053  30.4481

          k = 0.4254 0.3191 0.1064 (   201 PWs)   bands (ev):

    10.0052  11.9100  12.8130  14.8874  15.4323  16.8065  22.6762  29.1546

          k = 0.4254 0.2127 0.2127 (   202 PWs)   bands (ev):

    10.3725  11.7742  12.2216  14.7986  15.3546  17.3295  25.0019  25.6507

          k = 0.5318 0.3191 0.2127 (   210 PWs)   bands (ev):

    10.9458  11.8021  12.1312  14.9851  15.3261  19.3332  21.9017  24.7343

          k = 0.2127 0.2127 0.2127 (   210 PWs)   bands (ev):

     8.3680  12.1722  12.1722  15.0517  15.0517  15.5036  29.6055  29.6055

          k = 0.3191 0.3191 0.2127 (   204 PWs)   bands (ev):

    10.1653  11.7836  11.9870  15.0937  15.2856  17.1109  24.9192  28.0531

          k = 0.4254 0.4254 0.2127 (   206 PWs)   bands (ev):

    10.6132  11.6506  12.4879  15.1510  15.3595  18.5361  21.9272  27.4949

          k = 0.0000 0.0000 0.2127 (   209 PWs)   bands (ev):

     6.2141  13.1143  13.1143  13.5062  14.3508  15.3262  33.8146  35.9462

          k = 0.4254 0.3191 0.3191 (   208 PWs)   bands (ev):

    11.1995  11.6244  11.8402  15.2497  15.3488  19.5361  23.2816  24.2193

          k = 0.0000-0.1064 0.3191 (   204 PWs)   bands (ev):

     7.8512  12.8088  12.8380  14.0487  14.3747  15.5119  29.8356  33.2357

          k = 0.0000-0.2127 0.4254 (   212 PWs)   bands (ev):

     9.6470  12.4244  12.4293  14.4418  15.5129  15.9543  24.7161  31.7173

          k = 0.1064-0.1064 0.4254 (   208 PWs)   bands (ev):

     9.5258  12.1957  12.8611  14.0648  15.1363  16.0874  27.6079  28.1029

          k =-0.8508-0.3191-0.3191 (   208 PWs)   bands (ev):

    10.2030  12.2688  12.6307  14.5291  16.0599  16.9211  21.8778  31.0294

          k =-0.7445-0.2127-0.3191 (   210 PWs)   bands (ev):

    10.7171  11.8442  12.5470  14.4680  15.5730  18.0312  23.0824  26.5514

          k =-0.6381-0.2127-0.2127 (   206 PWs)   bands (ev):

    11.5383  11.5383  12.0499  15.1228  15.1228  21.3306  21.3306  23.3632

          k = 0.4254 0.4254 0.4254 (   216 PWs)   bands (ev):

    11.6104  11.6104  11.6104  15.3831  15.3831  22.6787  22.6787  22.6787

          k = 0.0000 0.0000 0.4254 (   209 PWs)   bands (ev):

     9.1813  12.6413  13.4878  13.4878  14.4306  15.9355  30.6882  30.6882

          k = 0.0000-0.1064 0.5318 (   208 PWs)   bands (ev):

    10.4528  11.7277  13.5062  14.0370  15.3713  17.1438  25.6510  28.3342

          k =-0.8508-0.2127-0.2127 (   210 PWs)   bands (ev):

    10.8906  11.4018  13.4258  14.1608  15.9530  19.3481  22.0516  27.3630

          k =-0.7445-0.1064-0.2127 (   216 PWs)   bands (ev):

    10.9465  11.1515  13.5103  14.8485  15.5896  19.7872  23.8772  24.3897

          k = 0.0000 0.0000 0.6381 (   212 PWs)   bands (ev):

    10.6367  11.0319  14.7216  14.7216  15.3938  18.9728  25.6649  25.6649

          k =-0.8508-0.1064-0.1064 (   216 PWs)   bands (ev):

    10.6498  10.6633  14.9460  15.1219  15.8471  21.8285  22.6325  24.5180

          k =-0.8508-0.8508-0.8508 (   236 PWs)   bands (ev):

    10.3993  10.3993  15.8034  15.8034  15.8034  23.2359  23.2359  23.2359

     the Fermi energy is    13.0827 ev

!    total energy              =     -55.80146024 Ry
     estimated scf accuracy    <          6.2E-10 Ry
     smearing contrib. (-TS)   =       0.00039210 Ry
     internal energy E=F+TS    =     -55.80185234 Ry

     The total energy is F=E-TS. E is the sum of the following terms:
     one-electron contribution =       7.20129575 Ry
     hartree contribution      =       6.62551970 Ry
     xc contribution           =     -26.45405566 Ry
     ewald contribution        =     -43.17461214 Ry

     total magnetization       =     2.41 Bohr mag/cell
     absolute magnetization    =     2.58 Bohr mag/cell

     convergence has been achieved in  12 iterations

     Forces acting on atoms (cartesian axes, Ry/au):

     atom    1 type  1   force =     0.00000000    0.00000000    0.00000000
     The non-local contrib.  to forces
     atom    1 type  1   force =     0.00000000    0.00000000    0.00000000
     The ionic contribution  to forces
     atom    1 type  1   force =    -0.00000000   -0.00000000   -0.00000000
     The local contribution  to forces
     atom    1 type  1   force =    -0.00000000   -0.00000000   -0.00000000
     The core correction contribution to forces
     atom    1 type  1   force =    -0.00000000    0.00000000   -0.00000000
     The Hubbard contrib.    to forces
     atom    1 type  1   force =     0.00000000    0.00000000    0.00000000
     The SCF correction term to forces
     atom    1 type  1   force =    -0.00000000   -0.00000000   -0.00000000

     Total force =     0.000000     Total SCF correction =     0.000000


     Computing stress (Cartesian axis) and pressure

          total   stress  (Ry/bohr**3)                   (kbar)     P=        4.62
   0.00003138  -0.00000000  -0.00000000            4.62       -0.00       -0.00
  -0.00000000   0.00003138  -0.00000000           -0.00        4.62       -0.00
  -0.00000000  -0.00000000   0.00003138           -0.00       -0.00        4.62

     Energy error            =      4.2E-06 Ry
     Gradient error          =      0.0E+00 Ry/Bohr
     Cell gradient error     =      4.6E+00 kbar

     number of scf cycles    =   3
     number of bfgs steps    =   2

     enthalpy           old  =     -55.8014560166 Ry
     enthalpy           new  =     -55.8014602447 Ry

     CASE: enthalpy          _new < enthalpy          _old


     WARNING: bfgs curvature condition failed, Theta= 0.425
     new trust radius        =       0.0005386473 bohr
     new conv_thr            =       0.0000000010 Ry

     new unit-cell volume =     78.56884 a.u.^3 (    11.64270 Ang^3 )
     density =      7.96489 g/cm^3

CELL_PARAMETERS (angstrom)
  -1.427790802   1.427790802   1.427790802
   1.427790802  -1.427790802   1.427790802
   1.427790802   1.427790802  -1.427790802

ATOMIC_POSITIONS (angstrom)
Fe            0.0000000000        0.0000000000        0.0000000000



     Writing config-only to output data dir /home/gridsan/epan1/labutil/lab3_samples/problem1/Lab3/Fe_bcc_a_2.8046394196999995_ecut_30_nk_8/pwscf.save/
     NEW-OLD atomic charge density approx. for the potential
     extrapolated charge    8.00729, renormalised to    8.00000
     Generating pointlists ...

     total cpu time spent up to now is      181.3 secs

     Self-consistent Calculation

     iteration #  1     ecut=    30.00 Ry     beta= 0.50
     Davidson diagonalization with overlap
     ethr =  1.00E-06,  avg # of iterations =  2.0

     total cpu time spent up to now is      186.1 secs

     total energy              =     -55.80142423 Ry
     estimated scf accuracy    <       0.00003966 Ry

     total magnetization       =     2.40 Bohr mag/cell
     absolute magnetization    =     2.58 Bohr mag/cell

     iteration #  2     ecut=    30.00 Ry     beta= 0.50
     Davidson diagonalization with overlap
     ethr =  4.96E-07,  avg # of iterations =  2.3

     total cpu time spent up to now is      189.7 secs

     total energy              =     -55.80146009 Ry
     estimated scf accuracy    <       0.00008653 Ry

     total magnetization       =     2.41 Bohr mag/cell
     absolute magnetization    =     2.59 Bohr mag/cell

     iteration #  3     ecut=    30.00 Ry     beta= 0.50
     Davidson diagonalization with overlap
     ethr =  4.96E-07,  avg # of iterations =  1.1

     total cpu time spent up to now is      193.3 secs

     total energy              =     -55.80145624 Ry
     estimated scf accuracy    <       0.00001383 Ry

     total magnetization       =     2.41 Bohr mag/cell
     absolute magnetization    =     2.58 Bohr mag/cell

     iteration #  4     ecut=    30.00 Ry     beta= 0.50
     Davidson diagonalization with overlap
     ethr =  1.73E-07,  avg # of iterations =  2.2

     total cpu time spent up to now is      198.4 secs

     total energy              =     -55.80146379 Ry
     estimated scf accuracy    <       0.00001048 Ry

     total magnetization       =     2.41 Bohr mag/cell
     absolute magnetization    =     2.58 Bohr mag/cell

     iteration #  5     ecut=    30.00 Ry     beta= 0.50
     Davidson diagonalization with overlap
     ethr =  1.31E-07,  avg # of iterations =  1.0

     total cpu time spent up to now is      203.8 secs

     total energy              =     -55.80146247 Ry
     estimated scf accuracy    <       0.00000578 Ry

     total magnetization       =     2.41 Bohr mag/cell
     absolute magnetization    =     2.58 Bohr mag/cell

     iteration #  6     ecut=    30.00 Ry     beta= 0.50
     Davidson diagonalization with overlap
     ethr =  7.22E-08,  avg # of iterations =  1.0

     total cpu time spent up to now is      210.2 secs

     total energy              =     -55.80146169 Ry
     estimated scf accuracy    <       0.00000132 Ry

     total magnetization       =     2.41 Bohr mag/cell
     absolute magnetization    =     2.58 Bohr mag/cell

     iteration #  7     ecut=    30.00 Ry     beta= 0.50
     Davidson diagonalization with overlap
     ethr =  1.65E-08,  avg # of iterations =  2.4

     total cpu time spent up to now is      215.2 secs

     total energy              =     -55.80146257 Ry
     estimated scf accuracy    <       0.00000317 Ry

     total magnetization       =     2.41 Bohr mag/cell
     absolute magnetization    =     2.59 Bohr mag/cell

     iteration #  8     ecut=    30.00 Ry     beta= 0.50
     Davidson diagonalization with overlap
     ethr =  1.65E-08,  avg # of iterations =  1.0

     total cpu time spent up to now is      225.2 secs

     total energy              =     -55.80146232 Ry
     estimated scf accuracy    <       0.00000097 Ry

     total magnetization       =     2.41 Bohr mag/cell
     absolute magnetization    =     2.59 Bohr mag/cell

     iteration #  9     ecut=    30.00 Ry     beta= 0.50
     Davidson diagonalization with overlap
     ethr =  1.21E-08,  avg # of iterations =  1.2

     total cpu time spent up to now is      229.4 secs

     total energy              =     -55.80146242 Ry
     estimated scf accuracy    <       0.00000004 Ry

     total magnetization       =     2.41 Bohr mag/cell
     absolute magnetization    =     2.58 Bohr mag/cell

     iteration # 10     ecut=    30.00 Ry     beta= 0.50
     Davidson diagonalization with overlap
     ethr =  4.59E-10,  avg # of iterations =  2.2

     total cpu time spent up to now is      235.9 secs

     total energy              =     -55.80146243 Ry
     estimated scf accuracy    <          2.7E-09 Ry

     total magnetization       =     2.41 Bohr mag/cell
     absolute magnetization    =     2.58 Bohr mag/cell

     iteration # 11     ecut=    30.00 Ry     beta= 0.50
     Davidson diagonalization with overlap
     ethr =  3.35E-11,  avg # of iterations =  2.4

     Magnetic moment per site  (integrated on atomic sphere of radius R)
     atom   1 (R=0.413)  charge=  6.3715  magn=  2.4852

     total cpu time spent up to now is      243.6 secs

     End of self-consistent calculation

 ------ SPIN UP ------------


          k = 0.0000 0.0000 0.0000 (   201 PWs)   bands (ev):

     4.8971  10.6922  10.6922  10.6922  11.9121  11.9121  37.6660  37.6660

          k = 0.1063 0.1063 0.0000 (   205 PWs)   bands (ev):

     5.5246  10.5328  10.6698  11.0177  11.7794  11.9262  34.3834  36.6533

          k = 0.2126 0.2126 0.0000 (   205 PWs)   bands (ev):

     7.1187  10.1619  10.6179  11.7431  11.8657  11.9761  28.7089  34.0746

          k = 0.3190 0.3190 0.0000 (   200 PWs)   bands (ev):

     8.1896   9.8089  11.7053  12.0498  12.1047  12.8247  23.2573  32.0136

          k =-0.4253-0.4253 0.0000 (   194 PWs)   bands (ev):

     8.2483   9.6676  11.9554  12.0878  13.2654  13.8006  20.2305  31.2640

          k = 0.2126 0.1063 0.1063 (   203 PWs)   bands (ev):

     6.6692  10.3641  10.4090  11.6383  11.7036  12.0201  31.4128  32.5742

          k = 0.3190 0.2126 0.1063 (   202 PWs)   bands (ev):

     8.2188   9.9841  10.4696  11.7307  12.1356  12.9770  26.1509  29.9571

          k = 0.4253 0.3190 0.1063 (   201 PWs)   bands (ev):

     8.5539   9.7540  11.3151  11.9196  12.4695  14.8850  21.3289  28.6821

          k = 0.4253 0.2126 0.2126 (   202 PWs)   bands (ev):

     9.1104   9.7660  10.4063  11.8520  12.2817  15.3204  24.0198  24.8660

          k = 0.5316 0.3190 0.2126 (   210 PWs)   bands (ev):

     9.1975   9.8021  10.4502  12.0124  12.3363  17.9697  20.5600  23.9014

          k = 0.2126 0.2126 0.2126 (   210 PWs)   bands (ev):

     8.1074   9.9825   9.9825  11.9208  11.9208  13.0083  29.0373  29.0373

          k = 0.3190 0.3190 0.2126 (   204 PWs)   bands (ev):

     9.0734   9.7027  10.3659  11.9870  12.0648  15.0010  23.9709  27.4667

          k = 0.4253 0.4253 0.2126 (   206 PWs)   bands (ev):

     8.9952   9.6094  11.0793  12.0461  12.1043  17.1208  20.5109  26.9144

          k = 0.0000 0.0000 0.2126 (   209 PWs)   bands (ev):

     6.1224  10.7225  10.7225  11.0177  11.3855  12.1199  33.6755  35.5614

          k = 0.4253 0.3190 0.3190 (   208 PWs)   bands (ev):

     9.4350   9.8009  10.2664  12.0778  12.1267  18.0681  22.2565  23.3487

          k = 0.0000-0.1063 0.3190 (   204 PWs)   bands (ev):

     7.6095  10.4834  10.5164  11.3108  11.7920  12.3824  29.1494  32.9697

          k = 0.0000-0.2126 0.4253 (   212 PWs)   bands (ev):

     8.5671  10.1735  10.5394  11.6934  12.7711  13.5751  23.6396  31.0618

          k = 0.1063-0.1063 0.4253 (   208 PWs)   bands (ev):

     8.7833   9.9246  10.6484  11.4258  12.3453  13.6103  26.7339  27.4126

          k =-0.8506-0.3190-0.3190 (   208 PWs)   bands (ev):

     8.5784  10.0471  10.8187  11.7038  13.2270  15.5358  20.3395  30.2297

          k =-0.7443-0.2126-0.3190 (   210 PWs)   bands (ev):

     9.0715   9.9047  10.3744  11.7662  12.7899  16.4290  21.9053  25.8043

          k =-0.6379-0.2126-0.2126 (   206 PWs)   bands (ev):

     9.5926   9.5926  10.0081  12.3816  12.3816  20.1282  20.1282  22.3970

          k = 0.4253 0.4253 0.4253 (   216 PWs)   bands (ev):

     9.8622   9.8622   9.8622  12.1210  12.1210  21.6434  21.6434  21.6434

          k = 0.0000 0.0000 0.4253 (   209 PWs)   bands (ev):

     8.6080  10.1059  11.1328  11.1328  11.8236  13.2287  29.9907  29.9907

          k = 0.0000-0.1063 0.5316 (   208 PWs)   bands (ev):

     9.0546   9.5045  11.1456  11.5621  12.6508  15.3883  24.7598  27.6959

          k =-0.8506-0.2126-0.2126 (   210 PWs)   bands (ev):

     8.9374   9.4632  11.0762  11.6752  13.1351  18.2512  20.8215  26.7923

          k =-0.7443-0.1063-0.2126 (   216 PWs)   bands (ev):

     9.0331   9.0590  11.2067  12.2670  12.8502  18.6374  22.9686  23.6629

          k = 0.0000 0.0000 0.6379 (   212 PWs)   bands (ev):

     8.7966   8.8475  12.2018  12.2018  12.6552  17.9152  25.1472  25.1472

          k =-0.8506-0.1063-0.1063 (   216 PWs)   bands (ev):

     8.5836   8.6215  12.3519  12.5258  13.0440  21.1628  21.9715  24.1178

          k =-0.8506-0.8506-0.8506 (   236 PWs)   bands (ev):

     8.3383   8.3383  13.0064  13.0064  13.0064  23.0103  23.0103  23.0103

 ------ SPIN DOWN ----------


          k = 0.0000 0.0000 0.0000 (   201 PWs)   bands (ev):

     4.9585  13.1237  13.1237  13.1237  15.0595  15.0595  37.3218  37.3218

          k = 0.1063 0.1063 0.0000 (   205 PWs)   bands (ev):

     5.5920  12.9199  13.0622  13.4875  14.8670  15.0771  34.5427  36.4982

          k = 0.2126 0.2126 0.0000 (   205 PWs)   bands (ev):

     7.3038  12.4521  12.7594  14.4481  14.7345  15.1476  29.3769  34.0534

          k = 0.3190 0.3190 0.0000 (   200 PWs)   bands (ev):

     9.1853  12.0141  12.8842  14.8789  15.2609  15.5631  24.3697  31.9484

          k =-0.4253-0.4253 0.0000 (   194 PWs)   bands (ev):

     9.7559  11.8406  13.7803  14.9435  15.3218  16.0895  21.8330  31.1637

          k = 0.2126 0.1063 0.1063 (   203 PWs)   bands (ev):

     6.7781  12.6690  12.7268  14.2219  14.6410  15.1842  31.8346  32.9651

          k = 0.3190 0.2126 0.1063 (   202 PWs)   bands (ev):

     8.7196  12.1877  12.4038  14.6701  15.2490  15.5154  26.9804  30.4223

          k = 0.4253 0.3190 0.1063 (   201 PWs)   bands (ev):

     9.9945  11.8993  12.7991  14.8733  15.4174  16.7899  22.6531  29.1295

          k = 0.4253 0.2126 0.2126 (   202 PWs)   bands (ev):

    10.3605  11.7631  12.2099  14.7846  15.3398  17.3122  24.9787  25.6256

          k = 0.5316 0.3190 0.2126 (   210 PWs)   bands (ev):

    10.9351  11.7911  12.1186  14.9709  15.3114  19.3139  21.8794  24.7101

          k = 0.2126 0.2126 0.2126 (   210 PWs)   bands (ev):

     8.3554  12.1612  12.1612  15.0373  15.0373  15.4889  29.5806  29.5806

          k = 0.3190 0.3190 0.2126 (   204 PWs)   bands (ev):

    10.1530  11.7729  11.9753  15.0793  15.2708  17.0941  24.8954  28.0290

          k = 0.4253 0.4253 0.2126 (   206 PWs)   bands (ev):

    10.6025  11.6401  12.4746  15.1365  15.3447  18.5177  21.9045  27.4711

          k = 0.0000 0.0000 0.2126 (   209 PWs)   bands (ev):

     6.2025  13.1024  13.1024  13.4940  14.3372  15.3114  33.7897  35.9184

          k = 0.4253 0.3190 0.3190 (   208 PWs)   bands (ev):

    11.1884  11.6132  11.8283  15.2350  15.3339  19.5166  23.2595  24.1949

          k = 0.0000-0.1063 0.3190 (   204 PWs)   bands (ev):

     7.8388  12.7973  12.8261  14.0356  14.3615  15.4967  29.8098  33.2095

          k = 0.0000-0.2126 0.4253 (   212 PWs)   bands (ev):

     9.6353  12.4133  12.4168  14.4282  15.4984  15.9382  24.6920  31.6892

          k = 0.1063-0.1063 0.4253 (   208 PWs)   bands (ev):

     9.5132  12.1844  12.8493  14.0518  15.1221  16.0712  27.5832  28.0767

          k =-0.8506-0.3190-0.3190 (   208 PWs)   bands (ev):

    10.1926  12.2579  12.6172  14.5153  16.0448  16.9036  21.8550  31.0045

          k =-0.7443-0.2126-0.3190 (   210 PWs)   bands (ev):

    10.7059  11.8324  12.5354  14.4544  15.5582  18.0127  23.0592  26.5265

          k =-0.6379-0.2126-0.2126 (   206 PWs)   bands (ev):

    11.5269  11.5269  12.0387  15.1085  15.1085  21.3094  21.3094  23.3390

          k = 0.4253 0.4253 0.4253 (   216 PWs)   bands (ev):

    11.5992  11.5992  11.5992  15.3682  15.3682  22.6571  22.6571  22.6571

          k = 0.0000 0.0000 0.4253 (   209 PWs)   bands (ev):

     9.1686  12.6296  13.4754  13.4754  14.4174  15.9194  30.6610  30.6610

          k = 0.0000-0.1063 0.5316 (   208 PWs)   bands (ev):

    10.4410  11.7168  13.4939  14.0239  15.3570  17.1257  25.6265  28.3083

          k =-0.8506-0.2126-0.2126 (   210 PWs)   bands (ev):

    10.8801  11.3904  13.4135  14.1474  15.9380  19.3282  22.0289  27.3378

          k =-0.7443-0.1063-0.2126 (   216 PWs)   bands (ev):

    10.9356  11.1410  13.4978  14.8346  15.5749  19.7668  23.8542  24.3657

          k = 0.0000 0.0000 0.6379 (   212 PWs)   bands (ev):

    10.6261  11.0218  14.7078  14.7078  15.3795  18.9528  25.6408  25.6408

          k =-0.8506-0.1063-0.1063 (   216 PWs)   bands (ev):

    10.6398  10.6534  14.9321  15.1077  15.8323  21.8070  22.6099  24.4947

          k =-0.8506-0.8506-0.8506 (   236 PWs)   bands (ev):

    10.3897  10.3897  15.7886  15.7886  15.7886  23.2136  23.2136  23.2136

     the Fermi energy is    13.0667 ev

!    total energy              =     -55.80146243 Ry
     estimated scf accuracy    <          9.8E-10 Ry
     smearing contrib. (-TS)   =       0.00038716 Ry
     internal energy E=F+TS    =     -55.80184959 Ry

     The total energy is F=E-TS. E is the sum of the following terms:
     one-electron contribution =       7.18284128 Ry
     hartree contribution      =       6.63056827 Ry
     xc contribution           =     -26.45376730 Ry
     ewald contribution        =     -43.16149184 Ry

     total magnetization       =     2.41 Bohr mag/cell
     absolute magnetization    =     2.58 Bohr mag/cell

     convergence has been achieved in  11 iterations

     Forces acting on atoms (cartesian axes, Ry/au):

     atom    1 type  1   force =     0.00000000    0.00000000    0.00000000
     The non-local contrib.  to forces
     atom    1 type  1   force =     0.00000000    0.00000000    0.00000000
     The ionic contribution  to forces
     atom    1 type  1   force =    -0.00000000   -0.00000000   -0.00000000
     The local contribution  to forces
     atom    1 type  1   force =    -0.00000000   -0.00000000   -0.00000000
     The core correction contribution to forces
     atom    1 type  1   force =     0.00000000    0.00000000    0.00000000
     The Hubbard contrib.    to forces
     atom    1 type  1   force =     0.00000000    0.00000000    0.00000000
     The SCF correction term to forces
     atom    1 type  1   force =     0.00000000    0.00000000    0.00000000

     Total force =     0.000000     Total SCF correction =     0.000000


     Computing stress (Cartesian axis) and pressure

          total   stress  (Ry/bohr**3)                   (kbar)     P=        3.26
   0.00002218   0.00000000   0.00000000            3.26        0.00        0.00
   0.00000000   0.00002218   0.00000000            0.00        3.26        0.00
   0.00000000   0.00000000   0.00002218            0.00        0.00        3.26

     Energy error            =      2.2E-06 Ry
     Gradient error          =      0.0E+00 Ry/Bohr
     Cell gradient error     =      3.3E+00 kbar

     number of scf cycles    =   4
     number of bfgs steps    =   3

     enthalpy           old  =     -55.8014602447 Ry
     enthalpy           new  =     -55.8014624317 Ry

     CASE: enthalpy          _new < enthalpy          _old

     new trust radius        =       0.0005926021 bohr
     new conv_thr            =       0.0000000010 Ry

     new unit-cell volume =     78.64766 a.u.^3 (    11.65438 Ang^3 )
     density =      7.95691 g/cm^3

CELL_PARAMETERS (angstrom)
  -1.428268081   1.428268081   1.428268081
   1.428268081  -1.428268081   1.428268081
   1.428268081   1.428268081  -1.428268081

ATOMIC_POSITIONS (angstrom)
Fe            0.0000000000        0.0000000000        0.0000000000



     Writing config-only to output data dir /home/gridsan/epan1/labutil/lab3_samples/problem1/Lab3/Fe_bcc_a_2.8046394196999995_ecut_30_nk_8/pwscf.save/
     NEW-OLD atomic charge density approx. for the potential
     extrapolated charge    8.00802, renormalised to    8.00000
     Generating pointlists ...

     total cpu time spent up to now is      246.2 secs

     Self-consistent Calculation

     iteration #  1     ecut=    30.00 Ry     beta= 0.50
     Davidson diagonalization with overlap
     ethr =  1.00E-06,  avg # of iterations =  2.0

     total cpu time spent up to now is      248.7 secs

     total energy              =     -55.80141786 Ry
     estimated scf accuracy    <       0.00004804 Ry

     total magnetization       =     2.41 Bohr mag/cell
     absolute magnetization    =     2.58 Bohr mag/cell

     iteration #  2     ecut=    30.00 Ry     beta= 0.50
     Davidson diagonalization with overlap
     ethr =  6.00E-07,  avg # of iterations =  2.3

     total cpu time spent up to now is      252.0 secs

     total energy              =     -55.80146127 Ry
     estimated scf accuracy    <       0.00010567 Ry

     total magnetization       =     2.41 Bohr mag/cell
     absolute magnetization    =     2.59 Bohr mag/cell

     iteration #  3     ecut=    30.00 Ry     beta= 0.50
     Davidson diagonalization with overlap
     ethr =  6.00E-07,  avg # of iterations =  1.2

     total cpu time spent up to now is      257.7 secs

     total energy              =     -55.80145666 Ry
     estimated scf accuracy    <       0.00001685 Ry

     total magnetization       =     2.41 Bohr mag/cell
     absolute magnetization    =     2.59 Bohr mag/cell

     iteration #  4     ecut=    30.00 Ry     beta= 0.50
     Davidson diagonalization with overlap
     ethr =  2.11E-07,  avg # of iterations =  2.2

     total cpu time spent up to now is      264.2 secs

     total energy              =     -55.80146582 Ry
     estimated scf accuracy    <       0.00001240 Ry

     total magnetization       =     2.41 Bohr mag/cell
     absolute magnetization    =     2.59 Bohr mag/cell

     iteration #  5     ecut=    30.00 Ry     beta= 0.50
     Davidson diagonalization with overlap
     ethr =  1.55E-07,  avg # of iterations =  1.0

     total cpu time spent up to now is      268.4 secs

     total energy              =     -55.80146419 Ry
     estimated scf accuracy    <       0.00000704 Ry

     total magnetization       =     2.41 Bohr mag/cell
     absolute magnetization    =     2.59 Bohr mag/cell

     iteration #  6     ecut=    30.00 Ry     beta= 0.50
     Davidson diagonalization with overlap
     ethr =  8.80E-08,  avg # of iterations =  1.0

     total cpu time spent up to now is      274.7 secs

     total energy              =     -55.80146323 Ry
     estimated scf accuracy    <       0.00000162 Ry

     total magnetization       =     2.41 Bohr mag/cell
     absolute magnetization    =     2.59 Bohr mag/cell

     iteration #  7     ecut=    30.00 Ry     beta= 0.50
     Davidson diagonalization with overlap
     ethr =  2.03E-08,  avg # of iterations =  2.4

     total cpu time spent up to now is      280.4 secs

     total energy              =     -55.80146432 Ry
     estimated scf accuracy    <       0.00000401 Ry

     total magnetization       =     2.41 Bohr mag/cell
     absolute magnetization    =     2.59 Bohr mag/cell

     iteration #  8     ecut=    30.00 Ry     beta= 0.50
     Davidson diagonalization with overlap
     ethr =  2.03E-08,  avg # of iterations =  1.0

     total cpu time spent up to now is      285.8 secs

     total energy              =     -55.80146400 Ry
     estimated scf accuracy    <       0.00000122 Ry

     total magnetization       =     2.41 Bohr mag/cell
     absolute magnetization    =     2.59 Bohr mag/cell

     iteration #  9     ecut=    30.00 Ry     beta= 0.50
     Davidson diagonalization with overlap
     ethr =  1.53E-08,  avg # of iterations =  1.2

     total cpu time spent up to now is      291.2 secs

     total energy              =     -55.80146414 Ry
     estimated scf accuracy    <       0.00000004 Ry

     total magnetization       =     2.41 Bohr mag/cell
     absolute magnetization    =     2.59 Bohr mag/cell

     iteration # 10     ecut=    30.00 Ry     beta= 0.50
     Davidson diagonalization with overlap
     ethr =  5.37E-10,  avg # of iterations =  2.2

     total cpu time spent up to now is      296.4 secs

     total energy              =     -55.80146415 Ry
     estimated scf accuracy    <          2.5E-09 Ry

     total magnetization       =     2.41 Bohr mag/cell
     absolute magnetization    =     2.59 Bohr mag/cell

     iteration # 11     ecut=    30.00 Ry     beta= 0.50
     Davidson diagonalization with overlap
     ethr =  3.16E-11,  avg # of iterations =  2.9

     total cpu time spent up to now is      299.5 secs

     total energy              =     -55.80146415 Ry
     estimated scf accuracy    <          1.3E-09 Ry

     total magnetization       =     2.41 Bohr mag/cell
     absolute magnetization    =     2.59 Bohr mag/cell

     iteration # 12     ecut=    30.00 Ry     beta= 0.50
     Davidson diagonalization with overlap
     ethr =  1.56E-11,  avg # of iterations =  1.4

     Magnetic moment per site  (integrated on atomic sphere of radius R)
     atom   1 (R=0.413)  charge=  6.3705  magn=  2.4881

     total cpu time spent up to now is      302.9 secs

     End of self-consistent calculation

 ------ SPIN UP ------------


          k = 0.0000 0.0000 0.0000 (   201 PWs)   bands (ev):

     4.8854  10.6758  10.6758  10.6758  11.8943  11.8943  37.6393  37.6393

          k = 0.1063 0.1063 0.0000 (   205 PWs)   bands (ev):

     5.5123  10.5166  10.6534  11.0008  11.7618  11.9083  34.3550  36.6257

          k = 0.2126 0.2126 0.0000 (   205 PWs)   bands (ev):

     7.1056  10.1463  10.6019  11.7254  11.8475  11.9581  28.6803  34.0472

          k = 0.3189 0.3189 0.0000 (   200 PWs)   bands (ev):

     8.1766   9.7939  11.6881  12.0317  12.0869  12.8050  23.2302  31.9874

          k =-0.4251-0.4251 0.0000 (   194 PWs)   bands (ev):

     8.2356   9.6528  11.9372  12.0696  13.2449  13.7833  20.2037  31.2383

          k = 0.2126 0.1063 0.1063 (   203 PWs)   bands (ev):

     6.6562  10.3482  10.3931  11.6209  11.6857  12.0021  31.3847  32.5442

          k = 0.3189 0.2126 0.1063 (   202 PWs)   bands (ev):

     8.2052   9.9690  10.4539  11.7130  12.1172  12.9574  26.1231  29.9284

[...]
        k(   10) = (   0.5311661   0.3186996   0.2124664), wk =   0.0468750
        k(   11) = (   0.2124664   0.2124664   0.2124664), wk =   0.0156250
        k(   12) = (   0.3186996   0.3186996   0.2124664), wk =   0.0468750
        k(   13) = (   0.4249329   0.4249329   0.2124664), wk =   0.0234375
        k(   14) = (   0.0000000   0.0000000   0.2124664), wk =   0.0117188
        k(   15) = (   0.4249329   0.3186996   0.3186996), wk =   0.0468750
        k(   16) = (   0.0000000  -0.1062332   0.3186996), wk =   0.0468750
        k(   17) = (   0.0000000  -0.2124664   0.4249329), wk =   0.0468750
        k(   18) = (   0.1062332  -0.1062332   0.4249329), wk =   0.0468750
        k(   19) = (  -0.8498657  -0.3186996  -0.3186996), wk =   0.0234375
        k(   20) = (  -0.7436325  -0.2124664  -0.3186996), wk =   0.0937500
        k(   21) = (  -0.6373993  -0.2124664  -0.2124664), wk =   0.0156250
        k(   22) = (   0.4249329   0.4249329   0.4249329), wk =   0.0039062
        k(   23) = (   0.0000000   0.0000000   0.4249329), wk =   0.0117188
        k(   24) = (   0.0000000  -0.1062332   0.5311661), wk =   0.0468750
        k(   25) = (  -0.8498657  -0.2124664  -0.2124664), wk =   0.0234375
        k(   26) = (  -0.7436325  -0.1062332  -0.2124664), wk =   0.0468750
        k(   27) = (   0.0000000   0.0000000   0.6373993), wk =   0.0117188
        k(   28) = (  -0.8498657  -0.1062332  -0.1062332), wk =   0.0234375
        k(   29) = (  -0.8498657  -0.8498657  -0.8498657), wk =   0.0019531

     Dense  grid:     4921 G-vectors     FFT dimensions: (  24,  24,  24)

     Smooth grid:     1745 G-vectors     FFT dimensions: (  18,  18,  18)

     Estimated max dynamical RAM per process >       7.96 MB

     Estimated total dynamical RAM >      31.82 MB
     Generating pointlists ...

     Initial potential from superposition of free atoms

     starting charge       7.9994, renormalised to       8.0000
     Starting wfcs are    6 randomized atomic wfcs +    2 random wfcs

     total cpu time spent up to now is      364.4 secs

     Self-consistent Calculation

     iteration #  1     ecut=    30.00 Ry     beta= 0.50
     Davidson diagonalization with overlap
     c_bands:  1 eigenvalues not converged
     c_bands:  1 eigenvalues not converged
     c_bands:  1 eigenvalues not converged
     c_bands:  1 eigenvalues not converged
     c_bands:  1 eigenvalues not converged
     c_bands:  2 eigenvalues not converged
     c_bands:  1 eigenvalues not converged
     c_bands:  1 eigenvalues not converged
     c_bands:  1 eigenvalues not converged
     c_bands:  1 eigenvalues not converged
     c_bands:  1 eigenvalues not converged
     c_bands:  1 eigenvalues not converged
     c_bands:  1 eigenvalues not converged
     c_bands:  1 eigenvalues not converged
     c_bands:  1 eigenvalues not converged
     c_bands:  1 eigenvalues not converged
     c_bands:  2 eigenvalues not converged
     ethr =  1.00E-06,  avg # of iterations = 17.7

     total cpu time spent up to now is      376.3 secs

     total energy              =     -55.67198360 Ry
     estimated scf accuracy    <       0.35544796 Ry

     total magnetization       =     2.36 Bohr mag/cell
     absolute magnetization    =     2.36 Bohr mag/cell

     iteration #  2     ecut=    30.00 Ry     beta= 0.50
     Davidson diagonalization with overlap
     ethr =  4.44E-03,  avg # of iterations =  1.9

     total cpu time spent up to now is      382.6 secs

     total energy              =     -55.77750933 Ry
     estimated scf accuracy    <       0.09993571 Ry

     total magnetization       =     2.59 Bohr mag/cell
     absolute magnetization    =     2.59 Bohr mag/cell

     iteration #  3     ecut=    30.00 Ry     beta= 0.50
     Davidson diagonalization with overlap
     ethr =  1.25E-03,  avg # of iterations =  1.0

     total cpu time spent up to now is      387.8 secs

     total energy              =     -55.79913213 Ry
     estimated scf accuracy    <       0.00174662 Ry

     total magnetization       =     2.44 Bohr mag/cell
     absolute magnetization    =     2.49 Bohr mag/cell

     iteration #  4     ecut=    30.00 Ry     beta= 0.50
     Davidson diagonalization with overlap
     ethr =  2.18E-05,  avg # of iterations =  2.4

     total cpu time spent up to now is      392.6 secs

     total energy              =     -55.80151996 Ry
     estimated scf accuracy    <       0.00007284 Ry

     total magnetization       =     2.39 Bohr mag/cell
     absolute magnetization    =     2.54 Bohr mag/cell

     iteration #  5     ecut=    30.00 Ry     beta= 0.50
     Davidson diagonalization with overlap
     ethr =  9.11E-07,  avg # of iterations =  3.8

     total cpu time spent up to now is      399.7 secs

     total energy              =     -55.80160989 Ry
     estimated scf accuracy    <       0.00002967 Ry

     total magnetization       =     2.40 Bohr mag/cell
     absolute magnetization    =     2.57 Bohr mag/cell

     iteration #  6     ecut=    30.00 Ry     beta= 0.50
     Davidson diagonalization with overlap
     ethr =  3.71E-07,  avg # of iterations =  2.5

     total cpu time spent up to now is      404.5 secs

     total energy              =     -55.80163447 Ry
     estimated scf accuracy    <       0.00000375 Ry

     total magnetization       =     2.41 Bohr mag/cell
     absolute magnetization    =     2.58 Bohr mag/cell

     iteration #  7     ecut=    30.00 Ry     beta= 0.50
     Davidson diagonalization with overlap
     ethr =  4.69E-08,  avg # of iterations =  3.7

     total cpu time spent up to now is      417.0 secs

     total energy              =     -55.80163628 Ry
     estimated scf accuracy    <       0.00000687 Ry

     total magnetization       =     2.41 Bohr mag/cell
     absolute magnetization    =     2.59 Bohr mag/cell

     iteration #  8     ecut=    30.00 Ry     beta= 0.50
     Davidson diagonalization with overlap
     ethr =  4.69E-08,  avg # of iterations =  2.2

     total cpu time spent up to now is      422.7 secs

     total energy              =     -55.80164043 Ry
     estimated scf accuracy    <       0.00000083 Ry

     total magnetization       =     2.42 Bohr mag/cell
     absolute magnetization    =     2.59 Bohr mag/cell

     iteration #  9     ecut=    30.00 Ry     beta= 0.50
     Davidson diagonalization with overlap
     ethr =  1.03E-08,  avg # of iterations =  1.7

     total cpu time spent up to now is      427.8 secs

     total energy              =     -55.80164072 Ry
     estimated scf accuracy    <          7.0E-09 Ry

     total magnetization       =     2.42 Bohr mag/cell
     absolute magnetization    =     2.59 Bohr mag/cell

     iteration # 10     ecut=    30.00 Ry     beta= 0.50
     Davidson diagonalization with overlap
     ethr =  8.78E-11,  avg # of iterations =  7.2

     total cpu time spent up to now is      439.4 secs

     total energy              =     -55.80164079 Ry
     estimated scf accuracy    <          1.8E-09 Ry

     total magnetization       =     2.42 Bohr mag/cell
     absolute magnetization    =     2.59 Bohr mag/cell

     iteration # 11     ecut=    30.00 Ry     beta= 0.50
     Davidson diagonalization with overlap
     ethr =  2.28E-11,  avg # of iterations =  2.6

     Magnetic moment per site  (integrated on atomic sphere of radius R)
     atom   1 (R=0.413)  charge=  6.3690  magn=  2.4923

     total cpu time spent up to now is      445.8 secs

     End of self-consistent calculation

 ------ SPIN UP ------------


          k = 0.0000 0.0000 0.0000 (   225 PWs)   bands (ev):

     4.8678  10.6491  10.6491  10.6491  11.8666  11.8666  37.5990  37.5990

          k = 0.1062 0.1062 0.0000 (   215 PWs)   bands (ev):

     5.4941  10.4909  10.6276  10.9746  11.7345  11.8806  34.3109  36.5839

          k = 0.2125 0.2125 0.0000 (   219 PWs)   bands (ev):

     7.0858  10.1214  10.5770  11.6978  11.8190  11.9300  28.6372  34.0056

          k = 0.3187 0.3187 0.0000 (   216 PWs)   bands (ev):

     8.1564   9.7702  11.6616  12.0031  12.0596  12.7742  23.1892  31.9476

          k =-0.4249-0.4249-0.0000 (   214 PWs)   bands (ev):

     8.2161   9.6292  11.9090  12.0407  13.2128  13.7573  20.1632  31.1995

          k = 0.2125 0.1062 0.1062 (   216 PWs)   bands (ev):

     6.6367  10.3232  10.3683  11.5937  11.6575  11.9739  31.3417  32.4987

          k = 0.3187 0.2125 0.1062 (   216 PWs)   bands (ev):

     8.1843   9.9451  10.4294  11.6855  12.0886  12.9269  26.0810  29.8850

          k = 0.4249 0.3187 0.1062 (   220 PWs)   bands (ev):

     8.5204   9.7155  11.2725  11.8731  12.4211  14.8332  21.2623  28.6118

          k = 0.4249 0.2125 0.2125 (   221 PWs)   bands (ev):

     9.0746   9.7283  10.3659  11.8061  12.2336  15.2661  23.9543  24.7953

          k = 0.5312 0.3187 0.2125 (   217 PWs)   bands (ev):

     9.1618   9.7641  10.4109  11.9660  12.2885  17.9135  20.4956  23.8333

          k = 0.2125 0.2125 0.2125 (   210 PWs)   bands (ev):

     8.0727   9.9440   9.9440  11.8752  11.8752  12.9582  28.9681  28.9681

          k = 0.3187 0.3187 0.2125 (   221 PWs)   bands (ev):

     9.0376   9.6647  10.3260  11.9405  12.0178  14.9467  23.9035  27.3990

          k = 0.4249 0.4249 0.2125 (   218 PWs)   bands (ev):

     8.9603   9.5715  11.0374  11.9994  12.0574  17.0661  20.4450  26.8478

          k = 0.0000 0.0000 0.2125 (   217 PWs)   bands (ev):

     6.0909  10.6804  10.6804  10.9746  11.3425  12.0731  33.6084  35.4823

          k = 0.4249 0.3187 0.3187 (   222 PWs)   bands (ev):

     9.3980   9.7632  10.2272  12.0306  12.0798  18.0099  22.1935  23.2798

          k = 0.0000-0.1062 0.3187 (   217 PWs)   bands (ev):

     7.5758  10.4422  10.4763  11.2672  11.7455  12.3347  29.0774  32.8978

          k = 0.0000-0.2125 0.4249 (   219 PWs)   bands (ev):

     8.5335  10.1337  10.5001  11.6481  12.7208  13.5258  23.5715  30.9835

          k = 0.1062-0.1062 0.4249 (   222 PWs)   bands (ev):

     8.7483   9.8869  10.6069  11.3815  12.2967  13.5596  26.6647  27.3394

          k =-0.8499-0.3187-0.3187 (   214 PWs)   bands (ev):

     8.5454  10.0081  10.7784  11.6585  13.1747  15.4861  20.2728  30.1531

          k =-0.7436-0.2125-0.3187 (   219 PWs)   bands (ev):

     9.0368   9.8674  10.3344  11.7205  12.7398  16.3744  21.8395  25.7347

          k =-0.6374-0.2125-0.2125 (   221 PWs)   bands (ev):

     9.5566   9.5566   9.9690  12.3330  12.3330  20.0681  20.0681  22.3280

          k = 0.4249 0.4249 0.4249 (   216 PWs)   bands (ev):

     9.8243   9.8243   9.8243  12.0745  12.0745  21.5815  21.5815  21.5815

          k = 0.0000 0.0000 0.4249 (   209 PWs)   bands (ev):

     8.5736  10.0685  11.0896  11.0896  11.7774  13.1790  29.9144  29.9144

          k = 0.0000-0.1062 0.5312 (   223 PWs)   bands (ev):

     9.0202   9.4690  11.1019  11.5167  12.6009  15.3352  24.6913  27.6234

          k =-0.8499-0.2125-0.2125 (   222 PWs)   bands (ev):

     8.9037   9.4280  11.0331  11.6294  13.0833  18.1956  20.7563  26.7219

          k =-0.7436-0.1062-0.2125 (   222 PWs)   bands (ev):

     8.9997   9.0253  11.1631  12.2191  12.7996  18.5795  22.9044  23.5954

          k = 0.0000 0.0000 0.6374 (   228 PWs)   bands (ev):

     8.7638   8.8145  12.1539  12.1539  12.6051  17.8588  25.0800  25.0800

          k =-0.8499-0.1062-0.1062 (   228 PWs)   bands (ev):

     8.5517   8.5894  12.3033  12.4767  12.9926  21.1030  21.9084  24.0534

          k =-0.8499-0.8499-0.8499 (   236 PWs)   bands (ev):

     8.3077   8.3077  12.9553  12.9553  12.9553  22.9490  22.9490  22.9491

 ------ SPIN DOWN ----------


          k = 0.0000 0.0000 0.0000 (   225 PWs)   bands (ev):

     4.9294  13.0890  13.0890  13.0890  15.0186  15.0186  37.2533  37.2533

          k = 0.1062 0.1062 0.0000 (   215 PWs)   bands (ev):

     5.5617  12.8865  13.0284  13.4534  14.8268  15.0361  34.4709  36.4280

          k = 0.2125 0.2125 0.0000 (   219 PWs)   bands (ev):

     7.2709  12.4199  12.7260  14.4103  14.6947  15.1060  29.3062  33.9836

          k = 0.3187 0.3187 0.0000 (   216 PWs)   bands (ev):

     9.1537  11.9836  12.8459  14.8386  15.2185  15.5218  24.3036  31.8816

          k =-0.4249-0.4249-0.0000 (   214 PWs)   bands (ev):

     9.7281  11.8102  13.7365  14.9030  15.2787  16.0463  21.7700  31.0984

          k = 0.2125 0.1062 0.1062 (   216 PWs)   bands (ev):

     6.7458  12.6365  12.6941  14.1847  14.6015  15.1425  31.7639  32.8911

          k = 0.3187 0.2125 0.1062 (   216 PWs)   bands (ev):

     8.6856  12.1564  12.3704  14.6309  15.2077  15.4729  26.9118  30.3515

          k = 0.4249 0.3187 0.1062 (   220 PWs)   bands (ev):

     9.9648  11.8688  12.7606  14.8328  15.3746  16.7433  22.5894  29.0606

          k = 0.4249 0.2125 0.2125 (   221 PWs)   bands (ev):

    10.3276  11.7313  12.1765  14.7451  15.2973  17.2637  24.9144  25.5569

          k = 0.5312 0.3187 0.2125 (   217 PWs)   bands (ev):

    10.9050  11.7600  12.0837  14.9307  15.2700  19.2603  21.8179  24.6440

          k = 0.2125 0.2125 0.2125 (   210 PWs)   bands (ev):

     8.3211  12.1307  12.1307  14.9967  14.9967  15.4476  29.5118  29.5118

          k = 0.3187 0.3187 0.2125 (   221 PWs)   bands (ev):

    10.1194  11.7427  11.9420  15.0380  15.2283  17.0468  24.8297  27.9623

          k = 0.4249 0.4249 0.2125 (   218 PWs)   bands (ev):

    10.5729  11.6098  12.4381  15.0952  15.3021  18.4666  21.8422  27.4054

          k = 0.0000 0.0000 0.2125 (   217 PWs)   bands (ev):

     6.1710  13.0689  13.0689  13.4598  14.2990  15.2690  33.7211  35.8417

          k = 0.4249 0.3187 0.3187 (   222 PWs)   bands (ev):

    11.1572  11.5820  11.7954  15.1926  15.2917  19.4623  23.1985  24.1281

          k = 0.0000-0.1062 0.3187 (   217 PWs)   bands (ev):

     7.8051  12.7645  12.7926  13.9983  14.3239  15.4534  29.7386  33.1373

          k = 0.0000-0.2125 0.4249 (   219 PWs)   bands (ev):

     9.6031  12.3818  12.3820  14.3899  15.4575  15.8928  24.6257  31.5251

          k = 0.1062-0.1062 0.4249 (   222 PWs)   bands (ev):

     9.4790  12.1520  12.8158  14.0150  15.0817  16.0254  27.5148  28.0053

          k =-0.8499-0.3187-0.3187 (   214 PWs)   bands (ev):

    10.1640  12.2272  12.5796  14.4765  16.0019  16.8551  21.7922  30.7356

          k =-0.7436-0.2125-0.3187 (   219 PWs)   bands (ev):

    10.6748  11.7994  12.5028  14.4161  15.5164  17.9612  22.9955  26.4584

          k =-0.6374-0.2125-0.2125 (   221 PWs)   bands (ev):

    11.4949  11.4949  12.0072  15.0679  15.0679  21.2508  21.2508  23.2731

          k = 0.4249 0.4249 0.4249 (   216 PWs)   bands (ev):

    11.5681  11.5681  11.5681  15.3262  15.3262  22.5973  22.5973  22.5973

          k = 0.0000 0.0000 0.4249 (   209 PWs)   bands (ev):

     9.1342  12.5969  13.4409  13.4409  14.3804  15.8743  30.5866  30.5866

          k = 0.0000-0.1062 0.5312 (   223 PWs)   bands (ev):

    10.4083  11.6857  13.4587  13.9864  15.3163  17.0757  25.5594  28.2376

          k =-0.8499-0.2125-0.2125 (   222 PWs)   bands (ev):

    10.8504  11.3586  13.3791  14.1093  15.8955  19.2735  21.9665  27.2691

          k =-0.7436-0.1062-0.2125 (   222 PWs)   bands (ev):

    10.9053  11.1117  13.4624  14.7954  15.5334  19.7107  23.7911  24.3001

          k = 0.0000 0.0000 0.6374 (   228 PWs)   bands (ev):

    10.5963  10.9927  14.6687  14.6687  15.3385  18.8980  25.5752  25.5752

          k =-0.8499-0.1062-0.1062 (   228 PWs)   bands (ev):

    10.6114  10.6253  14.8924  15.0676  15.7902  21.7480  22.5484  24.4316

          k =-0.8499-0.8499-0.8499 (   236 PWs)   bands (ev):

    10.3632  10.3632  15.7469  15.7469  15.7469  23.1533  23.1533  23.1533

     the Fermi energy is    13.0218 ev

!    total energy              =     -55.80164079 Ry
     estimated scf accuracy    <          1.5E-11 Ry
     smearing contrib. (-TS)   =       0.00037159 Ry
     internal energy E=F+TS    =     -55.80201238 Ry

     The total energy is F=E-TS. E is the sum of the following terms:
     one-electron contribution =       7.13176442 Ry
     hartree contribution      =       6.64433920 Ry
     xc contribution           =     -26.45266391 Ry
     ewald contribution        =     -43.12545209 Ry

     total magnetization       =     2.42 Bohr mag/cell
     absolute magnetization    =     2.59 Bohr mag/cell

     convergence has been achieved in  11 iterations

     Forces acting on atoms (cartesian axes, Ry/au):

     atom    1 type  1   force =     0.00000000    0.00000000    0.00000000
     The non-local contrib.  to forces
     atom    1 type  1   force =    -0.00000000    0.00000000   -0.00000000
     The ionic contribution  to forces
     atom    1 type  1   force =    -0.00000000   -0.00000000   -0.00000000
     The local contribution  to forces
     atom    1 type  1   force =    -0.00000000   -0.00000000   -0.00000000
     The core correction contribution to forces
     atom    1 type  1   force =    -0.00000000   -0.00000000   -0.00000000
     The Hubbard contrib.    to forces
     atom    1 type  1   force =     0.00000000    0.00000000    0.00000000
     The SCF correction term to forces
     atom    1 type  1   force =    -0.00000000   -0.00000000    0.00000000

     Total force =     0.000000     Total SCF correction =     0.000000


     Computing stress (Cartesian axis) and pressure

          total   stress  (Ry/bohr**3)                   (kbar)     P=       -2.49
  -0.00001693   0.00000000   0.00000000           -2.49        0.00        0.00
   0.00000000  -0.00001693   0.00000000            0.00       -2.49        0.00
   0.00000000   0.00000000  -0.00001693            0.00        0.00       -2.49


     init_run     :      2.17s CPU      4.97s WALL (       2 calls)
     electrons    :    192.22s CPU    425.34s WALL (       7 calls)
     update_pot   :      0.98s CPU      2.18s WALL (       5 calls)
     forces       :      1.35s CPU      2.88s WALL (       7 calls)
     stress       :      4.13s CPU      8.80s WALL (       7 calls)

     Called by init_run:
     wfcinit      :      1.10s CPU      2.34s WALL (       2 calls)
     potinit      :      0.31s CPU      0.68s WALL (       2 calls)
     hinit0       :      0.71s CPU      1.76s WALL (       2 calls)

     Called by electrons:
     c_bands      :    166.98s CPU    371.06s WALL (      86 calls)
     sum_band     :     15.30s CPU     32.97s WALL (      86 calls)
     v_of_rho     :      3.36s CPU      7.11s WALL (      93 calls)
     newd         :      1.59s CPU      3.29s WALL (      93 calls)
     mix_rho      :      3.12s CPU      5.92s WALL (      86 calls)

     Called by c_bands:
     init_us_2    :      0.33s CPU      0.68s WALL (   10904 calls)
     init_us_2:cp :      0.31s CPU      0.62s WALL (   10904 calls)
     cegterg      :    121.78s CPU    253.10s WALL (    4988 calls)

     Called by *egterg:
     cdiaghg      :      1.94s CPU      3.29s WALL (   15764 calls)
     h_psi        :     92.46s CPU    193.36s WALL (   16170 calls)
     s_psi        :      0.14s CPU      0.35s WALL (   16170 calls)
     g_psi        :      0.03s CPU      0.05s WALL (   11066 calls)

     Called by h_psi:
     h_psi:calbec :      9.81s CPU     20.38s WALL (   16170 calls)
     vloc_psi     :     82.41s CPU    172.40s WALL (   16170 calls)
     add_vuspsi   :      0.15s CPU      0.29s WALL (   16170 calls)

     General routines
     calbec       :     14.38s CPU     29.50s WALL (   23188 calls)
     fft          :      3.84s CPU      7.57s WALL (    2596 calls)
     ffts         :      0.43s CPU      0.87s WALL (     358 calls)
     fftw         :     91.81s CPU    192.25s WALL (  239932 calls)
     interpolate  :      0.52s CPU      0.95s WALL (     186 calls)

     Parallel routines

     PWSCF        :   3m21.88s CPU   7m27.17s WALL


   This run was terminated on:  17:24:46   1Nov2023            

=------------------------------------------------------------------------------=
   JOB DONE.
=------------------------------------------------------------------------------=
