LAMMPS (29 Oct 2020)
Reading data file ...
  orthogonal box = (0.0000000 0.0000000 0.0000000) to (4.0900000 4.0900000 4.0900000)
  1 by 1 by 1 MPI processor grid
  reading atoms ...
  4 atoms
  read_data CPU = 0.000 seconds
Reading eam potential file /home/gridsan/epan1/3320_atomistic_shared/lammps/potentials/Ag_u3.eam with DATE: 2007-06-11
WARNING: Using 'neigh_modify every 1 delay 0 check yes' setting during minimization (../min.cpp:187)
Neighbor list info ...
  update every 1 steps, delay 0 steps, check yes
  max neighbors/atom: 2000, page size: 100000
  master list distance cutoff = 7.55
  ghost atom cutoff = 7.55
  binsize = 3.775, bins = 2 2 2
  1 neighbor lists, perpetual/occasional/extra = 1 0 0
  (1) pair eam, perpetual
      attributes: half, newton on
      pair build: half/bin/atomonly/newton
      stencil: half/bin/3d/newton
      bin: standard
Setting up cg style minimization ...
  Unit style    : metal
  Current step  : 0
WARNING: Energy due to 1 extra global DOFs will be included in minimizer energies
Per MPI rank memory allocation (min/avg/max) = 4.334 | 4.334 | 4.334 Mbytes
Step PotEng Lx Ly Lz Press Pxx Pyy Pzz 
       0        -11.4         4.09         4.09         4.09 -0.058146225 -0.058146225 -0.058146225 -0.058146225 
       1        -11.4    4.0899999    4.0899999    4.0899999 -2.5390332e-06 -2.5390336e-06 -2.5390339e-06 -2.5390322e-06 
Loop time of 5.60284e-05 on 1 procs for 1 steps with 4 atoms

99.9% CPU use with 1 MPI tasks x no OpenMP threads

Minimization stats:
  Stopping criterion = energy tolerance
  Energy initial, next-to-last, final = 
     -11.4000000062647  -11.4000000062647  -11.4000000062648
  Force two-norm initial, final = 7.4490750e-06 3.2527388e-10
  Force max component initial, final = 7.4490750e-06 3.2527388e-10
  Final line search alpha, max atom move = 1.0000000 3.2527388e-10
  Iterations, force evaluations = 1 2

MPI task timing breakdown:
Section |  min time  |  avg time  |  max time  |%varavg| %total
---------------------------------------------------------------
Pair    | 2.9087e-05 | 2.9087e-05 | 2.9087e-05 |   0.0 | 51.91
Neigh   | 0          | 0          | 0          |   0.0 |  0.00
Comm    | 4.0531e-06 | 4.0531e-06 | 4.0531e-06 |   0.0 |  7.23
Output  | 0          | 0          | 0          |   0.0 |  0.00
Modify  | 0          | 0          | 0          |   0.0 |  0.00
Other   |            | 2.289e-05  |            |       | 40.85

Nlocal:        4.00000 ave           4 max           4 min
Histogram: 1 0 0 0 0 0 0 0 0 0
Nghost:        360.000 ave         360 max         360 min
Histogram: 1 0 0 0 0 0 0 0 0 0
Neighs:        172.000 ave         172 max         172 min
Histogram: 1 0 0 0 0 0 0 0 0 0

Total # of neighbors = 172
Ave neighs/atom = 43.000000
Neighbor list builds = 0
Dangerous builds = 0
Total energy (eV) = -11.4000000062648
Number of atoms = 4
Lattice constant (Angstoms) = 4.08999992358872
Total wall time: 0:00:00
