Header of the LAMMPS data file 

4 atoms 
1 atom types

0.0 4.087878787878788  xlo xhi
0.0 4.087878787878788  ylo yhi
0.0 4.087878787878788  zlo zhi

Masses 

1  107.8682

Atoms # atomic 

1 1 0.00000 0.00000 0.00000 
2 1 0.00000 2.04394 2.04394 
3 1 2.04394 0.00000 2.04394 
4 1 2.04394 2.04394 0.00000 
