Header of the LAMMPS data file 

4 atoms 
1 atom types

0.0 3.825252525252525  xlo xhi
0.0 3.825252525252525  ylo yhi
0.0 3.825252525252525  zlo zhi

Masses 

1  107.8682

Atoms # atomic 

1 1 0.00000 0.00000 0.00000 
2 1 0.00000 1.91263 1.91263 
3 1 1.91263 0.00000 1.91263 
4 1 1.91263 1.91263 0.00000 
