
     Program PWSCF v.7.2 starts on  1Nov2023 at 16:41:55 

     This program is part of the open-source Quantum ESPRESSO suite
     for quantum simulation of materials; please cite
         "P. Giannozzi et al., J. Phys.:Condens. Matter 21 395502 (2009);
         "P. Giannozzi et al., J. Phys.:Condens. Matter 29 465901 (2017);
         "P. Giannozzi et al., J. Chem. Phys. 152 154105 (2020);
          URL http://www.quantum-espresso.org", 
     in publications or presentations arising from this work. More details at
     http://www.quantum-espresso.org/quote

     Parallel version (MPI), running on     4 processors

     MPI processes distributed on     4 nodes
     185278 MiB available memory on the printing compute node when the environment starts

     Waiting for input...
     Reading input from standard input
Warning: card &CELL ignored
Warning: card / ignored

     Current dimensions of program PWSCF are:
     Max number of different atomic species (ntypx) = 10
     Max number of k-points (npk) =  40000
     Max angular momentum in pseudopotentials (lmaxx) =  4
     file Fe.pbe-nd-rrkjus.UPF: wavefunction(s)  4S renormalized
     Message from routine setup:
     using ibrav=0 with symmetry is DISCOURAGED, use correct ibrav instead

     R & G space division:  proc/nbgrp/npool/nimage =       4
     Subspace diagonalization in iterative solution of the eigenvalue problem:
     a serial algorithm will be used


     Parallelization info
     --------------------
     sticks:   dense  smooth     PW     G-vecs:    dense   smooth      PW
     Min          57      29     10                  560      197      48
     Max          58      30     11                  562      199      51
     Sum         229     117     43                 2243      791     201

     Using Slab Decomposition



     bravais-lattice index     =            0
     lattice parameter (alat)  =       3.6004  a.u.
     unit-cell volume          =      35.9281 (a.u.)^3
     number of atoms/cell      =            1
     number of atomic types    =            1
     number of electrons       =         8.00
     number of Kohn-Sham states=            8
     kinetic-energy cutoff     =      30.0000  Ry
     charge density cutoff     =     240.0000  Ry
     scf convergence threshold =      1.0E-07
     mixing beta               =       0.5000
     number of iterations used =            8  plain     mixing
     Exchange-correlation=  SLA  PW   PBE  PBE
                           (   1   4   3   4   0   0   0)

     celldm(1)=   3.600412  celldm(2)=   0.000000  celldm(3)=   0.000000
     celldm(4)=   0.000000  celldm(5)=   0.000000  celldm(6)=   0.000000

     crystal axes: (cart. coord. in units of alat)
               a(1) = (  -0.577350   0.577350   0.577350 )  
               a(2) = (   0.577350  -0.577350   0.577350 )  
               a(3) = (   0.577350   0.577350  -0.577350 )  

     reciprocal axes: (cart. coord. in units 2 pi/alat)
               b(1) = (  0.000000  0.866025  0.866025 )  
               b(2) = (  0.866025  0.000000  0.866025 )  
               b(3) = (  0.866025  0.866025  0.000000 )  


     PseudoPot. # 1 for Fe read from file:
     /home/gridsan/epan1/labutil/lab3_samples/pseudopotentials/Fe.pbe-nd-rrkjus.UPF
     MD5 check sum: 398036227a04b607635f6f5e8dfd8242
     Pseudo is Ultrasoft + core correction, Zval =  8.0
     Generated by new atomic code, or converted to UPF format
     Using radial grid of  957 points,  6 beta functions with: 
                l(1) =   0
                l(2) =   0
                l(3) =   1
                l(4) =   1
                l(5) =   2
                l(6) =   2
     Q(r) pseudized with 0 coefficients 


     atomic species   valence    mass     pseudopotential
        Fe             8.00    55.84500     Fe( 1.00)

     Starting magnetic structure 
     atomic species   magnetization
        Fe           0.700

     48 Sym. Ops., with inversion, found



   Cartesian axes

     site n.     atom                  positions (alat units)
         1           Fe  tau(   1) = (   0.0000000   0.0000000   0.0000000  )

     number of k points=    20  Methfessel-Paxton smearing, width (Ry)=  0.0200
                       cart. coord. in units 2pi/alat
        k(    1) = (   0.0000000   0.0000000   0.0000000), wk =   0.0029155
        k(    2) = (   0.1237179   0.1237179   0.0000000), wk =   0.0349854
        k(    3) = (   0.2474358   0.2474358   0.0000000), wk =   0.0349854
        k(    4) = (   0.3711537   0.3711537   0.0000000), wk =   0.0349854
        k(    5) = (   0.2474358   0.1237179   0.1237179), wk =   0.0699708
        k(    6) = (   0.3711537   0.2474358   0.1237179), wk =   0.1399417
        k(    7) = (   0.4948717   0.3711537   0.1237179), wk =   0.0699708
        k(    8) = (   0.4948717   0.2474358   0.2474358), wk =   0.0699708
        k(    9) = (   0.2474358   0.2474358   0.2474358), wk =   0.0233236
        k(   10) = (   0.3711537   0.3711537   0.2474358), wk =   0.0699708
        k(   11) = (  -0.0000000  -0.0000000   0.2474358), wk =   0.0174927
        k(   12) = (   0.4948717   0.3711537   0.3711537), wk =   0.0233236
        k(   13) = (   0.0000000  -0.1237179   0.3711537), wk =   0.0699708
        k(   14) = (  -0.0000000  -0.2474358   0.4948717), wk =   0.0699708
        k(   15) = (   0.1237179  -0.1237179   0.4948717), wk =   0.0699708
        k(   16) = (  -0.7423075  -0.2474358  -0.2474358), wk =   0.0699708
        k(   17) = (   0.0000000   0.0000000   0.4948717), wk =   0.0174927
        k(   18) = (  -0.0000000  -0.1237179   0.6185896), wk =   0.0699708
        k(   19) = (  -0.7423075  -0.1237179  -0.1237179), wk =   0.0233236
        k(   20) = (  -0.0000000  -0.0000000   0.7423075), wk =   0.0174927

     Dense  grid:     2243 G-vectors     FFT dimensions: (  18,  18,  18)

     Smooth grid:      791 G-vectors     FFT dimensions: (  15,  15,  15)

     Estimated max dynamical RAM per process >       3.68 MB

     Estimated total dynamical RAM >      14.72 MB
     Generating pointlists ...
     new r_m :   0.4125 (alat units)  1.4852 (a.u.) for type    1

     Initial potential from superposition of free atoms

     starting charge       7.9994, renormalised to       8.0000
     Starting wfcs are    6 randomized atomic wfcs +    2 random wfcs

     total cpu time spent up to now is        0.3 secs

     Self-consistent Calculation

     iteration #  1     ecut=    30.00 Ry     beta= 0.50
     Davidson diagonalization with overlap
     ethr =  1.00E-02,  avg # of iterations =  5.0

     total cpu time spent up to now is        0.4 secs

     total energy              =     -55.13003045 Ry
     estimated scf accuracy    <       0.19320351 Ry

     total magnetization       =     2.21 Bohr mag/cell
     absolute magnetization    =     2.21 Bohr mag/cell

     iteration #  2     ecut=    30.00 Ry     beta= 0.50
     Davidson diagonalization with overlap
     ethr =  2.42E-03,  avg # of iterations =  1.1

     total cpu time spent up to now is        0.5 secs

     total energy              =     -55.23149761 Ry
     estimated scf accuracy    <       0.06512137 Ry

     total magnetization       =     1.76 Bohr mag/cell
     absolute magnetization    =     1.76 Bohr mag/cell

     iteration #  3     ecut=    30.00 Ry     beta= 0.50
     Davidson diagonalization with overlap
     ethr =  8.14E-04,  avg # of iterations =  1.1

     total cpu time spent up to now is        0.6 secs

     total energy              =     -55.25513745 Ry
     estimated scf accuracy    <       0.00726400 Ry

     total magnetization       =     1.25 Bohr mag/cell
     absolute magnetization    =     1.26 Bohr mag/cell

     iteration #  4     ecut=    30.00 Ry     beta= 0.50
     Davidson diagonalization with overlap
     ethr =  9.08E-05,  avg # of iterations =  4.7

     total cpu time spent up to now is        0.7 secs

     total energy              =     -55.26031167 Ry
     estimated scf accuracy    <       0.00181127 Ry

     total magnetization       =     0.89 Bohr mag/cell
     absolute magnetization    =     0.92 Bohr mag/cell

     iteration #  5     ecut=    30.00 Ry     beta= 0.50
     Davidson diagonalization with overlap
     ethr =  2.26E-05,  avg # of iterations =  2.5

     total cpu time spent up to now is        0.8 secs

     total energy              =     -55.24894937 Ry
     estimated scf accuracy    <       0.00145448 Ry

     total magnetization       =     0.82 Bohr mag/cell
     absolute magnetization    =     0.85 Bohr mag/cell

     iteration #  6     ecut=    30.00 Ry     beta= 0.50
     Davidson diagonalization with overlap
     ethr =  1.82E-05,  avg # of iterations =  3.1

     total cpu time spent up to now is        0.8 secs

     total energy              =     -55.26416539 Ry
     estimated scf accuracy    <       0.00265874 Ry

     total magnetization       =     0.20 Bohr mag/cell
     absolute magnetization    =     0.20 Bohr mag/cell

     iteration #  7     ecut=    30.00 Ry     beta= 0.50
     Davidson diagonalization with overlap
     ethr =  1.82E-05,  avg # of iterations =  1.6

     total cpu time spent up to now is        0.9 secs

     total energy              =     -55.26334377 Ry
     estimated scf accuracy    <       0.00021950 Ry

     total magnetization       =     0.30 Bohr mag/cell
     absolute magnetization    =     0.31 Bohr mag/cell

     iteration #  8     ecut=    30.00 Ry     beta= 0.50
     Davidson diagonalization with overlap
     ethr =  2.74E-06,  avg # of iterations =  3.5

     total cpu time spent up to now is        1.0 secs

     total energy              =     -55.26272889 Ry
     estimated scf accuracy    <       0.00056089 Ry

     total magnetization       =     0.46 Bohr mag/cell
     absolute magnetization    =     0.47 Bohr mag/cell

     iteration #  9     ecut=    30.00 Ry     beta= 0.50
     Davidson diagonalization with overlap
     ethr =  2.74E-06,  avg # of iterations =  3.1

     total cpu time spent up to now is        1.2 secs

     total energy              =     -55.26507939 Ry
     estimated scf accuracy    <       0.00003095 Ry

     total magnetization       =     0.22 Bohr mag/cell
     absolute magnetization    =     0.22 Bohr mag/cell

     iteration # 10     ecut=    30.00 Ry     beta= 0.50
     Davidson diagonalization with overlap
     ethr =  3.87E-07,  avg # of iterations =  1.4

     total cpu time spent up to now is        1.3 secs

     total energy              =     -55.26507703 Ry
     estimated scf accuracy    <       0.00000981 Ry

     total magnetization       =     0.22 Bohr mag/cell
     absolute magnetization    =     0.22 Bohr mag/cell

     iteration # 11     ecut=    30.00 Ry     beta= 0.50
     Davidson diagonalization with overlap
     ethr =  1.23E-07,  avg # of iterations =  1.8

     total cpu time spent up to now is        1.3 secs

     total energy              =     -55.26507367 Ry
     estimated scf accuracy    <       0.00000326 Ry

     total magnetization       =     0.21 Bohr mag/cell
     absolute magnetization    =     0.21 Bohr mag/cell

     iteration # 12     ecut=    30.00 Ry     beta= 0.50
     Davidson diagonalization with overlap
     ethr =  4.08E-08,  avg # of iterations =  2.1

     total cpu time spent up to now is        1.4 secs

     total energy              =     -55.26509102 Ry
     estimated scf accuracy    <       0.00000100 Ry

     total magnetization       =     0.24 Bohr mag/cell
     absolute magnetization    =     0.24 Bohr mag/cell

     iteration # 13     ecut=    30.00 Ry     beta= 0.50
     Davidson diagonalization with overlap
     ethr =  1.25E-08,  avg # of iterations =  1.4

     total cpu time spent up to now is        1.5 secs

     total energy              =     -55.26508013 Ry
     estimated scf accuracy    <       0.00000162 Ry

     total magnetization       =     0.23 Bohr mag/cell
     absolute magnetization    =     0.23 Bohr mag/cell

     iteration # 14     ecut=    30.00 Ry     beta= 0.50
     Davidson diagonalization with overlap
     ethr =  1.25E-08,  avg # of iterations =  2.1

     Magnetic moment per site  (integrated on atomic sphere of radius R)
     atom   1 (R=0.413)  charge=  6.0224  magn=  0.2445

     total cpu time spent up to now is        1.6 secs

     End of self-consistent calculation

 ------ SPIN UP ------------


          k = 0.0000 0.0000 0.0000 (    87 PWs)   bands (ev):

    21.3451  28.4543  28.4543  28.4543  32.5688  32.5688  65.0468  65.0472

          k = 0.1237 0.1237 0.0000 (    93 PWs)   bands (ev):

    22.8043  27.7345  28.3311  29.7536  31.9364  32.6404  63.4710  64.5888

          k = 0.2474 0.2474 0.0000 (   101 PWs)   bands (ev):

    23.7600  26.2832  30.0160  32.1480  32.9567  33.0024  58.7166  61.3354

          k = 0.3712 0.3712 0.0000 (   101 PWs)   bands (ev):

    22.4267  25.2500  32.7258  33.3879  34.9777  36.1113  52.9973  58.1877

          k = 0.2474 0.1237 0.1237 (    96 PWs)   bands (ev):

    24.6176  27.0715  27.4012  31.4487  32.6143  33.3336  60.8008  62.4619

          k = 0.3712 0.2474 0.1237 (    99 PWs)   bands (ev):

    23.9924  25.8288  29.5609  32.1536  33.8370  37.6624  55.6612  58.8180

          k = 0.4949 0.3712 0.1237 (   102 PWs)   bands (ev):

    23.1629  25.4287  30.8755  32.6860  34.6310  41.0117  51.5711  57.3178

          k = 0.4949 0.2474 0.2474 (    98 PWs)   bands (ev):

    24.6384  26.0575  28.1996  32.7708  33.9609  44.1906  51.7939  55.0014

          k = 0.2474 0.2474 0.2474 (   101 PWs)   bands (ev):

    25.8373  25.8373  27.0022  32.8791  32.8791  37.7607  58.0161  58.0161

          k = 0.3712 0.3712 0.2474 (    97 PWs)   bands (ev):

    24.9273  25.3394  29.3107  33.2105  33.4908  43.0144  52.5754  55.8596

          k =-0.0000-0.0000 0.2474 (    99 PWs)   bands (ev):

    24.0786  28.5506  28.5506  29.6638  29.8430  33.7885  62.1853  66.4879

          k = 0.4949 0.3712 0.3712 (    95 PWs)   bands (ev):

    25.2329  27.2487  27.2487  33.5453  33.5453  48.8766  48.8766  53.3552

          k = 0.0000-0.1237 0.3712 (   102 PWs)   bands (ev):

    24.9183  27.6475  27.6559  30.6402  32.6668  35.6232  59.3316  62.3329

          k =-0.0000-0.2474 0.4949 (    97 PWs)   bands (ev):

    23.2993  26.7666  28.4696  31.5928  35.9073  39.8865  53.1923  59.7872

          k = 0.1237-0.1237 0.4949 (    98 PWs)   bands (ev):

    25.0610  25.4596  28.3201  31.2949  34.3998  40.4862  56.4508  57.8518

          k =-0.7423-0.2474-0.2474 (    99 PWs)   bands (ev):

    24.1339  26.2053  27.1385  32.3704  35.2179  45.6294  51.3386  56.0027

          k = 0.0000 0.0000 0.4949 (    96 PWs)   bands (ev):

    24.7618  25.4503  30.4981  30.4981  32.6267  39.2904  60.8862  62.0152

          k =-0.0000-0.1237 0.6186 (   104 PWs)   bands (ev):

    23.0623  24.1970  30.6837  31.9181  35.4644  44.7764  54.0565  58.3344

          k =-0.7423-0.1237-0.1237 (   104 PWs)   bands (ev):

    22.7073  22.7073  31.0168  34.8636  34.8636  50.7684  50.7684  53.3499

          k =-0.0000-0.0000 0.7423 (   108 PWs)   bands (ev):

    21.4134  21.7299  34.6583  34.6583  35.3027  49.0593  53.5243  53.5243

 ------ SPIN DOWN ----------


          k = 0.0000 0.0000 0.0000 (    87 PWs)   bands (ev):

    21.3952  28.6909  28.6909  28.6909  32.9481  32.9481  65.0604  65.0623

          k = 0.1237 0.1237 0.0000 (    93 PWs)   bands (ev):

    22.8612  27.9630  28.5588  29.9956  32.2968  33.0192  63.5542  64.6601

          k = 0.2474 0.2474 0.0000 (   101 PWs)   bands (ev):

    23.9067  26.4977  30.1523  32.4783  33.2604  33.3399  58.8607  61.4188

          k = 0.3712 0.3712 0.0000 (   101 PWs)   bands (ev):

    22.6037  25.4559  33.0578  33.7814  35.0499  36.3899  53.1833  58.2465

          k = 0.2474 0.1237 0.1237 (    96 PWs)   bands (ev):

    24.7163  27.2983  27.5969  31.7853  32.8679  33.6951  60.9271  62.5695

          k = 0.3712 0.2474 0.1237 (    99 PWs)   bands (ev):

    24.1702  26.0381  29.7442  32.4735  34.1918  37.8792  55.8211  58.9140

          k = 0.4949 0.3712 0.1237 (   102 PWs)   bands (ev):

    23.3466  25.6316  31.1179  33.0180  34.9389  41.1904  51.7619  57.4059

          k = 0.4949 0.2474 0.2474 (    98 PWs)   bands (ev):

    24.8241  26.2711  28.4078  33.0935  34.2927  44.3776  51.9635  55.1234

          k = 0.2474 0.2474 0.2474 (   101 PWs)   bands (ev):

    26.0433  26.0433  27.1096  33.2506  33.2506  37.9782  58.1430  58.1430

          k = 0.3712 0.3712 0.2474 (    97 PWs)   bands (ev):

    25.1109  25.5328  29.4720  33.5771  33.8852  43.1939  52.7343  55.9737

          k =-0.0000-0.0000 0.2474 (    99 PWs)   bands (ev):

    24.1444  28.7780  28.7780  29.9058  30.1715  34.1698  62.2922  66.7183

          k = 0.4949 0.3712 0.3712 (    95 PWs)   bands (ev):

    25.4154  27.4306  27.4306  33.9324  33.9324  49.0308  49.0308  53.4907

          k = 0.0000-0.1237 0.3712 (   102 PWs)   bands (ev):

    25.0800  27.8749  27.8834  30.8963  32.9220  35.9391  59.4865  62.4263

          k =-0.0000-0.2474 0.4949 (    97 PWs)   bands (ev):

    23.4964  26.9783  28.7205  31.8827  36.1843  40.0844  53.3705  59.8880

          k = 0.1237-0.1237 0.4949 (    98 PWs)   bands (ev):

    25.3062  25.6505  28.5477  31.5516  34.6804  40.7021  56.6261  57.9588

          k =-0.7423-0.2474-0.2474 (    99 PWs)   bands (ev):

    24.3563  26.4480  27.3482  32.6371  35.4953  45.8092  51.5168  56.1236

          k = 0.0000 0.0000 0.4949 (    96 PWs)   bands (ev):

    25.0236  25.6483  30.7244  30.7244  32.8841  39.5223  61.0766  62.1272

          k =-0.0000-0.1237 0.6186 (   104 PWs)   bands (ev):

    23.2999  24.4302  30.9141  32.1556  35.7381  44.9403  54.1970  58.4243

          k =-0.7423-0.1237-0.1237 (   104 PWs)   bands (ev):

    22.9422  22.9422  31.2436  35.1282  35.1282  50.9034  50.9034  53.4470

          k =-0.0000-0.0000 0.7423 (   108 PWs)   bands (ev):

    21.6448  21.9594  34.9186  34.9186  35.5765  49.1555  53.5891  53.5892

     the Fermi energy is    33.0015 ev

!    total energy              =     -55.26509539 Ry
     estimated scf accuracy    <       0.00000001 Ry
     smearing contrib. (-TS)   =      -0.00012080 Ry
     internal energy E=F+TS    =     -55.26497459 Ry

     The total energy is F=E-TS. E is the sum of the following terms:
     one-electron contribution =      24.88389664 Ry
     hartree contribution      =       3.28349605 Ry
     xc contribution           =     -27.40911181 Ry
     ewald contribution        =     -56.02325547 Ry

     total magnetization       =     0.25 Bohr mag/cell
     absolute magnetization    =     0.26 Bohr mag/cell

     convergence has been achieved in  14 iterations

     Forces acting on atoms (cartesian axes, Ry/au):

     atom    1 type  1   force =     0.00000000    0.00000000    0.00000000
     The non-local contrib.  to forces
     atom    1 type  1   force =    -0.00000000    0.00000000    0.00000000
     The ionic contribution  to forces
     atom    1 type  1   force =    -0.00000000   -0.00000000   -0.00000000
     The local contribution  to forces
     atom    1 type  1   force =     0.00000000    0.00000000    0.00000000
     The core correction contribution to forces
     atom    1 type  1   force =    -0.00000000   -0.00000000    0.00000000
     The Hubbard contrib.    to forces
     atom    1 type  1   force =     0.00000000    0.00000000    0.00000000
     The SCF correction term to forces
     atom    1 type  1   force =    -0.00000000   -0.00000000   -0.00000000

     Total force =     0.000000     Total SCF correction =     0.000000


     Computing stress (Cartesian axis) and pressure

          total   stress  (Ry/bohr**3)                   (kbar)     P=     7264.33
   0.04938191  -0.00000000  -0.00000000         7264.33       -0.00       -0.00
  -0.00000000   0.04938191  -0.00000000           -0.00     7264.33       -0.00
  -0.00000000  -0.00000000   0.04938191           -0.00       -0.00     7264.33


     init_run     :      0.15s CPU      0.18s WALL (       1 calls)
     electrons    :      1.17s CPU      1.32s WALL (       1 calls)
     forces       :      0.01s CPU      0.01s WALL (       1 calls)
     stress       :      0.04s CPU      0.04s WALL (       1 calls)

     Called by init_run:
     wfcinit      :      0.00s CPU      0.02s WALL (       1 calls)
     potinit      :      0.01s CPU      0.01s WALL (       1 calls)
     hinit0       :      0.14s CPU      0.14s WALL (       1 calls)

     Called by electrons:
     c_bands      :      0.94s CPU      1.09s WALL (      14 calls)
     sum_band     :      0.16s CPU      0.15s WALL (      14 calls)
     v_of_rho     :      0.04s CPU      0.04s WALL (      15 calls)
     newd         :      0.02s CPU      0.02s WALL (      15 calls)
     mix_rho      :      0.01s CPU      0.01s WALL (      14 calls)

     Called by c_bands:
     init_us_2    :      0.02s CPU      0.02s WALL (    1240 calls)
     init_us_2:cp :      0.02s CPU      0.02s WALL (    1240 calls)
     cegterg      :      0.81s CPU      0.84s WALL (     560 calls)

     Called by *egterg:
     cdiaghg      :      0.19s CPU      0.20s WALL (    1945 calls)
     h_psi        :      0.44s CPU      0.47s WALL (    1985 calls)
     s_psi        :      0.01s CPU      0.01s WALL (    1985 calls)
     g_psi        :      0.00s CPU      0.00s WALL (    1385 calls)

     Called by h_psi:
     h_psi:calbec :      0.05s CPU      0.06s WALL (    1985 calls)
     vloc_psi     :      0.37s CPU      0.39s WALL (    1985 calls)
     add_vuspsi   :      0.01s CPU      0.01s WALL (    1985 calls)

     General routines
     calbec       :      0.07s CPU      0.08s WALL (    2745 calls)
     fft          :      0.10s CPU      0.10s WALL (     413 calls)
     ffts         :      0.01s CPU      0.01s WALL (      58 calls)
     fftw         :      0.39s CPU      0.40s WALL (   27108 calls)
     interpolate  :      0.01s CPU      0.01s WALL (      30 calls)

     Parallel routines

     PWSCF        :      1.51s CPU      1.69s WALL


   This run was terminated on:  16:41:56   1Nov2023            

=------------------------------------------------------------------------------=
   JOB DONE.
=------------------------------------------------------------------------------=
