LAMMPS (29 Oct 2020)
Reading data file ...
  orthogonal box = (0.0000000 0.0000000 0.0000000) to (20.450000 20.450000 20.450000)
  1 by 1 by 1 MPI processor grid
  reading atoms ...
  499 atoms
  read_data CPU = 0.001 seconds
Reading eam potential file /home/gridsan/epan1/3320_atomistic_shared/lammps/potentials/Ag_u3.eam with DATE: 2007-06-11
WARNING: No fixes defined, atoms won't move (../verlet.cpp:54)
Neighbor list info ...
  update every 1 steps, delay 10 steps, check yes
  max neighbors/atom: 2000, page size: 100000
  master list distance cutoff = 7.55
  ghost atom cutoff = 7.55
  binsize = 3.775, bins = 6 6 6
  1 neighbor lists, perpetual/occasional/extra = 1 0 0
  (1) pair eam, perpetual
      attributes: half, newton on
      pair build: half/bin/atomonly/newton
      stencil: half/bin/3d/newton
      bin: standard
Setting up Verlet run ...
  Unit style    : metal
  Current step  : 0
  Time step     : 0.001
Per MPI rank memory allocation (min/avg/max) = 3.393 | 3.393 | 3.393 Mbytes
Step PotEng Lx Ly Lz Press Pxx Pyy Pzz 
       0   -1421.1757        20.45        20.45        20.45   -299.72236   -299.72236   -299.72236   -299.72236 
Loop time of 0 on 1 procs for 0 steps with 499 atoms

0.0% CPU use with 1 MPI tasks x no OpenMP threads

MPI task timing breakdown:
Section |  min time  |  avg time  |  max time  |%varavg| %total
---------------------------------------------------------------
Pair    | 0          | 0          | 0          |   0.0 |  0.00
Neigh   | 0          | 0          | 0          |   0.0 |  0.00
Comm    | 0          | 0          | 0          |   0.0 |  0.00
Output  | 0          | 0          | 0          |   0.0 |  0.00
Modify  | 0          | 0          | 0          |   0.0 |  0.00
Other   |            | 0          |            |       |  0.00

Nlocal:        499.000 ave         499 max         499 min
Histogram: 1 0 0 0 0 0 0 0 0 0
Nghost:        1949.00 ave        1949 max        1949 min
Histogram: 1 0 0 0 0 0 0 0 0 0
Neighs:        21414.0 ave       21414 max       21414 min
Histogram: 1 0 0 0 0 0 0 0 0 0

Total # of neighbors = 21414
Ave neighs/atom = 42.913828
Neighbor list builds = 0
Dangerous builds = 0
WARNING: Using 'neigh_modify every 1 delay 0 check yes' setting during minimization (../min.cpp:187)
Setting up cg style minimization ...
  Unit style    : metal
  Current step  : 0
WARNING: Energy due to 1 extra global DOFs will be included in minimizer energies
Per MPI rank memory allocation (min/avg/max) = 4.518 | 4.518 | 4.518 Mbytes
Step PotEng Lx Ly Lz Press Pxx Pyy Pzz 
       0   -1421.1757        20.45        20.45        20.45   -299.72236   -299.72236   -299.72236   -299.72236 
      21   -1421.1842    20.447593    20.447593    20.447593   -2.1332367   -2.1332367   -2.1332367   -2.1332367 
Loop time of 0.025352 on 1 procs for 21 steps with 499 atoms

84.8% CPU use with 1 MPI tasks x no OpenMP threads

Minimization stats:
  Stopping criterion = energy tolerance
  Energy initial, next-to-last, final = 
      -1421.1757485741  -1421.18422650327  -1421.18422662061
  Force two-norm initial, final = 4.8051231 0.051918624
  Force max component initial, final = 4.7996546 0.034152905
  Final line search alpha, max atom move = 0.032155834 0.0010982152
  Iterations, force evaluations = 21 42

MPI task timing breakdown:
Section |  min time  |  avg time  |  max time  |%varavg| %total
---------------------------------------------------------------
Pair    | 0.023559   | 0.023559   | 0.023559   |   0.0 | 92.93
Neigh   | 0          | 0          | 0          |   0.0 |  0.00
Comm    | 0.0003283  | 0.0003283  | 0.0003283  |   0.0 |  1.29
Output  | 0          | 0          | 0          |   0.0 |  0.00
Modify  | 0          | 0          | 0          |   0.0 |  0.00
Other   |            | 0.001465   |            |       |  5.78

Nlocal:        499.000 ave         499 max         499 min
Histogram: 1 0 0 0 0 0 0 0 0 0
Nghost:        1949.00 ave        1949 max        1949 min
Histogram: 1 0 0 0 0 0 0 0 0 0
Neighs:        21414.0 ave       21414 max       21414 min
Histogram: 1 0 0 0 0 0 0 0 0 0

Total # of neighbors = 21414
Ave neighs/atom = 42.913828
Neighbor list builds = 0
Dangerous builds = 0
Total energy (eV) = -1421.18422662061
Number of atoms = 499
Lattice constant (Angstoms) = 20.4475932446507
Total wall time: 0:00:00
