
     Program PWSCF v.7.2 starts on  3Nov2023 at 14: 9: 8 

     This program is part of the open-source Quantum ESPRESSO suite
     for quantum simulation of materials; please cite
         "P. Giannozzi et al., J. Phys.:Condens. Matter 21 395502 (2009);
         "P. Giannozzi et al., J. Phys.:Condens. Matter 29 465901 (2017);
         "P. Giannozzi et al., J. Chem. Phys. 152 154105 (2020);
          URL http://www.quantum-espresso.org", 
     in publications or presentations arising from this work. More details at
     http://www.quantum-espresso.org/quote

     Parallel version (MPI), running on     8 processors

     MPI processes distributed on     8 nodes
     186946 MiB available memory on the printing compute node when the environment starts

     Waiting for input...
     Reading input from standard input

     Current dimensions of program PWSCF are:
     Max number of different atomic species (ntypx) = 10
     Max number of k-points (npk) =  40000
     Max angular momentum in pseudopotentials (lmaxx) =  4
     file Cu.pz-d-rrkjus.UPF: wavefunction(s)  3D renormalized
     Message from routine setup:
     using ibrav=0 with symmetry is DISCOURAGED, use correct ibrav instead

     R & G space division:  proc/nbgrp/npool/nimage =       8
     Subspace diagonalization in iterative solution of the eigenvalue problem:
     a serial algorithm will be used


     Parallelization info
     --------------------
     sticks:   dense  smooth     PW     G-vecs:    dense   smooth      PW
     Min          86      43     13                 2263      801     145
     Max          88      44     14                 2266      804     148
     Sum         697     349    109                18111     6423    1171

     Using Slab Decomposition



     bravais-lattice index     =            0
     lattice parameter (alat)  =       5.2270  a.u.
     unit-cell volume          =     187.0550 (a.u.)^3
     number of atoms/cell      =            2
     number of atomic types    =            2
     number of electrons       =        22.00
     number of Kohn-Sham states=           15
     kinetic-energy cutoff     =      40.0000  Ry
     charge density cutoff     =     320.0000  Ry
     scf convergence threshold =      1.0E-07
     mixing beta               =       0.5000
     number of iterations used =            8  plain     mixing
     energy convergence thresh.=      1.0E-04
     force convergence thresh. =      1.0E-03
     press convergence thresh. =      5.0E-01
     Exchange-correlation=  SLA  PZ   NOGX NOGC
                           (   1   1   0   0   0   0   0)
     nstep                     =           50


     celldm(1)=   5.226982  celldm(2)=   0.000000  celldm(3)=   0.000000
     celldm(4)=   0.000000  celldm(5)=   0.000000  celldm(6)=   0.000000

     crystal axes: (cart. coord. in units of alat)
               a(1) = (   1.000000   0.000000   0.000000 )  
               a(2) = (   0.000000   1.000000   0.000000 )  
               a(3) = (   0.000000   0.000000   1.309834 )  

     reciprocal axes: (cart. coord. in units 2 pi/alat)
               b(1) = (  1.000000  0.000000  0.000000 )  
               b(2) = (  0.000000  1.000000  0.000000 )  
               b(3) = (  0.000000  0.000000  0.763456 )  


     PseudoPot. # 1 for Au read from file:
     /home/gridsan/epan1/labutil/lab3_samples/pseudopotentials/Au.pz-d-rrkjus.UPF
     MD5 check sum: 424ffd4ac9c90487cbadcd287136c95b
     Pseudo is Ultrasoft, Zval = 11.0
     Generated by new atomic code, or converted to UPF format
     Using radial grid of 1279 points,  3 beta functions with: 
                l(1) =   2
                l(2) =   2
                l(3) =   1
     Q(r) pseudized with 0 coefficients 


     PseudoPot. # 2 for Cu read from file:
     /home/gridsan/epan1/labutil/lab3_samples/pseudopotentials/Cu.pz-d-rrkjus.UPF
     MD5 check sum: fd38ae683e239c95a66f426e1f8e5fc7
     Pseudo is Ultrasoft, Zval = 11.0
     Generated by new atomic code, or converted to UPF format
     Using radial grid of  899 points,  3 beta functions with: 
                l(1) =   2
                l(2) =   2
                l(3) =   1
     Q(r) pseudized with 0 coefficients 


     atomic species   valence    mass     pseudopotential
        Au            11.00   196.96657     Au( 1.00)
        Cu            11.00    63.54600     Cu( 1.00)

     Starting magnetic structure 
     atomic species   magnetization
        Au           0.700
        Cu           0.000

     16 Sym. Ops., with inversion, found



   Cartesian axes

     site n.     atom                  positions (alat units)
         1           Cu  tau(   1) = (   0.0000000   0.0000000   0.0000000  )
         2           Au  tau(   2) = (   0.5000000   0.5000000   0.6549168  )

     number of k points=    40  Methfessel-Paxton smearing, width (Ry)=  0.0200
                       cart. coord. in units 2pi/alat
        k(    1) = (   0.0000000   0.0000000   0.0000000), wk =   0.0029155
        k(    2) = (   0.0000000   0.0000000   0.1090651), wk =   0.0058309
        k(    3) = (   0.0000000   0.0000000   0.2181302), wk =   0.0058309
        k(    4) = (   0.0000000   0.0000000   0.3271953), wk =   0.0058309
        k(    5) = (   0.0000000   0.1428571   0.0000000), wk =   0.0116618
        k(    6) = (   0.0000000   0.1428571   0.1090651), wk =   0.0233236
        k(    7) = (   0.0000000   0.1428571   0.2181302), wk =   0.0233236
        k(    8) = (   0.0000000   0.1428571   0.3271953), wk =   0.0233236
        k(    9) = (   0.0000000   0.2857143   0.0000000), wk =   0.0116618
        k(   10) = (   0.0000000   0.2857143   0.1090651), wk =   0.0233236
        k(   11) = (   0.0000000   0.2857143   0.2181302), wk =   0.0233236
        k(   12) = (   0.0000000   0.2857143   0.3271953), wk =   0.0233236
        k(   13) = (   0.0000000   0.4285714   0.0000000), wk =   0.0116618
        k(   14) = (   0.0000000   0.4285714   0.1090651), wk =   0.0233236
        k(   15) = (   0.0000000   0.4285714   0.2181302), wk =   0.0233236
        k(   16) = (   0.0000000   0.4285714   0.3271953), wk =   0.0233236
        k(   17) = (   0.1428571   0.1428571   0.0000000), wk =   0.0116618
        k(   18) = (   0.1428571   0.1428571   0.1090651), wk =   0.0233236
        k(   19) = (   0.1428571   0.1428571   0.2181302), wk =   0.0233236
        k(   20) = (   0.1428571   0.1428571   0.3271953), wk =   0.0233236
        k(   21) = (   0.1428571   0.2857143   0.0000000), wk =   0.0233236
        k(   22) = (   0.1428571   0.2857143   0.1090651), wk =   0.0466472
        k(   23) = (   0.1428571   0.2857143   0.2181302), wk =   0.0466472
        k(   24) = (   0.1428571   0.2857143   0.3271953), wk =   0.0466472
        k(   25) = (   0.1428571   0.4285714   0.0000000), wk =   0.0233236
        k(   26) = (   0.1428571   0.4285714   0.1090651), wk =   0.0466472
        k(   27) = (   0.1428571   0.4285714   0.2181302), wk =   0.0466472
        k(   28) = (   0.1428571   0.4285714   0.3271953), wk =   0.0466472
        k(   29) = (   0.2857143   0.2857143   0.0000000), wk =   0.0116618
        k(   30) = (   0.2857143   0.2857143   0.1090651), wk =   0.0233236
        k(   31) = (   0.2857143   0.2857143   0.2181302), wk =   0.0233236
        k(   32) = (   0.2857143   0.2857143   0.3271953), wk =   0.0233236
        k(   33) = (   0.2857143   0.4285714   0.0000000), wk =   0.0233236
        k(   34) = (   0.2857143   0.4285714   0.1090651), wk =   0.0466472
        k(   35) = (   0.2857143   0.4285714   0.2181302), wk =   0.0466472
        k(   36) = (   0.2857143   0.4285714   0.3271953), wk =   0.0466472
        k(   37) = (   0.4285714   0.4285714   0.0000000), wk =   0.0116618
        k(   38) = (   0.4285714   0.4285714   0.1090651), wk =   0.0233236
        k(   39) = (   0.4285714   0.4285714   0.2181302), wk =   0.0233236
        k(   40) = (   0.4285714   0.4285714   0.3271953), wk =   0.0233236

     Dense  grid:    18111 G-vectors     FFT dimensions: (  30,  30,  40)

     Smooth grid:     6423 G-vectors     FFT dimensions: (  24,  24,  27)

     Estimated max dynamical RAM per process >       9.92 MB

     Estimated total dynamical RAM >      79.39 MB
     Generating pointlists ...
     new r_m :   0.3976 (alat units)  2.0781 (a.u.) for type    1
     new r_m :   0.3976 (alat units)  2.0781 (a.u.) for type    2

     Initial potential from superposition of free atoms

     starting charge      21.9996, renormalised to      22.0000
     Starting wfcs are   15 randomized atomic wfcs

     total cpu time spent up to now is        0.8 secs

     Self-consistent Calculation

     iteration #  1     ecut=    40.00 Ry     beta= 0.50
     Davidson diagonalization with overlap
     ethr =  1.00E-02,  avg # of iterations =  4.2

     total cpu time spent up to now is        1.6 secs

     total energy              =    -154.23543673 Ry
     estimated scf accuracy    <       0.72468487 Ry

     total magnetization       =     1.26 Bohr mag/cell
     absolute magnetization    =     1.49 Bohr mag/cell

     iteration #  2     ecut=    40.00 Ry     beta= 0.50
     Davidson diagonalization with overlap
     ethr =  3.29E-03,  avg # of iterations =  2.0

     total cpu time spent up to now is        2.2 secs

     total energy              =    -154.54784189 Ry
     estimated scf accuracy    <       0.38596140 Ry

     total magnetization       =     0.27 Bohr mag/cell
     absolute magnetization    =     0.56 Bohr mag/cell

     iteration #  3     ecut=    40.00 Ry     beta= 0.50
     Davidson diagonalization with overlap
     ethr =  1.75E-03,  avg # of iterations =  1.3

     total cpu time spent up to now is        2.8 secs

     total energy              =    -154.66821891 Ry
     estimated scf accuracy    <       0.09118003 Ry

     total magnetization       =     0.22 Bohr mag/cell
     absolute magnetization    =     0.51 Bohr mag/cell

     iteration #  4     ecut=    40.00 Ry     beta= 0.50
     Davidson diagonalization with overlap
     ethr =  4.14E-04,  avg # of iterations =  1.8

     total cpu time spent up to now is        3.3 secs

     total energy              =    -154.72052617 Ry
     estimated scf accuracy    <       0.03427036 Ry

     total magnetization       =     0.13 Bohr mag/cell
     absolute magnetization    =     0.34 Bohr mag/cell

     iteration #  5     ecut=    40.00 Ry     beta= 0.50
     Davidson diagonalization with overlap
     ethr =  1.56E-04,  avg # of iterations =  1.8

     total cpu time spent up to now is        4.0 secs

     total energy              =    -154.73062461 Ry
     estimated scf accuracy    <       0.00580383 Ry

     total magnetization       =    -0.02 Bohr mag/cell
     absolute magnetization    =     0.04 Bohr mag/cell

     iteration #  6     ecut=    40.00 Ry     beta= 0.50
     Davidson diagonalization with overlap
     ethr =  2.64E-05,  avg # of iterations =  2.7

     total cpu time spent up to now is        4.6 secs

     total energy              =    -154.73221837 Ry
     estimated scf accuracy    <       0.00047834 Ry

     total magnetization       =    -0.01 Bohr mag/cell
     absolute magnetization    =     0.02 Bohr mag/cell

     iteration #  7     ecut=    40.00 Ry     beta= 0.50
     Davidson diagonalization with overlap
     ethr =  2.17E-06,  avg # of iterations =  3.3

     total cpu time spent up to now is        5.3 secs

     total energy              =    -154.73230294 Ry
     estimated scf accuracy    <       0.00009672 Ry

     total magnetization       =     0.00 Bohr mag/cell
     absolute magnetization    =     0.01 Bohr mag/cell

     iteration #  8     ecut=    40.00 Ry     beta= 0.50
     Davidson diagonalization with overlap
     ethr =  4.40E-07,  avg # of iterations =  1.3

     total cpu time spent up to now is        5.9 secs

     total energy              =    -154.73231732 Ry
     estimated scf accuracy    <       0.00000261 Ry

     total magnetization       =     0.00 Bohr mag/cell
     absolute magnetization    =     0.00 Bohr mag/cell

     iteration #  9     ecut=    40.00 Ry     beta= 0.50
     Davidson diagonalization with overlap
     ethr =  1.19E-08,  avg # of iterations =  2.0

     Magnetic moment per site  (integrated on atomic sphere of radius R)
     atom   1 (R=0.398)  charge= 10.0420  magn=  0.0000
     atom   2 (R=0.398)  charge=  8.8269  magn=  0.0002

     total cpu time spent up to now is        6.5 secs

     End of self-consistent calculation

 ------ SPIN UP ------------


          k = 0.0000 0.0000 0.0000 (   821 PWs)   bands (ev):

     5.5587   8.7722   8.9481  11.4949  11.4949  12.6389  12.6842  13.4487
    13.9446  14.2014  14.2014  17.9562  24.2769  26.3401  26.3401

          k = 0.0000 0.0000 0.1091 (   810 PWs)   bands (ev):

     5.8134   8.8224   9.0469  11.5546  11.5546  12.6114  12.6858  13.3740
    13.8926  14.0304  14.0304  16.5591  26.0632  26.8349  26.8349

          k = 0.0000 0.0000 0.2181 (   790 PWs)   bands (ev):

     6.5001   8.9426   9.3083  11.7187  11.7187  12.4405  12.8095  13.1354
    13.6311  13.6311  13.7576  14.3031  28.2010  28.2010  29.5036

          k = 0.0000 0.0000 0.3272 (   810 PWs)   bands (ev):

     7.2531   9.0477   9.6359  11.9060  11.9060  12.2265  12.2948  12.9427
    13.2654  13.2680  13.2680  13.6153  30.1853  30.1853  31.3207

          k = 0.0000 0.1429 0.0000 (   801 PWs)   bands (ev):

     6.0493   8.9932   9.2654  11.2158  11.6182  12.4391  12.7557  13.4384
    13.5586  13.7309  14.0932  19.2370  23.1498  24.8517  27.1528

          k = 0.0000 0.1429 0.1091 (   806 PWs)   bands (ev):

     6.2951   9.0440   9.3583  11.2257  11.6284  12.4935  12.7164  13.3519
    13.3943  13.5761  14.1054  17.7442  23.7708  26.5482  27.6004

          k = 0.0000 0.1429 0.2181 (   806 PWs)   bands (ev):

     6.9574   9.1681   9.5654  11.2588  11.6892  12.5207  12.6416  12.8725
    13.2673  13.4092  14.0151  15.5068  24.9770  28.8608  29.7479

          k = 0.0000 0.1429 0.3272 (   805 PWs)   bands (ev):

     7.6961   9.3256   9.6070  11.4857  11.8065  12.1590  12.3676  12.5988
    13.3239  13.5287  13.8015  13.9508  26.5534  28.3256  30.7461

          k = 0.0000 0.2857 0.0000 (   796 PWs)   bands (ev):

     7.2986   9.4353  10.2065  10.5546  11.9499  11.9554  12.7444  12.8291
    13.3735  13.6348  13.7952  19.5363  21.7960  24.8512  29.2741

          k = 0.0000 0.2857 0.1091 (   799 PWs)   bands (ev):

     7.4765   9.4294  10.2876  10.6154  11.6985  12.1112  12.7177  12.8063
    13.3047  13.5822  13.9520  19.5509  20.1286  27.1711  28.7098

          k = 0.0000 0.2857 0.2181 (   803 PWs)   bands (ev):

     7.9148   9.3079  10.6412  10.8004  11.5350  11.9620  12.6390  12.8008
    13.4661  13.4833  14.0851  17.0332  21.0033  26.3435  30.5698

          k = 0.0000 0.2857 0.3272 (   801 PWs)   bands (ev):

     8.3626   9.0634  10.8332  11.4339  11.5271  11.7041  12.4835  12.8048
    13.6869  13.7785  14.0231  14.8875  22.4359  24.3110  31.9575

          k = 0.0000 0.4286 0.0000 (   806 PWs)   bands (ev):

     8.5079  10.0103  10.0399  10.9885  11.5602  12.3392  12.4947  12.5569
    13.1612  13.4327  14.3952  16.4994  24.7222  25.5357  28.0522

          k = 0.0000 0.4286 0.1091 (   800 PWs)   bands (ev):

     8.5457   9.5174  10.2955  11.4409  11.5402  12.1074  12.5669  12.6202
    13.3432  13.6403  14.3338  16.5749  22.1496  25.1536  28.8988

          k = 0.0000 0.4286 0.2181 (   795 PWs)   bands (ev):

     8.5840   8.9876  10.8511  11.2319  11.7453  12.4597  12.6984  12.8717
    13.6933  13.9485  14.1304  16.5120  19.8592  22.9444  32.1673

          k = 0.0000 0.4286 0.3272 (   794 PWs)   bands (ev):

     8.5610   8.7186  11.1001  11.4159  11.5191  12.7827  13.1329  13.7423
    13.8239  13.9728  14.0972  15.3653  19.3007  21.3524  32.9804

          k = 0.1429 0.1429 0.0000 (   807 PWs)   bands (ev):

     6.5365   9.3475   9.4270  11.0981  11.4671  12.1534  12.8651  13.1264
    13.4618  13.5564  14.2193  20.1855  23.4154  24.0874  25.5477

          k = 0.1429 0.1429 0.1091 (   799 PWs)   bands (ev):

     6.7781   9.3890   9.5246  11.1153  11.3874  12.1135  12.8423  13.0682
    13.4383  13.6121  14.0497  18.5560  24.2736  24.5198  27.0215

          k = 0.1429 0.1429 0.2181 (   799 PWs)   bands (ev):

     7.4340   9.4888   9.7064  11.1520  11.2876  11.9573  12.8162  12.9590
    13.5009  13.5866  13.6590  16.2888  25.3697  25.6618  30.0104

          k = 0.1429 0.1429 0.3272 (   801 PWs)   bands (ev):

     8.2081   9.5765   9.6218  11.1770  11.5182  11.9097  12.4606  12.8697
    13.2847  13.3409  13.9535  14.7398  26.7439  27.1108  28.4924

          k = 0.1429 0.2857 0.0000 (   798 PWs)   bands (ev):

     7.7560   9.7652  10.2165  10.4863  11.3639  11.7049  12.9551  12.9823
    13.3205  13.6337  14.0676  20.0672  22.4118  24.5381  26.3815

          k = 0.1429 0.2857 0.1091 (   795 PWs)   bands (ev):

     7.9441   9.7846  10.2738  10.5244  11.2702  11.6246  12.9077  13.1198
    13.3712  13.6141  13.9989  20.2417  20.4773  25.9486  27.6447

          k = 0.1429 0.2857 0.2181 (   794 PWs)   bands (ev):

     8.4085   9.6496  10.5721  10.7047  11.1650  11.4602  12.8406  13.0832
    13.3715  13.8525  13.8980  17.6872  21.4579  26.4871  27.1914

          k = 0.1429 0.2857 0.3272 (   800 PWs)   bands (ev):

     8.9139   9.3376  10.6992  11.0514  11.2719  11.5707  12.5476  13.0049
    13.3501  13.6088  14.5134  15.7529  22.8754  24.6298  28.1045

          k = 0.1429 0.4286 0.0000 (   800 PWs)   bands (ev):

     9.0118   9.9631  10.1634  10.1890  11.3009  12.0612  13.0348  13.2309
    13.2855  13.6938  14.4032  16.7862  25.2013  25.6229  27.3830

          k = 0.1429 0.4286 0.1091 (   798 PWs)   bands (ev):

     9.0466   9.6445  10.3120  10.4311  11.2785  12.1592  12.9118  12.9938
    13.6818  13.8299  14.4127  16.9806  22.4573  25.4246  28.2364

          k = 0.1429 0.4286 0.2181 (   798 PWs)   bands (ev):

     8.9535   9.4008  10.5442  10.8661  11.2196  12.4422  12.7813  12.9386
    13.9032  13.9421  14.6953  17.3182  20.0763  23.1595  28.9146

          k = 0.1429 0.4286 0.3272 (   796 PWs)   bands (ev):

     8.7848   9.3347  10.5554  11.1374  11.5416  12.7662  12.8303  12.9691
    13.7632  13.8444  15.4310  16.6452  19.5342  21.4664  29.5921

          k = 0.2857 0.2857 0.0000 (   790 PWs)   bands (ev):

     8.6219   9.8641  10.2787  10.4996  10.9980  11.7894  13.2956  13.3062
    13.3629  13.6867  14.2612  20.5301  22.3241  24.0173  25.8926

          k = 0.2857 0.2857 0.1091 (   792 PWs)   bands (ev):

     8.7919  10.0101  10.2876  10.4121  10.9973  11.6296  13.1979  13.3551
    13.4587  13.9019  14.0865  21.0230  21.3837  22.9844  28.0301

          k = 0.2857 0.2857 0.2181 (   802 PWs)   bands (ev):

     9.1621  10.0866  10.3104  10.6244  10.9921  11.4184  13.0500  13.3336
    13.3704  13.7495  14.5818  19.0191  22.3018  23.2767  27.1180

          k = 0.2857 0.2857 0.3272 (   802 PWs)   bands (ev):

     9.4238   9.9620  10.3326  10.9831  11.0629  11.6897  12.5740  13.2628
    13.3038  13.5295  15.4174  17.1405  24.0244  24.0360  25.4204

          k = 0.2857 0.4286 0.0000 (   791 PWs)   bands (ev):

     8.9385   9.7971   9.8052  10.2858  11.4925  12.9557  13.5010  13.7067
    13.7487  14.1250  14.4486  17.4338  23.7825  26.1745  26.4891

          k = 0.2857 0.4286 0.1091 (   799 PWs)   bands (ev):

     8.9997   9.7737  10.0381  10.2835  11.4238  12.7434  13.3254  13.4318
    13.9536  14.0566  14.9398  17.8700  23.0659  24.7558  25.9709

          k = 0.2857 0.4286 0.2181 (   798 PWs)   bands (ev):

     9.1318   9.6880  10.2894  10.6897  11.2666  12.4775  12.9972  13.3479
    13.8647  13.9021  15.9176  18.8752  20.8883  23.8216  25.0400

          k = 0.2857 0.4286 0.3272 (   797 PWs)   bands (ev):

     9.2473   9.5856  10.3314  10.9548  11.7223  12.4003  12.5548  13.2773
    13.6848  13.8044  17.0010  18.7386  20.3743  22.0322  25.7947

          k = 0.4286 0.4286 0.0000 (   796 PWs)   bands (ev):

     8.3923   9.6814   9.7027   9.8062  13.3631  13.7984  13.8926  13.9028
    14.1461  14.2952  15.1856  17.2783  21.7523  24.1699  26.6373

          k = 0.4286 0.4286 0.1091 (   798 PWs)   bands (ev):

     8.4833   9.7027   9.7086  10.0548  13.1415  13.4082  13.7129  13.8150
    13.9024  14.0969  16.1275  18.0081  21.8335  23.9069  25.3164

          k = 0.4286 0.4286 0.2181 (   802 PWs)   bands (ev):

     8.7077   9.7137   9.7581  10.7421  12.6111  12.6413  13.3870  13.6096
    13.9008  13.9544  17.5139  19.5972  21.9020  23.0545  23.7496

          k = 0.4286 0.4286 0.3272 (   812 PWs)   bands (ev):

     8.9203   9.6957   9.8129  11.6659  12.2227  12.2283  12.7668  13.4319
    13.8985  13.9208  18.8503  20.8404  21.4558  22.4615  23.6117

 ------ SPIN DOWN ----------


          k = 0.0000 0.0000 0.0000 (   821 PWs)   bands (ev):

     5.5584   8.7728   8.9484  11.4953  11.4953  12.6396  12.6848  13.4491
    13.9449  14.2017  14.2017  17.9558  24.2771  26.3398  26.3398

          k = 0.0000 0.0000 0.1091 (   810 PWs)   bands (ev):

     5.8131   8.8230   9.0473  11.5550  11.5550  12.6119  12.6866  13.3744
    13.8929  14.0308  14.0308  16.5588  26.0633  26.8347  26.8347

          k = 0.0000 0.0000 0.2181 (   790 PWs)   bands (ev):

     6.4997   8.9433   9.3086  11.7192  11.7192  12.4410  12.8104  13.1358
    13.6313  13.6313  13.7579  14.3030  28.2008  28.2008  29.5035

          k = 0.0000 0.0000 0.3272 (   810 PWs)   bands (ev):

     7.2528   9.0484   9.6359  11.9066  11.9066  12.2270  12.2953  12.9437
    13.2655  13.2681  13.2681  13.6154  30.1851  30.1851  31.3206

          k = 0.0000 0.1429 0.0000 (   801 PWs)   bands (ev):

     6.0490   8.9938   9.2658  11.2163  11.6187  12.4399  12.7562  13.4388
    13.5588  13.7311  14.0936  19.2367  23.1497  24.8519  27.1526

          k = 0.0000 0.1429 0.1091 (   806 PWs)   bands (ev):

     6.2947   9.0446   9.3588  11.2262  11.6289  12.4944  12.7169  13.3521
    13.3945  13.5762  14.1058  17.7441  23.7707  26.5482  27.6002

          k = 0.0000 0.1429 0.2181 (   806 PWs)   bands (ev):

     6.9571   9.1686   9.5657  11.2593  11.6898  12.5216  12.6421  12.8727
    13.2675  13.4093  14.0155  15.5068  24.9769  28.8606  29.7479

          k = 0.0000 0.1429 0.3272 (   805 PWs)   bands (ev):

     7.6959   9.3262   9.6072  11.4862  11.8070  12.1594  12.3684  12.5993
    13.3241  13.5289  13.8018  13.9510  26.5533  28.3254  30.7460

          k = 0.0000 0.2857 0.0000 (   796 PWs)   bands (ev):

     7.2984   9.4358  10.2069  10.5550  11.9505  11.9563  12.7448  12.8291
    13.3736  13.6353  13.7955  19.5364  21.7958  24.8513  29.2739

          k = 0.0000 0.2857 0.1091 (   799 PWs)   bands (ev):

     7.4762   9.4299  10.2880  10.6158  11.6991  12.1119  12.7180  12.8065
    13.3048  13.5826  13.9523  19.5509  20.1287  27.1710  28.7097

          k = 0.0000 0.2857 0.2181 (   803 PWs)   bands (ev):

     7.9146   9.3083  10.6416  10.8008  11.5356  11.9627  12.6391  12.8011
    13.4662  13.4837  14.0854  17.0332  21.0034  26.3434  30.5692

          k = 0.0000 0.2857 0.3272 (   801 PWs)   bands (ev):

     8.3627   9.0637  10.8336  11.4343  11.5278  11.7046  12.4837  12.8052
    13.6872  13.7788  14.0234  14.8876  22.4359  24.3110  31.9575

          k = 0.0000 0.4286 0.0000 (   806 PWs)   bands (ev):

     8.5080  10.0108  10.0403  10.9885  11.5610  12.3398  12.4948  12.5572
    13.1612  13.4328  14.3958  16.4999  24.7220  25.5356  28.0525

          k = 0.0000 0.4286 0.1091 (   800 PWs)   bands (ev):

     8.5458   9.5177  10.2960  11.4417  11.5402  12.1079  12.5671  12.6205
    13.3434  13.6405  14.3343  16.5754  22.1496  25.1535  28.8988

          k = 0.0000 0.4286 0.2181 (   795 PWs)   bands (ev):

     8.5842   8.9879  10.8515  11.2326  11.7457  12.4598  12.6987  12.8718
    13.6936  13.9488  14.1309  16.5122  19.8593  22.9445  32.1671

          k = 0.0000 0.4286 0.3272 (   794 PWs)   bands (ev):

     8.5612   8.7188  11.1008  11.4164  11.5195  12.7831  13.1332  13.7422
    13.8243  13.9731  14.0975  15.3653  19.3009  21.3527  32.9803

          k = 0.1429 0.1429 0.0000 (   807 PWs)   bands (ev):

     6.5361   9.3481   9.4274  11.0985  11.4676  12.1542  12.8657  13.1265
    13.4622  13.5565  14.2197  20.1853  23.4154  24.0873  25.5477

          k = 0.1429 0.1429 0.1091 (   799 PWs)   bands (ev):

     6.7778   9.3897   9.5250  11.1157  11.3879  12.1143  12.8428  13.0684
    13.4387  13.6123  14.0500  18.5559  24.2735  24.5198  27.0215

          k = 0.1429 0.1429 0.2181 (   799 PWs)   bands (ev):

     7.4337   9.4894   9.7067  11.1525  11.2881  11.9580  12.8166  12.9594
    13.5013  13.5867  13.6593  16.2889  25.3696  25.6618  30.0102

          k = 0.1429 0.1429 0.3272 (   801 PWs)   bands (ev):

     8.2078   9.5771   9.6219  11.1775  11.5186  11.9104  12.4611  12.8702
    13.2849  13.3410  13.9538  14.7401  26.7438  27.1108  28.4923

          k = 0.1429 0.2857 0.0000 (   798 PWs)   bands (ev):

     7.7557   9.7658  10.2169  10.4867  11.3644  11.7057  12.9553  12.9828
    13.3206  13.6342  14.0679  20.0673  22.4116  24.5381  26.3815

          k = 0.1429 0.2857 0.1091 (   795 PWs)   bands (ev):

     7.9439   9.7852  10.2743  10.5248  11.2707  11.6253  12.9080  13.1201
    13.3713  13.6145  13.9992  20.2416  20.4774  25.9485  27.6447

          k = 0.1429 0.2857 0.2181 (   794 PWs)   bands (ev):

     8.4083   9.6500  10.5725  10.7051  11.1654  11.4608  12.8409  13.0835
    13.3719  13.8528  13.8982  17.6873  21.4580  26.4871  27.1913

          k = 0.1429 0.2857 0.3272 (   800 PWs)   bands (ev):

     8.9140   9.3378  10.6997  11.0519  11.2723  11.5713  12.5478  13.0052
    13.3504  13.6091  14.5136  15.7531  22.8754  24.6298  28.1043

          k = 0.1429 0.4286 0.0000 (   800 PWs)   bands (ev):

     9.0118   9.9635  10.1640  10.1894  11.3013  12.0616  13.0352  13.2312
    13.2856  13.6940  14.4037  16.7867  25.2012  25.6228  27.3830

          k = 0.1429 0.4286 0.1091 (   798 PWs)   bands (ev):

     9.0467   9.6448  10.3124  10.4316  11.2789  12.1595  12.9121  12.9940
    13.6820  13.8302  14.4131  16.9810  22.4573  25.4245  28.2362

          k = 0.1429 0.4286 0.2181 (   798 PWs)   bands (ev):

     8.9537   9.4011  10.5447  10.8666  11.2200  12.4423  12.7815  12.9390
    13.9037  13.9426  14.6956  17.3184  20.0764  23.1595  28.9146

          k = 0.1429 0.4286 0.3272 (   796 PWs)   bands (ev):

     8.7850   9.3350  10.5560  11.1379  11.5421  12.7663  12.8304  12.9693
    13.7638  13.8449  15.4310  16.6452  19.5344  21.4666  29.5920

          k = 0.2857 0.2857 0.0000 (   790 PWs)   bands (ev):

     8.6218   9.8645  10.2791  10.5000  10.9987  11.7899  13.2957  13.3064
    13.3634  13.6871  14.2615  20.5302  22.3242  24.0171  25.8926

          k = 0.2857 0.2857 0.1091 (   792 PWs)   bands (ev):

     8.7918  10.0105  10.2879  10.4124  10.9980  11.6300  13.1981  13.3556
    13.4590  13.9022  14.0868  21.0231  21.3837  22.9845  28.0300

          k = 0.2857 0.2857 0.2181 (   802 PWs)   bands (ev):

     9.1622  10.0870  10.3108  10.6247  10.9927  11.4188  13.0503  13.3341
    13.3707  13.7498  14.5821  19.0192  22.3019  23.2767  27.1178

          k = 0.2857 0.2857 0.3272 (   802 PWs)   bands (ev):

     9.4240   9.9623  10.3331  10.9837  11.0629  11.6903  12.5742  13.2631
    13.3042  13.5300  15.4175  17.1407  24.0244  24.0361  25.4207

          k = 0.2857 0.4286 0.0000 (   791 PWs)   bands (ev):

     8.9388   9.7973   9.8055  10.2862  11.4931  12.9560  13.5014  13.7070
    13.7490  14.1253  14.4490  17.4341  23.7825  26.1743  26.4892

          k = 0.2857 0.4286 0.1091 (   799 PWs)   bands (ev):

     9.0001   9.7741  10.0383  10.2839  11.4244  12.7436  13.3256  13.4322
    13.9541  14.0570  14.9401  17.8702  23.0658  24.7558  25.9709

          k = 0.2857 0.4286 0.2181 (   798 PWs)   bands (ev):

     9.1322   9.6884  10.2898  10.6899  11.2672  12.4776  12.9975  13.3483
    13.8653  13.9026  15.9177  18.8753  20.8883  23.8215  25.0401

          k = 0.2857 0.4286 0.3272 (   797 PWs)   bands (ev):

     9.2476   9.5861  10.3318  10.9550  11.7227  12.4003  12.5551  13.2776
    13.6855  13.8049  17.0010  18.7386  20.3744  22.0322  25.7947

          k = 0.4286 0.4286 0.0000 (   796 PWs)   bands (ev):

     8.3926   9.6818   9.7030   9.8065  13.3640  13.7988  13.8930  13.9035
    14.1465  14.2955  15.1854  17.2782  21.7525  24.1701  26.6369

          k = 0.4286 0.4286 0.1091 (   798 PWs)   bands (ev):

     8.4836   9.7030   9.7090  10.0550  13.1421  13.4083  13.7133  13.8153
    13.9030  14.0975  16.1275  18.0080  21.8337  23.9069  25.3163

          k = 0.4286 0.4286 0.2181 (   802 PWs)   bands (ev):

     8.7081   9.7141   9.7584  10.7423  12.6113  12.6414  13.3875  13.6099
    13.9014  13.9553  17.5138  19.5972  21.9021  23.0543  23.7496

          k = 0.4286 0.4286 0.3272 (   812 PWs)   bands (ev):

     8.9208   9.6961   9.8132  11.6660  12.2228  12.2283  12.7674  13.4321
    13.8990  13.9219  18.8501  20.8404  21.4557  22.4613  23.6118

     the Fermi energy is    15.7769 ev

!    total energy              =    -154.73231802 Ry
     estimated scf accuracy    <       0.00000005 Ry
     smearing contrib. (-TS)   =       0.00000789 Ry
     internal energy E=F+TS    =    -154.73232590 Ry

     The total energy is F=E-TS. E is the sum of the following terms:
     one-electron contribution =      -3.76862395 Ry
     hartree contribution      =      27.56896829 Ry
     xc contribution           =     -24.55694636 Ry
     ewald contribution        =    -153.97572388 Ry

     total magnetization       =     0.00 Bohr mag/cell
     absolute magnetization    =     0.00 Bohr mag/cell

     convergence has been achieved in   9 iterations

     Forces acting on atoms (cartesian axes, Ry/au):

     atom    1 type  2   force =     0.00000000    0.00000000    0.00000000
     atom    2 type  1   force =     0.00000000    0.00000000    0.00000000
     The non-local contrib.  to forces
     atom    1 type  2   force =     0.00000000    0.00000000    0.00000000
     atom    2 type  1   force =     0.00000000    0.00000000    0.00000000
     The ionic contribution  to forces
     atom    1 type  2   force =    -0.00000000   -0.00000000   -0.00000000
     atom    2 type  1   force =     0.00000000    0.00000000    0.00000000
     The local contribution  to forces
     atom    1 type  2   force =     0.00000000    0.00000000   -0.00000000
     atom    2 type  1   force =    -0.00000000   -0.00000000   -0.00000000
     The core correction contribution to forces
     atom    1 type  2   force =     0.00000000    0.00000000    0.00000000
     atom    2 type  1   force =     0.00000000    0.00000000    0.00000000
     The Hubbard contrib.    to forces
     atom    1 type  2   force =     0.00000000    0.00000000    0.00000000
     atom    2 type  1   force =     0.00000000    0.00000000    0.00000000
     The SCF correction term to forces
     atom    1 type  2   force =     0.00000000   -0.00000000   -0.00000000
     atom    2 type  1   force =    -0.00000000    0.00000000    0.00000000

     Total force =     0.000000     Total SCF correction =     0.000000


     Computing stress (Cartesian axis) and pressure

          total   stress  (Ry/bohr**3)                   (kbar)     P=        6.35
   0.00002935   0.00000000   0.00000000            4.32        0.00        0.00
   0.00000000   0.00002935   0.00000000            0.00        4.32        0.00
   0.00000000   0.00000000   0.00007074            0.00        0.00       10.41


     BFGS Geometry Optimization
     Energy error            =      0.0E+00 Ry
     Gradient error          =      0.0E+00 Ry/Bohr
     Cell gradient error     =      1.0E+01 kbar

     number of scf cycles    =   1
     number of bfgs steps    =   0

     enthalpy           new  =    -154.7323180174 Ry

     new trust radius        =       0.0048373262 bohr
     new conv_thr            =       0.0000001000 Ry

     new unit-cell volume =    187.66087 a.u.^3 (    27.80847 Ang^3 )
     density =     15.55610 g/cm^3

CELL_PARAMETERS (angstrom)
   2.768029568   0.000000000   0.000000000
   0.000000000   2.768029568   0.000000000
   0.000000000   0.000000000   3.629407064

ATOMIC_POSITIONS (angstrom)
Cu            0.0000000000        0.0000000000        0.0000000000
Au            1.3840147842        1.3840147842        1.8147035321



     Writing config-only to output data dir /home/gridsan/epan1/labutil/lab3_samples/problem3/Lab3/CuAu_a_2.766_c_3.623_ecut_40_nk_7/pwscf.save/
     NEW-OLD atomic charge density approx. for the potential
     extrapolated charge   22.07103, renormalised to   22.00000
     Generating pointlists ...

     total cpu time spent up to now is        7.3 secs

     Self-consistent Calculation

     iteration #  1     ecut=    40.00 Ry     beta= 0.50
     Davidson diagonalization with overlap
     ethr =  1.00E-06,  avg # of iterations =  3.0

     total cpu time spent up to now is        8.1 secs

     total energy              =    -154.73071701 Ry
     estimated scf accuracy    <       0.00159989 Ry

     total magnetization       =     0.00 Bohr mag/cell
     absolute magnetization    =     0.00 Bohr mag/cell

     iteration #  2     ecut=    40.00 Ry     beta= 0.50
     Davidson diagonalization with overlap
     ethr =  7.27E-06,  avg # of iterations =  2.1

     total cpu time spent up to now is        8.8 secs

     total energy              =    -154.73209666 Ry
     estimated scf accuracy    <       0.00490908 Ry

     total magnetization       =     0.00 Bohr mag/cell
     absolute magnetization    =     0.00 Bohr mag/cell

     iteration #  3     ecut=    40.00 Ry     beta= 0.50
     Davidson diagonalization with overlap
     ethr =  7.27E-06,  avg # of iterations =  2.0

     total cpu time spent up to now is        9.5 secs

     total energy              =    -154.73239794 Ry
     estimated scf accuracy    <       0.00057444 Ry

     total magnetization       =     0.00 Bohr mag/cell
     absolute magnetization    =     0.00 Bohr mag/cell

     iteration #  4     ecut=    40.00 Ry     beta= 0.50
     Davidson diagonalization with overlap
     ethr =  2.61E-06,  avg # of iterations =  1.0

     total cpu time spent up to now is       10.0 secs

     total energy              =    -154.73235151 Ry
     estimated scf accuracy    <       0.00027712 Ry

     total magnetization       =     0.00 Bohr mag/cell
     absolute magnetization    =     0.00 Bohr mag/cell

     iteration #  5     ecut=    40.00 Ry     beta= 0.50
     Davidson diagonalization with overlap
     ethr =  1.26E-06,  avg # of iterations =  1.0

     total cpu time spent up to now is       10.6 secs

     total energy              =    -154.73233448 Ry
     estimated scf accuracy    <       0.00008328 Ry

     total magnetization       =     0.00 Bohr mag/cell
     absolute magnetization    =     0.00 Bohr mag/cell

     iteration #  6     ecut=    40.00 Ry     beta= 0.50
     Davidson diagonalization with overlap
     ethr =  3.79E-07,  avg # of iterations =  1.2

     total cpu time spent up to now is       11.1 secs

     total energy              =    -154.73233966 Ry
     estimated scf accuracy    <       0.00000634 Ry

     total magnetization       =     0.00 Bohr mag/cell
     absolute magnetization    =     0.00 Bohr mag/cell

     iteration #  7     ecut=    40.00 Ry     beta= 0.50
     Davidson diagonalization with overlap
     ethr =  2.88E-08,  avg # of iterations =  2.0

     Magnetic moment per site  (integrated on atomic sphere of radius R)
     atom   1 (R=0.398)  charge= 10.0374  magn= -0.0000
     atom   2 (R=0.398)  charge=  8.8237  magn=  0.0000

     total cpu time spent up to now is       11.7 secs

     End of self-consistent calculation

 ------ SPIN UP ------------


          k = 0.0000 0.0000 0.0000 (   821 PWs)   bands (ev):

     5.5181   8.7266   8.9026  11.4394  11.4394  12.5801  12.6214  13.3817
    13.8764  14.1317  14.1317  17.8720  24.1559  26.2658  26.2658

          k = 0.0000 0.0000 0.1089 (   810 PWs)   bands (ev):

     5.7717   8.7763   9.0005  11.4988  11.4988  12.5494  12.6265  13.3073
    13.8250  13.9622  13.9622  16.4771  25.9396  26.7579  26.7579

          k = 0.0000 0.0000 0.2177 (   790 PWs)   bands (ev):

     6.4557   8.8952   9.2592  11.6623  11.6623  12.3805  12.7488  13.0689
    13.5662  13.5662  13.6916  14.2284  28.1172  28.1172  29.3745

          k = 0.0000 0.0000 0.3266 (   810 PWs)   bands (ev):

     7.2064   8.9991   9.5832  11.8484  11.8484  12.1582  12.2365  12.8803
    13.1997  13.2059  13.2059  13.5512  30.0931  30.0931  31.2374

          k = 0.0000 0.1428 0.0000 (   801 PWs)   bands (ev):

     6.0077   8.9468   9.2190  11.1603  11.5620  12.3806  12.6928  13.3721
    13.4920  13.6646  14.0244  19.1490  23.0628  24.7448  27.0757

          k = 0.0000 0.1428 0.1089 (   806 PWs)   bands (ev):

     6.2524   8.9971   9.3111  11.1703  11.5726  12.4341  12.6540  13.2857
    13.3288  13.5116  14.0361  17.6587  23.6902  26.4300  27.5210

          k = 0.0000 0.1428 0.2177 (   806 PWs)   bands (ev):

     6.9123   9.1199   9.5159  11.2031  11.6336  12.4606  12.5801  12.8082
    13.2026  13.3465  13.9465  15.4294  24.8935  28.7754  29.6286

          k = 0.0000 0.1428 0.3266 (   805 PWs)   bands (ev):

     7.6489   9.2760   9.5558  11.4276  11.7503  12.0959  12.3092  12.5378
    13.2599  13.4642  13.7348  13.8826  26.4645  28.2322  30.6527

          k = 0.0000 0.2855 0.0000 (   796 PWs)   bands (ev):

     7.2548   9.3870  10.1578  10.4996  11.8918  11.8979  12.6826  12.7667
    13.3102  13.5685  13.7286  19.4634  21.7008  24.7367  29.1905

          k = 0.0000 0.2855 0.1089 (   799 PWs)   bands (ev):

     7.4320   9.3808  10.2380  10.5607  11.6430  12.0518  12.6556  12.7444
    13.2424  13.5163  13.8836  19.4714  20.0419  27.0545  28.6070

          k = 0.0000 0.2855 0.2177 (   803 PWs)   bands (ev):

     7.8689   9.2596  10.5889  10.7445  11.4811  11.9047  12.5771  12.7390
    13.4018  13.4183  14.0154  16.9533  20.9217  26.2471  30.4804

          k = 0.0000 0.2855 0.3266 (   801 PWs)   bands (ev):

     8.3157   9.0160  10.7790  11.3727  11.4735  11.6492  12.4234  12.7431
    13.6213  13.7113  13.9538  14.8164  22.3501  24.2188  31.8629

          k = 0.0000 0.4283 0.0000 (   806 PWs)   bands (ev):

     8.4621   9.9604   9.9858  10.9375  11.5037  12.2782  12.4344  12.4978
    13.0995  13.3691  14.3278  16.4290  24.6203  25.4281  27.9392

          k = 0.0000 0.4283 0.1089 (   800 PWs)   bands (ev):

     8.4995   9.4674  10.2440  11.3857  11.4856  12.0491  12.5064  12.5603
    13.2797  13.5743  14.2666  16.5046  22.0517  25.0535  28.7814

          k = 0.0000 0.4283 0.2177 (   795 PWs)   bands (ev):

     8.5378   8.9405  10.7954  11.1786  11.6903  12.4018  12.6367  12.8109
    13.6266  13.8795  14.0642  16.4430  19.7679  22.8487  32.0485

          k = 0.0000 0.4283 0.3266 (   794 PWs)   bands (ev):

     8.5158   8.6722  11.0480  11.3543  11.4661  12.7203  13.0719  13.6813
    13.7588  13.9037  14.0268  15.2992  19.2148  21.2583  32.8879

          k = 0.1428 0.1428 0.0000 (   807 PWs)   bands (ev):

     6.4939   9.3000   9.3803  11.0440  11.4090  12.0956  12.8019  13.0632
    13.3957  13.4916  14.1494  20.0949  23.3168  24.0121  25.4499

          k = 0.1428 0.1428 0.1089 (   799 PWs)   bands (ev):

     6.7346   9.3411   9.4770  11.0614  11.3302  12.0556  12.7795  13.0053
    13.3727  13.5463  13.9811  18.4677  24.1867  24.4421  26.9085

          k = 0.1428 0.1428 0.2177 (   799 PWs)   bands (ev):

     7.3881   9.4397   9.6565  11.0984  11.2309  11.9009  12.7540  12.8943
    13.4350  13.5217  13.5935  16.2083  25.2843  25.5784  29.8938

          k = 0.1428 0.1428 0.3266 (   801 PWs)   bands (ev):

     8.1598   9.5264   9.5711  11.1238  11.4582  11.8537  12.3973  12.8075
    13.2218  13.2769  13.8857  14.6673  26.6551  27.0216  28.3981

          k = 0.1428 0.2855 0.0000 (   798 PWs)   bands (ev):

     7.7114   9.7165  10.1673  10.4324  11.3068  11.6486  12.8934  12.9193
    13.2576  13.5676  13.9986  19.9927  22.3155  24.4319  26.2932

          k = 0.1428 0.2855 0.1089 (   795 PWs)   bands (ev):

     7.8988   9.7352  10.2241  10.4708  11.2147  11.5690  12.8450  13.0562
    13.3078  13.5483  13.9304  20.1545  20.3954  25.8599  27.5353

          k = 0.1428 0.2855 0.2177 (   794 PWs)   bands (ev):

     8.3616   9.6002  10.5201  10.6505  11.1108  11.4061  12.7776  13.0200
    13.3072  13.7850  13.8306  17.6038  21.3764  26.3948  27.1002

          k = 0.1428 0.2855 0.3266 (   800 PWs)   bands (ev):

     8.8659   9.2891  10.6459  10.9989  11.2173  11.5113  12.4870  12.9421
    13.2860  13.5429  14.4423  15.6773  22.7891  24.5382  28.0150

          k = 0.1428 0.4283 0.0000 (   800 PWs)   bands (ev):

     8.9653   9.9102  10.1131  10.1395  11.2451  12.0050  12.9730  13.1669
    13.2229  13.6274  14.3360  16.7157  25.0987  25.5154  27.2883

          k = 0.1428 0.4283 0.1089 (   798 PWs)   bands (ev):

     8.9995   9.5945  10.2614  10.3792  11.2234  12.1028  12.8499  12.9320
    13.6159  13.7626  14.3455  16.9094  22.3594  25.3249  28.1408

          k = 0.1428 0.4283 0.2177 (   798 PWs)   bands (ev):

     8.9068   9.3522  10.4928  10.8112  11.1661  12.3848  12.7196  12.8764
    13.8368  13.8739  14.6262  17.2464  19.9850  23.0645  28.8269

          k = 0.1428 0.4283 0.3266 (   796 PWs)   bands (ev):

     8.7392   9.2865  10.5043  11.0852  11.4801  12.7072  12.7695  12.9063
    13.6970  13.7782  15.3593  16.5730  19.4487  21.3737  29.5031

          k = 0.2855 0.2855 0.0000 (   790 PWs)   bands (ev):

     8.5768   9.8168  10.2275  10.4450  10.9450  11.7330  13.2331  13.2420
    13.2985  13.6206  14.1905  20.4588  22.2353  23.9181  25.7882

          k = 0.2855 0.2855 0.1089 (   792 PWs)   bands (ev):

     8.7458   9.9617  10.2366  10.3585  10.9442  11.5746  13.1342  13.2907
    13.3942  13.8347  14.0173  20.9489  21.2879  22.8997  27.9222

          k = 0.2855 0.2855 0.2177 (   802 PWs)   bands (ev):

     9.1144  10.0359  10.2601  10.5716  10.9388  11.3649  12.9857  13.2693
    13.3063  13.6828  14.5108  18.9313  22.2215  23.1923  27.0219

          k = 0.2855 0.2855 0.3266 (   802 PWs)   bands (ev):

     9.3756   9.9115  10.2828  10.9296  11.0100  11.6308  12.5126  13.1994
    13.2396  13.4645  15.3420  17.0605  23.9383  23.9488  25.3302

          k = 0.2855 0.4283 0.0000 (   791 PWs)   bands (ev):

     8.8935   9.7507   9.7544  10.2341  11.4370  12.8968  13.4368  13.6410
    13.6815  14.0551  14.3833  17.3645  23.6947  26.0726  26.3959

          k = 0.2855 0.4283 0.1089 (   799 PWs)   bands (ev):

     8.9542   9.7234   9.9900  10.2322  11.3688  12.6853  13.2608  13.3676
    13.8868  13.9877  14.8712  17.7982  22.9707  24.6686  25.8729

          k = 0.2855 0.4283 0.2177 (   798 PWs)   bands (ev):

     9.0855   9.6387  10.2389  10.6374  11.2127  12.4202  12.9333  13.2840
    13.7982  13.8350  15.8442  18.7991  20.7973  23.7289  24.9545

          k = 0.2855 0.4283 0.3266 (   797 PWs)   bands (ev):

     9.2005   9.5370  10.2814  10.9022  11.6631  12.3426  12.4933  13.2137
    13.6183  13.7389  16.9237  18.6590  20.2900  21.9433  25.7072

          k = 0.4283 0.4283 0.0000 (   796 PWs)   bands (ev):

     8.3492   9.6322   9.6530   9.7603  13.3011  13.7322  13.8257  13.8371
    14.0759  14.2239  15.1262  17.2153  21.6673  24.0792  26.5410

          k = 0.4283 0.4283 0.1089 (   798 PWs)   bands (ev):

     8.4396   9.6536   9.6592  10.0073  13.0807  13.3454  13.6464  13.7488
    13.8367  14.0280  16.0594  17.9402  21.7479  23.8178  25.2208

          k = 0.4283 0.4283 0.2177 (   802 PWs)   bands (ev):

     8.6626   9.6649   9.7094  10.6903  12.5528  12.5828  13.3206  13.5445
    13.8352  13.8871  17.4389  19.5217  21.8133  22.9697  23.6603

          k = 0.4283 0.4283 0.3266 (   812 PWs)   bands (ev):

     8.8739   9.6475   9.7645  11.6090  12.1660  12.1712  12.7025  13.3676
    13.8331  13.8537  18.7700  20.7547  21.3738  22.3798  23.5228

 ------ SPIN DOWN ----------


          k = 0.0000 0.0000 0.0000 (   821 PWs)   bands (ev):

     5.5181   8.7266   8.9026  11.4394  11.4394  12.5801  12.6214  13.3817
    13.8764  14.1317  14.1317  17.8720  24.1559  26.2658  26.2658

          k = 0.0000 0.0000 0.1089 (   810 PWs)   bands (ev):

     5.7717   8.7763   9.0005  11.4988  11.4988  12.5494  12.6265  13.3073
    13.8251  13.9622  13.9622  16.4771  25.9396  26.7579  26.7579

          k = 0.0000 0.0000 0.2177 (   790 PWs)   bands (ev):

     6.4557   8.8952   9.2592  11.6623  11.6623  12.3805  12.7488  13.0689
    13.5662  13.5662  13.6916  14.2284  28.1172  28.1172  29.3745

          k = 0.0000 0.0000 0.3266 (   810 PWs)   bands (ev):

     7.2064   8.9991   9.5832  11.8485  11.8485  12.1582  12.2365  12.8803
    13.1997  13.2059  13.2059  13.5512  30.0931  30.0931  31.2374

          k = 0.0000 0.1428 0.0000 (   801 PWs)   bands (ev):

     6.0077   8.9469   9.2190  11.1603  11.5620  12.3806  12.6928  13.3721
    13.4920  13.6646  14.0244  19.1489  23.0628  24.7448  27.0757

          k = 0.0000 0.1428 0.1089 (   806 PWs)   bands (ev):

     6.2524   8.9971   9.3111  11.1703  11.5726  12.4341  12.6540  13.2857
    13.3288  13.5116  14.0362  17.6587  23.6902  26.4300  27.5210

          k = 0.0000 0.1428 0.2177 (   806 PWs)   bands (ev):

     6.9123   9.1199   9.5159  11.2031  11.6336  12.4606  12.5801  12.8082
    13.2026  13.3465  13.9465  15.4294  24.8935  28.7754  29.6286

          k = 0.0000 0.1428 0.3266 (   805 PWs)   bands (ev):

     7.6489   9.2760   9.5558  11.4276  11.7503  12.0959  12.3092  12.5378
    13.2599  13.4642  13.7348  13.8826  26.4645  28.2322  30.6527

          k = 0.0000 0.2855 0.0000 (   796 PWs)   bands (ev):

     7.2548   9.3870  10.1578  10.4997  11.8918  11.8979  12.6826  12.7667
    13.3102  13.5685  13.7286  19.4634  21.7008  24.7367  29.1905

          k = 0.0000 0.2855 0.1089 (   799 PWs)   bands (ev):

     7.4320   9.3808  10.2380  10.5607  11.6431  12.0518  12.6556  12.7444
    13.2424  13.5163  13.8837  19.4714  20.0419  27.0545  28.6070

          k = 0.0000 0.2855 0.2177 (   803 PWs)   bands (ev):

     7.8689   9.2596  10.5889  10.7446  11.4812  11.9047  12.5771  12.7390
    13.4019  13.4183  14.0154  16.9533  20.9217  26.2471  30.4802

          k = 0.0000 0.2855 0.3266 (   801 PWs)   bands (ev):

     8.3157   9.0160  10.7790  11.3727  11.4735  11.6492  12.4234  12.7431
    13.6213  13.7113  13.9538  14.8164  22.3501  24.2188  31.8629

          k = 0.0000 0.4283 0.0000 (   806 PWs)   bands (ev):

     8.4621   9.9604   9.9858  10.9375  11.5037  12.2782  12.4344  12.4978
    13.0995  13.3691  14.3278  16.4290  24.6203  25.4280  27.9392

          k = 0.0000 0.4283 0.1089 (   800 PWs)   bands (ev):

     8.4995   9.4674  10.2441  11.3857  11.4856  12.0491  12.5064  12.5603
    13.2797  13.5743  14.2666  16.5046  22.0517  25.0535  28.7814

          k = 0.0000 0.4283 0.2177 (   795 PWs)   bands (ev):

     8.5378   8.9405  10.7954  11.1787  11.6903  12.4018  12.6367  12.8109
    13.6266  13.8795  14.0642  16.4430  19.7679  22.8487  32.0486

          k = 0.0000 0.4283 0.3266 (   794 PWs)   bands (ev):

     8.5158   8.6722  11.0481  11.3544  11.4661  12.7203  13.0719  13.6813
    13.7588  13.9037  14.0268  15.2992  19.2148  21.2583  32.8879

          k = 0.1428 0.1428 0.0000 (   807 PWs)   bands (ev):

     6.4939   9.3000   9.3803  11.0441  11.4091  12.0956  12.8019  13.0632
    13.3957  13.4916  14.1494  20.0949  23.3168  24.0121  25.4499

          k = 0.1428 0.1428 0.1089 (   799 PWs)   bands (ev):

     6.7346   9.3411   9.4770  11.0614  11.3302  12.0557  12.7795  13.0053
    13.3727  13.5463  13.9812  18.4677  24.1867  24.4421  26.9085

          k = 0.1428 0.1428 0.2177 (   799 PWs)   bands (ev):

     7.3881   9.4398   9.6565  11.0984  11.2309  11.9009  12.7540  12.8943
    13.4350  13.5217  13.5935  16.2083  25.2843  25.5784  29.8938

          k = 0.1428 0.1428 0.3266 (   801 PWs)   bands (ev):

     8.1597   9.5264   9.5711  11.1238  11.4583  11.8537  12.3973  12.8075
    13.2218  13.2769  13.8857  14.6673  26.6551  27.0216  28.3981

          k = 0.1428 0.2855 0.0000 (   798 PWs)   bands (ev):

     7.7114   9.7165  10.1673  10.4325  11.3068  11.6486  12.8934  12.9193
    13.2576  13.5676  13.9986  19.9927  22.3154  24.4319  26.2932

          k = 0.1428 0.2855 0.1089 (   795 PWs)   bands (ev):

     7.8988   9.7352  10.2242  10.4708  11.2147  11.5690  12.8450  13.0562
    13.3078  13.5483  13.9304  20.1545  20.3954  25.8599  27.5353

          k = 0.1428 0.2855 0.2177 (   794 PWs)   bands (ev):

     8.3616   9.6002  10.5201  10.6505  11.1108  11.4061  12.7776  13.0200
    13.3072  13.7850  13.8306  17.6038  21.3764  26.3948  27.1002

          k = 0.1428 0.2855 0.3266 (   800 PWs)   bands (ev):

     8.8659   9.2891  10.6459  10.9989  11.2173  11.5113  12.4870  12.9421
    13.2860  13.5429  14.4423  15.6773  22.7891  24.5382  28.0150

          k = 0.1428 0.4283 0.0000 (   800 PWs)   bands (ev):

     8.9653   9.9102  10.1132  10.1395  11.2451  12.0050  12.9730  13.1669
    13.2229  13.6274  14.3360  16.7157  25.0987  25.5154  27.2883

          k = 0.1428 0.4283 0.1089 (   798 PWs)   bands (ev):

     8.9995   9.5945  10.2614  10.3792  11.2234  12.1028  12.8500  12.9320
    13.6159  13.7626  14.3455  16.9094  22.3594  25.3249  28.1408

          k = 0.1428 0.4283 0.2177 (   798 PWs)   bands (ev):

     8.9068   9.3522  10.4928  10.8112  11.1662  12.3848  12.7196  12.8764
    13.8368  13.8739  14.6262  17.2464  19.9850  23.0645  28.8269

          k = 0.1428 0.4283 0.3266 (   796 PWs)   bands (ev):

     8.7392   9.2865  10.5044  11.0852  11.4801  12.7072  12.7695  12.9063
    13.6970  13.7782  15.3593  16.5730  19.4487  21.3737  29.5030

          k = 0.2855 0.2855 0.0000 (   790 PWs)   bands (ev):

     8.5768   9.8168  10.2276  10.4450  10.9450  11.7330  13.2331  13.2420
    13.2985  13.6206  14.1905  20.4588  22.2353  23.9181  25.7882

          k = 0.2855 0.2855 0.1089 (   792 PWs)   bands (ev):

     8.7458   9.9617  10.2366  10.3585  10.9442  11.5746  13.1342  13.2907
    13.3942  13.8347  14.0173  20.9489  21.2879  22.8997  27.9222

          k = 0.2855 0.2855 0.2177 (   802 PWs)   bands (ev):

     9.1144  10.0359  10.2601  10.5716  10.9388  11.3649  12.9857  13.2694
    13.3064  13.6828  14.5108  18.9313  22.2215  23.1923  27.0219

          k = 0.2855 0.2855 0.3266 (   802 PWs)   bands (ev):

     9.3757   9.9115  10.2828  10.9296  11.0100  11.6308  12.5126  13.1994
    13.2396  13.4645  15.3420  17.0605  23.9383  23.9488  25.3302

          k = 0.2855 0.4283 0.0000 (   791 PWs)   bands (ev):

     8.8935   9.7507   9.7544  10.2341  11.4370  12.8968  13.4368  13.6410
    13.6815  14.0551  14.3833  17.3645  23.6947  26.0726  26.3959

          k = 0.2855 0.4283 0.1089 (   799 PWs)   bands (ev):

     8.9542   9.7235   9.9900  10.2322  11.3689  12.6853  13.2608  13.3676
    13.8868  13.9877  14.8712  17.7982  22.9707  24.6686  25.8729

          k = 0.2855 0.4283 0.2177 (   798 PWs)   bands (ev):

     9.0855   9.6387  10.2389  10.6374  11.2127  12.4202  12.9333  13.2840
    13.7982  13.8350  15.8442  18.7991  20.7973  23.7289  24.9545

          k = 0.2855 0.4283 0.3266 (   797 PWs)   bands (ev):

     9.2005   9.5370  10.2814  10.9022  11.6631  12.3426  12.4933  13.2137
    13.6183  13.7389  16.9237  18.6590  20.2900  21.9433  25.7072

          k = 0.4283 0.4283 0.0000 (   796 PWs)   bands (ev):

     8.3492   9.6322   9.6530   9.7603  13.3012  13.7322  13.8257  13.8371
    14.0759  14.2239  15.1262  17.2153  21.6673  24.0792  26.5410

          k = 0.4283 0.4283 0.1089 (   798 PWs)   bands (ev):

     8.4396   9.6536   9.6592  10.0073  13.0808  13.3454  13.6464  13.7488
    13.8367  14.0281  16.0594  17.9402  21.7479  23.8178  25.2208

          k = 0.4283 0.4283 0.2177 (   802 PWs)   bands (ev):

     8.6626   9.6649   9.7094  10.6903  12.5528  12.5828  13.3207  13.5445
    13.8352  13.8871  17.4389  19.5217  21.8133  22.9697  23.6603

          k = 0.4283 0.4283 0.3266 (   812 PWs)   bands (ev):

     8.8739   9.6476   9.7645  11.6090  12.1660  12.1712  12.7025  13.3676
    13.8331  13.8537  18.7700  20.7547  21.3738  22.3798  23.5228

     the Fermi energy is    15.7018 ev

!    total energy              =    -154.73234076 Ry
     estimated scf accuracy    <       0.00000003 Ry
     smearing contrib. (-TS)   =       0.00001606 Ry
     internal energy E=F+TS    =    -154.73235681 Ry

     The total energy is F=E-TS. E is the sum of the following terms:
     one-electron contribution =      -4.01057744 Ry
     hartree contribution      =      27.64061109 Ry
     xc contribution           =     -24.55240440 Ry
     ewald contribution        =    -153.80998606 Ry

     total magnetization       =     0.00 Bohr mag/cell
     absolute magnetization    =     0.00 Bohr mag/cell

     convergence has been achieved in   7 iterations

     Forces acting on atoms (cartesian axes, Ry/au):

     atom    1 type  2   force =     0.00000000    0.00000000    0.00000000
     atom    2 type  1   force =     0.00000000    0.00000000    0.00000000
     The non-local contrib.  to forces
     atom    1 type  2   force =     0.00000000    0.00000000    0.00000000
     atom    2 type  1   force =     0.00000000    0.00000000    0.00000000
     The ionic contribution  to forces
     atom    1 type  2   force =     0.00000000    0.00000000   -0.00000000
     atom    2 type  1   force =     0.00000000    0.00000000    0.00000000
     The local contribution  to forces
     atom    1 type  2   force =     0.00000000    0.00000000   -0.00000000
     atom    2 type  1   force =     0.00000000    0.00000000   -0.00000000
     The core correction contribution to forces
     atom    1 type  2   force =     0.00000000    0.00000000    0.00000000
     atom    2 type  1   force =     0.00000000    0.00000000    0.00000000
     The Hubbard contrib.    to forces
     atom    1 type  2   force =     0.00000000    0.00000000    0.00000000
     atom    2 type  1   force =     0.00000000    0.00000000    0.00000000
     The SCF correction term to forces
     atom    1 type  2   force =     0.00000000   -0.00000000    0.00000000
     atom    2 type  1   force =     0.00000000    0.00000000   -0.00000000

     Total force =     0.000000     Total SCF correction =     0.000000


     Computing stress (Cartesian axis) and pressure

          total   stress  (Ry/bohr**3)                   (kbar)     P=        2.32
   0.00000350   0.00000000   0.00000000            0.51        0.00        0.00
   0.00000000   0.00000350   0.00000000            0.00        0.51        0.00
   0.00000000   0.00000000   0.00004035            0.00        0.00        5.94

     Energy error            =      2.3E-05 Ry
     Gradient error          =      0.0E+00 Ry/Bohr
     Cell gradient error     =      5.9E+00 kbar

     number of scf cycles    =   2
     number of bfgs steps    =   1

     enthalpy           old  =    -154.7323180174 Ry
     enthalpy           new  =    -154.7323407561 Ry

     CASE: enthalpy          _new < enthalpy          _old

     new trust radius        =       0.0057096900 bohr
     new conv_thr            =       0.0000000010 Ry

     new unit-cell volume =    188.14868 a.u.^3 (    27.88076 Ang^3 )
     density =     15.51577 g/cm^3

CELL_PARAMETERS (angstrom)
   2.768741343   0.000000000   0.000000000
   0.000000000   2.768741343   0.000000000
   0.000000000   0.000000000   3.636970713

ATOMIC_POSITIONS (angstrom)
Cu            0.0000000000        0.0000000000        0.0000000000
Au            1.3843706716        1.3843706716        1.8184853564



     Writing config-only to output data dir /home/gridsan/epan1/labutil/lab3_samples/problem3/Lab3/CuAu_a_2.766_c_3.623_ecut_40_nk_7/pwscf.save/
     NEW-OLD atomic charge density approx. for the potential
     extrapolated charge   22.05704, renormalised to   22.00000
     Generating pointlists ...

     total cpu time spent up to now is       12.5 secs

     Self-consistent Calculation

     iteration #  1     ecut=    40.00 Ry     beta= 0.50
     Davidson diagonalization with overlap
     ethr =  1.00E-06,  avg # of iterations =  3.0

     total cpu time spent up to now is       13.3 secs

     total energy              =    -154.73126797 Ry
     estimated scf accuracy    <       0.00107304 Ry

     total magnetization       =     0.00 Bohr mag/cell
     absolute magnetization    =     0.00 Bohr mag/cell

     iteration #  2     ecut=    40.00 Ry     beta= 0.50
     Davidson diagonalization with overlap
     ethr =  4.88E-06,  avg # of iterations =  2.1

     total cpu time spent up to now is       14.1 secs

     total energy              =    -154.73216991 Ry
     estimated scf accuracy    <       0.00328881 Ry

     total magnetization       =     0.00 Bohr mag/cell
     absolute magnetization    =     0.00 Bohr mag/cell

     iteration #  3     ecut=    40.00 Ry     beta= 0.50
     Davidson diagonalization with overlap
     ethr =  4.88E-06,  avg # of iterations =  2.0

     total cpu time spent up to now is       14.7 secs

     total energy              =    -154.73237974 Ry
     estimated scf accuracy    <       0.00036897 Ry

     total magnetization       =    -0.00 Bohr mag/cell
     absolute magnetization    =     0.00 Bohr mag/cell

     iteration #  4     ecut=    40.00 Ry     beta= 0.50
     Davidson diagonalization with overlap
     ethr =  1.68E-06,  avg # of iterations =  1.0

     total cpu time spent up to now is       15.2 secs

     total energy              =    -154.73234434 Ry
     estimated scf accuracy    <       0.00017942 Ry

     total magnetization       =    -0.00 Bohr mag/cell
     absolute magnetization    =     0.00 Bohr mag/cell

     iteration #  5     ecut=    40.00 Ry     beta= 0.50
     Davidson diagonalization with overlap
     ethr =  8.16E-07,  avg # of iterations =  1.0

     total cpu time spent up to now is       15.8 secs

     total energy              =    -154.73233214 Ry
     estimated scf accuracy    <       0.00004170 Ry

     total magnetization       =     0.00 Bohr mag/cell
     absolute magnetization    =     0.00 Bohr mag/cell

     iteration #  6     ecut=    40.00 Ry     beta= 0.50
     Davidson diagonalization with overlap
     ethr =  1.90E-07,  avg # of iterations =  2.0

     total cpu time spent up to now is       16.4 secs

     total energy              =    -154.73234382 Ry
     estimated scf accuracy    <       0.00000186 Ry

     total magnetization       =     0.00 Bohr mag/cell
     absolute magnetization    =     0.00 Bohr mag/cell

     iteration #  7     ecut=    40.00 Ry     beta= 0.50
     Davidson diagonalization with overlap
     ethr =  8.47E-09,  avg # of iterations =  1.8

     total cpu time spent up to now is       17.0 secs

     total energy              =    -154.73234245 Ry
     estimated scf accuracy    <       0.00000529 Ry

     total magnetization       =     0.00 Bohr mag/cell
     absolute magnetization    =     0.00 Bohr mag/cell

     iteration #  8     ecut=    40.00 Ry     beta= 0.50
     Davidson diagonalization with overlap
     ethr =  8.47E-09,  avg # of iterations =  2.0

     total cpu time spent up to now is       17.8 secs

     total energy              =    -154.73234256 Ry
     estimated scf accuracy    <       0.00000072 Ry

     total magnetization       =     0.00 Bohr mag/cell
     absolute magnetization    =     0.00 Bohr mag/cell

     iteration #  9     ecut=    40.00 Ry     beta= 0.50
     Davidson diagonalization with overlap
     ethr =  3.29E-09,  avg # of iterations =  1.6

     total cpu time spent up to now is       18.4 secs

     total energy              =    -154.73234264 Ry
     estimated scf accuracy    <       0.00000002 Ry

     total magnetization       =    -0.00 Bohr mag/cell
     absolute magnetization    =     0.00 Bohr mag/cell

     iteration # 10     ecut=    40.00 Ry     beta= 0.50
     Davidson diagonalization with overlap
     ethr =  1.10E-10,  avg # of iterations =  2.0

     Magnetic moment per site  (integrated on atomic sphere of radius R)
     atom   1 (R=0.398)  charge= 10.0332  magn= -0.0000
     atom   2 (R=0.398)  charge=  8.8215  magn=  0.0000

     total cpu time spent up to now is       19.1 secs

     End of self-consistent calculation

 ------ SPIN UP ------------


          k = 0.0000 0.0000 0.0000 (   821 PWs)   bands (ev):

     5.4853   8.6878   8.8647  11.3965  11.3965  12.5372  12.5695  13.3270
    13.8226  14.0765  14.0765  17.7900  24.0407  26.2199  26.2199

          k = 0.0000 0.0000 0.1086 (   810 PWs)   bands (ev):

     5.7377   8.7369   8.9616  11.4559  11.4559  12.4984  12.5830  13.2525
    13.7719  13.9086  13.9086  16.3990  25.8200  26.7090  26.7090

          k = 0.0000 0.0000 0.2173 (   790 PWs)   bands (ev):

     6.4183   8.8541   9.2176  11.6190  11.6190  12.3317  12.7036  13.0132
    13.5159  13.5159  13.6403  14.1598  28.0608  28.0608  29.2468

          k = 0.0000 0.0000 0.3259 (   810 PWs)   bands (ev):

     7.1657   8.9564   9.5383  11.8045  11.8045  12.0964  12.1898  12.8329
    13.1452  13.1584  13.1584  13.5022  30.0275  30.0275  31.1795

          k = 0.0000 0.1427 0.0000 (   801 PWs)   bands (ev):

     5.9746   8.9077   9.1810  11.1162  11.5186  12.3372  12.6410  13.3182
    13.4378  13.6126  13.9700  19.0662  22.9958  24.6488  27.0276

          k = 0.0000 0.1427 0.1086 (   806 PWs)   bands (ev):

     6.2181   8.9573   9.2721  11.1261  11.5297  12.3895  12.6028  13.2317
    13.2760  13.4618  13.9812  17.5802  23.6332  26.3173  27.4704

          k = 0.0000 0.1427 0.2173 (   806 PWs)   bands (ev):

     6.8748   9.0787   9.4742  11.1585  11.5916  12.4149  12.5302  12.7548
    13.1506  13.2987  13.8920  15.3620  24.8343  28.7183  29.5153

          k = 0.0000 0.1427 0.3259 (   805 PWs)   bands (ev):

     7.6082   9.2334   9.5128  11.3795  11.7081  12.0417  12.2653  12.4885
    13.2092  13.4143  13.6825  13.8273  26.3994  28.1617  30.5867

          k = 0.0000 0.2854 0.0000 (   796 PWs)   bands (ev):

     7.2204   9.3468  10.1199  10.4533  11.8468  11.8536  12.6325  12.7160
    13.2612  13.5158  13.6765  19.4129  21.6138  24.6279  29.1377

          k = 0.0000 0.2854 0.1086 (   799 PWs)   bands (ev):

     7.3966   9.3403  10.1987  10.5150  11.6011  12.0055  12.6051  12.6945
    13.1946  13.4639  13.8294  19.4052  19.9730  26.9428  28.5210

          k = 0.0000 0.2854 0.2173 (   803 PWs)   bands (ev):

     7.8314   9.2195  10.5467  10.6976  11.4410  11.8609  12.5265  12.6891
    13.3519  13.3669  13.9595  16.8842  20.8614  26.1691  30.4213

          k = 0.0000 0.2854 0.3259 (   801 PWs)   bands (ev):

     8.2763   8.9771  10.7347  11.3192  11.4336  11.6084  12.3742  12.6932
    13.5697  13.6580  13.8983  14.7580  22.2854  24.1461  31.7978

          k = 0.0000 0.4281 0.0000 (   806 PWs)   bands (ev):

     8.4254   9.9199   9.9386  10.8991  11.4593  12.2306  12.3856  12.4511
    13.0520  13.3200  14.2764  16.3790  24.5284  25.3272  27.8361

          k = 0.0000 0.4281 0.1086 (   800 PWs)   bands (ev):

     8.4621   9.4253  10.2021  11.3429  11.4427  12.0045  12.4577  12.5124
    13.2302  13.5223  14.2153  16.4540  21.9646  24.9663  28.6712

          k = 0.0000 0.4281 0.2173 (   795 PWs)   bands (ev):

     8.4997   8.9014  10.7488  11.1381  11.6496  12.3560  12.5866  12.7627
    13.5736  13.8241  14.0135  16.3904  19.6913  22.7682  31.9348

          k = 0.0000 0.4281 0.3259 (   794 PWs)   bands (ev):

     8.4790   8.6336  11.0088  11.3004  11.4276  12.6693  13.0246  13.6332
    13.7082  13.8481  13.9699  15.2457  19.1481  21.1805  32.8271

          k = 0.1427 0.1427 0.0000 (   807 PWs)   bands (ev):

     6.4604   9.2605   9.3421  11.0017  11.3618  12.0519  12.7501  13.0126
    13.3425  13.4411  14.0938  20.0110  23.2348  23.9623  25.3675

          k = 0.1427 0.1427 0.1086 (   799 PWs)   bands (ev):

     6.6999   9.3011   9.4377  11.0192  11.2840  12.0115  12.7282  12.9553
    13.3201  13.4943  13.9270  18.3876  24.1227  24.3895  26.8027

          k = 0.1427 0.1427 0.2173 (   799 PWs)   bands (ev):

     7.3504   9.3983   9.6149  11.0569  11.1848  11.8582  12.7039  12.8409
    13.3823  13.4710  13.5423  16.1385  25.2242  25.5192  29.7849

          k = 0.1427 0.1427 0.3259 (   801 PWs)   bands (ev):

     8.1190   9.4837   9.5291  11.0829  11.4075  11.8113  12.3445  12.7580
    13.1731  13.2264  13.8322  14.6080  26.5914  26.9553  28.3275

          k = 0.1427 0.2854 0.0000 (   798 PWs)   bands (ev):

     7.6770   9.6765  10.1287  10.3876  11.2604  11.6051  12.8449  12.8686
    13.2090  13.5153  13.9437  19.9407  22.2280  24.3367  26.2267

          k = 0.1427 0.2854 0.1086 (   795 PWs)   bands (ev):

     7.8633   9.6944  10.1848  10.4266  11.1704  11.5261  12.7945  13.0054
    13.2585  13.4964  13.8762  20.0775  20.3352  25.7946  27.4343

          k = 0.1427 0.2854 0.2173 (   794 PWs)   bands (ev):

     8.3239   9.5595  10.4782  10.6057  11.0685  11.3651  12.7262  12.9695
    13.2563  13.7315  13.7774  17.5315  21.3167  26.3232  27.0336

          k = 0.1427 0.2854 0.3259 (   800 PWs)   bands (ev):

     8.8266   9.2494  10.6024  10.9586  11.1744  11.4618  12.4379  12.8919
    13.2357  13.4907  14.3852  15.6146  22.7244  24.4669  27.9506

          k = 0.1427 0.4281 0.0000 (   800 PWs)   bands (ev):

     8.9294   9.8645  10.0723  10.1006  11.2002  11.9618  12.9246  13.1163
    13.1745  13.5750  14.2851  16.6656  25.0066  25.4165  27.2115

          k = 0.1427 0.4281 0.1086 (   798 PWs)   bands (ev):

     8.9622   9.5528  10.2207  10.3370  11.1797  12.0595  12.8009  12.8835
    13.5642  13.7095  14.2943  16.8579  22.2724  25.2388  28.0677

          k = 0.1427 0.4281 0.2173 (   798 PWs)   bands (ev):

     8.8688   9.3126  10.4517  10.7657  11.1252  12.3409  12.6701  12.8266
    13.7852  13.8202  14.5718  17.1916  19.9080  22.9852  28.7666

          k = 0.1427 0.4281 0.3259 (   796 PWs)   bands (ev):

     8.7023   9.2471  10.4640  11.0462  11.4268  12.6614  12.7205  12.8558
    13.6458  13.7265  15.3017  16.5143  19.3825  21.2976  29.4404

          k = 0.2854 0.2854 0.0000 (   790 PWs)   bands (ev):

     8.5419   9.7797  10.1861  10.3986  10.9033  11.6898  13.1849  13.1914
    13.2473  13.5686  14.1339  20.4095  22.1693  23.8290  25.6934

          k = 0.2854 0.2854 0.1086 (   792 PWs)   bands (ev):

     8.7098   9.9232  10.1956  10.3138  10.9024  11.5328  13.0838  13.2396
    13.3434  13.7817  13.9622  20.8966  21.2040  22.8380  27.8241

          k = 0.2854 0.2854 0.2173 (   802 PWs)   bands (ev):

     9.0761   9.9942  10.2201  10.5288  10.8966  11.3245  12.9335  13.2184
    13.2557  13.6302  14.4540  18.8549  22.1624  23.1327  26.9467

          k = 0.2854 0.2854 0.3259 (   802 PWs)   bands (ev):

     9.3370   9.8696  10.2439  10.8871  10.9693  11.5824  12.4626  13.1491
    13.1888  13.4132  15.2805  16.9936  23.8760  23.8819  25.2636

          k = 0.2854 0.4281 0.0000 (   791 PWs)   bands (ev):

     8.8570   9.7115   9.7156  10.1916  11.3937  12.8519  13.3870  13.5897
    13.6278  13.9989  14.3346  17.3155  23.6305  25.9822  26.3197

          k = 0.2854 0.4281 0.1086 (   799 PWs)   bands (ev):

     8.9172   9.6813   9.9530  10.1905  11.3260  12.6414  13.2097  13.3172
    13.8348  13.9332  14.8182  17.7461  22.8902  24.6036  25.7925

          k = 0.2854 0.4281 0.2173 (   798 PWs)   bands (ev):

     9.0476   9.5978  10.1986  10.5959  11.1709  12.3767  12.8818  13.2335
    13.7466  13.7826  15.7865  18.7420  20.7198  23.6533  24.8936

          k = 0.2854 0.4281 0.3259 (   797 PWs)   bands (ev):

     9.1627   9.4965  10.2425  10.8613  11.6142  12.2979  12.4437  13.1633
    13.5666  13.6882  16.8619  18.5936  20.2252  21.8724  25.6423

          k = 0.4281 0.4281 0.0000 (   796 PWs)   bands (ev):

     8.3135   9.5913   9.6115   9.7257  13.2547  13.6808  13.7737  13.7869
    14.0193  14.1664  15.0839  17.1713  21.6083  24.0145  26.4561

          k = 0.4281 0.4281 0.1086 (   798 PWs)   bands (ev):

     8.4032   9.6131   9.6182   9.9710  13.0348  13.2966  13.5944  13.6973
    13.7865  13.9740  16.0077  17.8908  21.6879  23.7528  25.1389

          k = 0.4281 0.4281 0.2173 (   802 PWs)   bands (ev):

     8.6245   9.6251   9.6700  10.6494  12.5083  12.5379  13.2675  13.4934
    13.7850  13.8354  17.3807  19.4642  21.7466  22.9041  23.5922

          k = 0.4281 0.4281 0.3259 (   812 PWs)   bands (ev):

     8.8340   9.6091   9.7260  11.5630  12.1225  12.1269  12.6502  13.3168
    13.7830  13.8025  18.7071  20.6854  21.3097  22.3199  23.4591

 ------ SPIN DOWN ----------


          k = 0.0000 0.0000 0.0000 (   821 PWs)   bands (ev):

     5.4853   8.6878   8.8647  11.3965  11.3965  12.5372  12.5695  13.3270
    13.8226  14.0765  14.0765  17.7900  24.0407  26.2199  26.2199

          k = 0.0000 0.0000 0.1086 (   810 PWs)   bands (ev):

     5.7377   8.7369   8.9616  11.4559  11.4559  12.4984  12.5830  13.2525
    13.7719  13.9086  13.9086  16.3990  25.8200  26.7090  26.7090

          k = 0.0000 0.0000 0.2173 (   790 PWs)   bands (ev):

     6.4183   8.8541   9.2176  11.6190  11.6190  12.3317  12.7036  13.0132
    13.5159  13.5159  13.6403  14.1598  28.0608  28.0608  29.2468

          k = 0.0000 0.0000 0.3259 (   810 PWs)   bands (ev):

     7.1657   8.9564   9.5383  11.8045  11.8045  12.0964  12.1898  12.8329
    13.1452  13.1584  13.1584  13.5022  30.0275  30.0275  31.1795

          k = 0.0000 0.1427 0.0000 (   801 PWs)   bands (ev):

     5.9746   8.9077   9.1810  11.1162  11.5186  12.3372  12.6410  13.3182
    13.4378  13.6126  13.9700  19.0662  22.9958  24.6488  27.0276

          k = 0.0000 0.1427 0.1086 (   806 PWs)   bands (ev):

     6.2181   8.9573   9.2721  11.1261  11.5297  12.3895  12.6028  13.2317
    13.2760  13.4618  13.9812  17.5802  23.6332  26.3173  27.4704

          k = 0.0000 0.1427 0.2173 (   806 PWs)   bands (ev):

     6.8748   9.0787   9.4742  11.1585  11.5916  12.4149  12.5302  12.7548
    13.1506  13.2987  13.8920  15.3620  24.8343  28.7183  29.5153

          k = 0.0000 0.1427 0.3259 (   805 PWs)   bands (ev):

     7.6082   9.2334   9.5128  11.3795  11.7081  12.0417  12.2653  12.4885
    13.2092  13.4143  13.6825  13.8273  26.3994  28.1617  30.5867

          k = 0.0000 0.2854 0.0000 (   796 PWs)   bands (ev):

     7.2204   9.3468  10.1199  10.4533  11.8468  11.8536  12.6325  12.7160
    13.2612  13.5158  13.6765  19.4129  21.6138  24.6279  29.1377

          k = 0.0000 0.2854 0.1086 (   799 PWs)   bands (ev):

     7.3966   9.3403  10.1987  10.5150  11.6011  12.0055  12.6051  12.6945
    13.1946  13.4639  13.8294  19.4052  19.9730  26.9428  28.5210

          k = 0.0000 0.2854 0.2173 (   803 PWs)   bands (ev):

     7.8314   9.2195  10.5467  10.6976  11.4410  11.8609  12.5265  12.6891
    13.3519  13.3669  13.9595  16.8842  20.8614  26.1691  30.4212

          k = 0.0000 0.2854 0.3259 (   801 PWs)   bands (ev):

     8.2763   8.9771  10.7347  11.3192  11.4336  11.6084  12.3742  12.6932
    13.5697  13.6580  13.8983  14.7580  22.2854  24.1461  31.7978

          k = 0.0000 0.4281 0.0000 (   806 PWs)   bands (ev):

     8.4254   9.9199   9.9386  10.8991  11.4593  12.2306  12.3856  12.4511
    13.0520  13.3200  14.2764  16.3790  24.5284  25.3272  27.8361

          k = 0.0000 0.4281 0.1086 (   800 PWs)   bands (ev):

     8.4621   9.4253  10.2021  11.3429  11.4427  12.0045  12.4577  12.5124
    13.2302  13.5223  14.2153  16.4540  21.9646  24.9663  28.6712

          k = 0.0000 0.4281 0.2173 (   795 PWs)   bands (ev):

     8.4997   8.9014  10.7488  11.1381  11.6496  12.3560  12.5866  12.7626
    13.5736  13.8241  14.0135  16.3904  19.6913  22.7682  31.9348

          k = 0.0000 0.4281 0.3259 (   794 PWs)   bands (ev):

     8.4790   8.6336  11.0088  11.3004  11.4276  12.6693  13.0246  13.6332
    13.7082  13.8481  13.9699  15.2457  19.1481  21.1805  32.8271

          k = 0.1427 0.1427 0.0000 (   807 PWs)   bands (ev):

     6.4604   9.2605   9.3421  11.0017  11.3618  12.0519  12.7501  13.0126
    13.3425  13.4411  14.0938  20.0110  23.2348  23.9623  25.3675

          k = 0.1427 0.1427 0.1086 (   799 PWs)   bands (ev):

     6.6999   9.3011   9.4377  11.0192  11.2840  12.0115  12.7282  12.9553
    13.3201  13.4943  13.9270  18.3876  24.1227  24.3895  26.8027

          k = 0.1427 0.1427 0.2173 (   799 PWs)   bands (ev):

     7.3504   9.3983   9.6149  11.0569  11.1848  11.8582  12.7039  12.8409
    13.3823  13.4710  13.5423  16.1385  25.2242  25.5192  29.7849

          k = 0.1427 0.1427 0.3259 (   801 PWs)   bands (ev):

     8.1190   9.4837   9.5291  11.0829  11.4075  11.8113  12.3445  12.7580
    13.1731  13.2264  13.8322  14.6080  26.5914  26.9553  28.3275

          k = 0.1427 0.2854 0.0000 (   798 PWs)   bands (ev):

     7.6770   9.6765  10.1287  10.3876  11.2604  11.6051  12.8449  12.8686
    13.2090  13.5153  13.9437  19.9407  22.2280  24.3367  26.2267

          k = 0.1427 0.2854 0.1086 (   795 PWs)   bands (ev):

     7.8633   9.6944  10.1848  10.4266  11.1704  11.5261  12.7945  13.0054
    13.2585  13.4964  13.8762  20.0775  20.3352  25.7946  27.4343

          k = 0.1427 0.2854 0.2173 (   794 PWs)   bands (ev):

     8.3239   9.5595  10.4782  10.6057  11.0685  11.3651  12.7262  12.9695
    13.2563  13.7315  13.7774  17.5315  21.3167  26.3232  27.0336

          k = 0.1427 0.2854 0.3259 (   800 PWs)   bands (ev):

     8.8266   9.2494  10.6024  10.9586  11.1744  11.4618  12.4379  12.8919
    13.2357  13.4907  14.3852  15.6146  22.7244  24.4669  27.9506

          k = 0.1427 0.4281 0.0000 (   800 PWs)   bands (ev):

     8.9294   9.8645  10.0723  10.1006  11.2002  11.9618  12.9246  13.1163
    13.1745  13.5750  14.2851  16.6656  25.0066  25.4165  27.2115

          k = 0.1427 0.4281 0.1086 (   798 PWs)   bands (ev):

     8.9622   9.5528  10.2207  10.3370  11.1797  12.0595  12.8009  12.8835
    13.5642  13.7095  14.2943  16.8579  22.2724  25.2388  28.0677

          k = 0.1427 0.4281 0.2173 (   798 PWs)   bands (ev):

     8.8688   9.3126  10.4517  10.7657  11.1252  12.3409  12.6701  12.8266
    13.7852  13.8202  14.5718  17.1916  19.9080  22.9852  28.7666

          k = 0.1427 0.4281 0.3259 (   796 PWs)   bands (ev):

     8.7023   9.2471  10.4640  11.0462  11.4268  12.6614  12.7205  12.8558
    13.6458  13.7265  15.3017  16.5143  19.3825  21.2976  29.4404

          k = 0.2854 0.2854 0.0000 (   790 PWs)   bands (ev):

     8.5419   9.7797  10.1861  10.3986  10.9033  11.6898  13.1849  13.1914
    13.2473  13.5686  14.1339  20.4095  22.1693  23.8290  25.6934

          k = 0.2854 0.2854 0.1086 (   792 PWs)   bands (ev):

     8.7098   9.9232  10.1956  10.3138  10.9024  11.5328  13.0838  13.2396
    13.3434  13.7817  13.9622  20.8966  21.2040  22.8380  27.8241

          k = 0.2854 0.2854 0.2173 (   802 PWs)   bands (ev):

     9.0761   9.9942  10.2201  10.5288  10.8966  11.3245  12.9335  13.2184
    13.2557  13.6302  14.4540  18.8549  22.1624  23.1327  26.9467

          k = 0.2854 0.2854 0.3259 (   802 PWs)   bands (ev):

     9.3370   9.8696  10.2439  10.8871  10.9693  11.5824  12.4626  13.1491
    13.1888  13.4132  15.2805  16.9936  23.8760  23.8819  25.2636

          k = 0.2854 0.4281 0.0000 (   791 PWs)   bands (ev):

     8.8570   9.7115   9.7156  10.1916  11.3937  12.8519  13.3870  13.5897
    13.6278  13.9989  14.3346  17.3155  23.6305  25.9822  26.3197

          k = 0.2854 0.4281 0.1086 (   799 PWs)   bands (ev):

     8.9172   9.6813   9.9530  10.1905  11.3260  12.6414  13.2097  13.3172
    13.8348  13.9332  14.8182  17.7461  22.8902  24.6036  25.7925

          k = 0.2854 0.4281 0.2173 (   798 PWs)   bands (ev):

     9.0476   9.5978  10.1986  10.5959  11.1709  12.3767  12.8818  13.2335
    13.7466  13.7826  15.7865  18.7420  20.7198  23.6533  24.8936

          k = 0.2854 0.4281 0.3259 (   797 PWs)   bands (ev):

     9.1627   9.4965  10.2425  10.8613  11.6142  12.2979  12.4437  13.1633
    13.5666  13.6882  16.8619  18.5936  20.2252  21.8724  25.6423

          k = 0.4281 0.4281 0.0000 (   796 PWs)   bands (ev):

     8.3135   9.5913   9.6115   9.7257  13.2547  13.6808  13.7737  13.7869
    14.0193  14.1664  15.0839  17.1713  21.6083  24.0145  26.4561

          k = 0.4281 0.4281 0.1086 (   798 PWs)   bands (ev):

     8.4032   9.6131   9.6182   9.9710  13.0348  13.2966  13.5944  13.6973
    13.7865  13.9740  16.0077  17.8908  21.6879  23.7528  25.1389

          k = 0.4281 0.4281 0.2173 (   802 PWs)   bands (ev):

     8.6245   9.6251   9.6700  10.6494  12.5083  12.5379  13.2675  13.4934
    13.7850  13.8354  17.3807  19.4642  21.7466  22.9041  23.5922

          k = 0.4281 0.4281 0.3259 (   812 PWs)   bands (ev):

     8.8340   9.6091   9.7260  11.5630  12.1225  12.1269  12.6502  13.3168
    13.7830  13.8025  18.7071  20.6854  21.3097  22.3199  23.4591

     the Fermi energy is    15.6406 ev

!    total energy              =    -154.73234264 Ry
     estimated scf accuracy    <          2.2E-10 Ry
     smearing contrib. (-TS)   =       0.00002931 Ry
     internal energy E=F+TS    =    -154.73237196 Ry

     The total energy is F=E-TS. E is the sum of the following terms:
     one-electron contribution =      -4.20271665 Ry
     hartree contribution      =      27.69604286 Ry
     xc contribution           =     -24.54848594 Ry
     ewald contribution        =    -153.67721222 Ry

     total magnetization       =    -0.00 Bohr mag/cell
     absolute magnetization    =     0.00 Bohr mag/cell

     convergence has been achieved in  10 iterations

     Forces acting on atoms (cartesian axes, Ry/au):

     atom    1 type  2   force =     0.00000000    0.00000000    0.00000000
     atom    2 type  1   force =     0.00000000    0.00000000    0.00000000
     The non-local contrib.  to forces
     atom    1 type  2   force =     0.00000000    0.00000000    0.00000000
     atom    2 type  1   force =     0.00000000    0.00000000    0.00000000
     The ionic contribution  to forces
     atom    1 type  2   force =     0.00000000    0.00000000   -0.00000000
     atom    2 type  1   force =     0.00000000    0.00000000    0.00000000
     The local contribution  to forces
     atom    1 type  2   force =     0.00000000    0.00000000   -0.00000000
     atom    2 type  1   force =     0.00000000    0.00000000   -0.00000000
     The core correction contribution to forces
     atom    1 type  2   force =     0.00000000    0.00000000    0.00000000
     atom    2 type  1   force =     0.00000000    0.00000000    0.00000000
     The Hubbard contrib.    to forces
     atom    1 type  2   force =     0.00000000    0.00000000    0.00000000
     atom    2 type  1   force =     0.00000000    0.00000000    0.00000000
     The SCF correction term to forces
     atom    1 type  2   force =     0.00000000    0.00000000    0.00000000
     atom    2 type  1   force =     0.00000000    0.00000000   -0.00000000

     Total force =     0.000000     Total SCF correction =     0.000000


     Computing stress (Cartesian axis) and pressure

          total   stress  (Ry/bohr**3)                   (kbar)     P=       -3.90
  -0.00003549   0.00000000   0.00000000           -5.22        0.00        0.00
   0.00000000  -0.00003549   0.00000000            0.00       -5.22        0.00
   0.00000000   0.00000000  -0.00000849            0.00        0.00       -1.25

     Energy error            =      1.9E-06 Ry
     Gradient error          =      0.0E+00 Ry/Bohr
     Cell gradient error     =      5.2E+00 kbar

     number of scf cycles    =   3
     number of bfgs steps    =   2

     enthalpy           old  =    -154.7323407561 Ry
     enthalpy           new  =    -154.7323426416 Ry

     CASE: enthalpy          _new < enthalpy          _old

     new trust radius        =       0.0014600383 bohr
     new conv_thr            =       0.0000000010 Ry

     new unit-cell volume =    187.96996 a.u.^3 (    27.85427 Ang^3 )
     density =     15.53052 g/cm^3

CELL_PARAMETERS (angstrom)
   2.767267789   0.000000000   0.000000000
   0.000000000   2.767267789   0.000000000
[...]

          k = 0.0000 0.2859 0.3256 (   801 PWs)   bands (ev):

     8.3004   9.0055  10.7675  11.3454  11.4782  11.6540  12.4076  12.7287
    13.6121  13.7000  13.9402  14.7978  22.3521  24.2082  31.8900

          k = 0.0000 0.4288 0.0000 (   806 PWs)   bands (ev):

     8.4551   9.9517   9.9623  10.9380  11.5001  12.2747  12.4195  12.4878
    13.0941  13.3627  14.3259  16.4440  24.5609  25.3508  27.8702

          k = 0.0000 0.4288 0.1085 (   800 PWs)   bands (ev):

     8.4905   9.4518  10.2342  11.3840  11.4794  12.0492  12.4926  12.5485
    13.2721  13.5644  14.2643  16.5167  21.9996  25.0081  28.6966

          k = 0.0000 0.4288 0.2171 (   795 PWs)   bands (ev):

     8.5265   8.9282  10.7791  11.1797  11.6952  12.3942  12.6210  12.8001
    13.6149  13.8655  14.0609  16.4426  19.7387  22.8173  31.9537

          k = 0.0000 0.4288 0.3256 (   794 PWs)   bands (ev):

     8.5062   8.6593  11.0505  11.3261  11.4739  12.7033  13.0673  13.6728
    13.7521  13.8888  14.0111  15.2860  19.2089  21.2332  32.9266

          k = 0.1429 0.1429 0.0000 (   807 PWs)   bands (ev):

     6.4888   9.2878   9.3705  11.0392  11.3978  12.0981  12.7847  13.0498
    13.3817  13.4836  14.1374  20.0336  23.2885  24.0418  25.4163

          k = 0.1429 0.1429 0.1085 (   799 PWs)   bands (ev):

     6.7277   9.3281   9.4658  11.0571  11.3205  12.0565  12.7633  12.9932
    13.3597  13.5355  13.9707  18.4147  24.1951  24.4680  26.8277

          k = 0.1429 0.1429 0.2171 (   799 PWs)   bands (ev):

     7.3766   9.4245   9.6424  11.0959  11.2202  11.9025  12.7404  12.8754
    13.4223  13.5134  13.5855  16.1727  25.3035  25.5953  29.8112

          k = 0.1429 0.1429 0.3256 (   801 PWs)   bands (ev):

     8.1430   9.5091   9.5579  11.1229  11.4380  11.8550  12.3780  12.7964
    13.2151  13.2659  13.8755  14.6494  26.6701  27.0272  28.4018

          k = 0.1429 0.2859 0.0000 (   798 PWs)   bands (ev):

     7.7087   9.7062  10.1630  10.4174  11.2954  11.6473  12.8839  12.9059
    13.2512  13.5571  13.9868  20.0117  22.2572  24.3733  26.2953

          k = 0.1429 0.2859 0.1085 (   795 PWs)   bands (ev):

     7.8942   9.7236  10.2185  10.4573  11.2071  11.5679  12.8309  13.0440
    13.3001  13.5386  13.9192  20.1122  20.4021  25.8685  27.4629

          k = 0.1429 0.2859 0.2171 (   794 PWs)   bands (ev):

     8.3529   9.5883  10.5112  10.6371  11.1069  11.4073  12.7613  13.0075
    13.2966  13.7737  13.8207  17.5674  21.3857  26.3890  27.1110

          k = 0.1429 0.2859 0.3256 (   800 PWs)   bands (ev):

     8.8544   9.2781  10.6349  10.9988  11.2118  11.4949  12.4726  12.9291
    13.2766  13.5321  14.4280  15.6557  22.7925  24.5313  28.0293

          k = 0.1429 0.4288 0.0000 (   800 PWs)   bands (ev):

     8.9629   9.8891  10.1043  10.1349  11.2352  12.0024  12.9655  13.1570
    13.2170  13.6171  14.3353  16.7306  25.0410  25.4451  27.2688

          k = 0.1429 0.4288 0.1085 (   798 PWs)   bands (ev):

     8.9937   9.5807  10.2539  10.3691  11.2166  12.1002  12.8395  12.9235
    13.6069  13.7527  14.3437  16.9208  22.3083  25.2830  28.1385

          k = 0.1429 0.4288 0.2171 (   798 PWs)   bands (ev):

     8.8974   9.3416  10.4859  10.7974  11.1659  12.3818  12.7065  12.8636
    13.8299  13.8652  14.6175  17.2459  19.9541  23.0354  28.8524

          k = 0.1429 0.4288 0.3256 (   796 PWs)   bands (ev):

     8.7306   9.2760  10.4993  11.0888  11.4546  12.7019  12.7564  12.8918
    13.6925  13.7706  15.3453  16.5566  19.4438  21.3510  29.5231

          k = 0.2859 0.2859 0.0000 (   790 PWs)   bands (ev):

     8.5746   9.8127  10.2175  10.4264  10.9409  11.7328  13.2273  13.2317
    13.2874  13.6114  14.1764  20.4788  22.2412  23.8624  25.7257

          k = 0.2859 0.2859 0.1085 (   792 PWs)   bands (ev):

     8.7416   9.9558  10.2278  10.3428  10.9398  11.5755  13.1237  13.2797
    13.3840  13.8249  14.0049  20.9650  21.2427  22.9107  27.8568

          k = 0.2859 0.2859 0.2171 (   802 PWs)   bands (ev):

     9.1065  10.0243  10.2543  10.5611  10.9334  11.3667  12.9706  13.2587
    13.2953  13.6727  14.4974  18.8924  22.2291  23.2108  27.0125

          k = 0.2859 0.2859 0.3256 (   802 PWs)   bands (ev):

     9.3680   9.8984  10.2799  10.9232  11.0066  11.6173  12.4979  13.1879
    13.2295  13.4548  15.3234  17.0357  23.9461  23.9508  25.3380

          k = 0.2859 0.4288 0.0000 (   791 PWs)   bands (ev):

     8.8852   9.7377   9.7517  10.2216  11.4339  12.8951  13.4311  13.6331
    13.6687  14.0407  14.3866  17.3796  23.7049  26.0196  26.3735

          k = 0.2859 0.4288 0.1085 (   799 PWs)   bands (ev):

     8.9451   9.7083   9.9883  10.2217  11.3662  12.6842  13.2506  13.3586
    13.8800  13.9775  14.8673  17.8087  22.9376  24.6735  25.8483

          k = 0.2859 0.4288 0.2171 (   798 PWs)   bands (ev):

     9.0756   9.6257  10.2321  10.6300  11.2103  12.4180  12.9196  13.2733
    13.7931  13.8275  15.8350  18.8016  20.7634  23.7079  24.9711

          k = 0.2859 0.4288 0.3256 (   797 PWs)   bands (ev):

     9.1926   9.5237  10.2788  10.8982  11.6475  12.3368  12.4801  13.2021
    13.6133  13.7324  16.9103  18.6390  20.2870  21.9294  25.7135

          k = 0.4288 0.4288 0.0000 (   796 PWs)   bands (ev):

     8.3376   9.6186   9.6383   9.7617  13.3050  13.7260  13.8190  13.8346
    14.0605  14.2080  15.1378  17.2312  21.6901  24.0959  26.4927

          k = 0.4288 0.4288 0.1085 (   798 PWs)   bands (ev):

     8.4271   9.6413   9.6458  10.0065  13.0818  13.3389  13.6390  13.7417
    13.8339  14.0199  16.0593  17.9488  21.7683  23.8279  25.1837

          k = 0.4288 0.4288 0.2171 (   802 PWs)   bands (ev):

     8.6478   9.6550   9.7005  10.6837  12.5507  12.5785  13.3095  13.5346
    13.8317  13.8860  17.4331  19.5206  21.8158  22.9643  23.6595

          k = 0.4288 0.4288 0.3256 (   812 PWs)   bands (ev):

     8.8566   9.6412   9.7589  11.5967  12.1622  12.1647  12.6892  13.3563
    13.8287  13.8552  18.7613  20.7373  21.3660  22.3877  23.5384

 ------ SPIN DOWN ----------


          k = 0.0000 0.0000 0.0000 (   821 PWs)   bands (ev):

     5.5101   8.7113   8.8899  11.4371  11.4371  12.5883  12.6022  13.3637
    13.8662  14.1207  14.1207  17.7987  24.0621  26.3083  26.3083

          k = 0.0000 0.0000 0.1085 (   810 PWs)   bands (ev):

     5.7618   8.7600   8.9865  11.4971  11.4971  12.5315  12.6340  13.2886
    13.8157  13.9529  13.9529  16.4126  25.8357  26.7965  26.7965

          k = 0.0000 0.0000 0.2171 (   790 PWs)   bands (ev):

     6.4404   8.8762   9.2422  11.6618  11.6618  12.3658  12.7542  13.0465
    13.5599  13.5599  13.6846  14.1802  28.1462  28.1462  29.2551

          k = 0.0000 0.0000 0.3256 (   810 PWs)   bands (ev):

     7.1849   8.9775   9.5632  11.8494  11.8494  12.1196  12.2248  12.8832
    13.1781  13.2013  13.2013  13.5469  30.1106  30.1106  31.2583

          k = 0.0000 0.1429 0.0000 (   801 PWs)   bands (ev):

     6.0010   8.9326   9.2085  11.1531  11.5597  12.3864  12.6746  13.3559
    13.4750  13.6554  14.0142  19.0844  23.0602  24.6844  27.1183

          k = 0.0000 0.1429 0.1085 (   806 PWs)   bands (ev):

     6.2439   8.9820   9.2991  11.1632  11.5717  12.4383  12.6367  13.2681
    13.3135  13.5053  14.0248  17.6036  23.7076  26.3367  27.5604

          k = 0.0000 0.1429 0.2171 (   806 PWs)   bands (ev):

     6.8988   9.1029   9.5005  11.1953  11.6353  12.4628  12.5652  12.7877
    13.1882  13.3426  13.9354  15.3936  24.9104  28.8064  29.5373

          k = 0.0000 0.1429 0.3256 (   805 PWs)   bands (ev):

     7.6295   9.2574   9.5398  11.4128  11.7535  12.0706  12.3124  12.5240
    13.2489  13.4581  13.7261  13.8665  26.4740  28.2338  30.6728

          k = 0.0000 0.2859 0.0000 (   796 PWs)   bands (ev):

     7.2500   9.3740  10.1547  10.4821  11.8891  11.8980  12.6679  12.7505
    13.3035  13.5571  13.7202  19.4833  21.6410  24.6483  29.2338

          k = 0.0000 0.2859 0.1085 (   799 PWs)   bands (ev):

     7.4253   9.3674  10.2326  10.5450  11.6449  12.0492  12.6396  12.7297
    13.2374  13.5050  13.8722  19.4481  20.0293  26.9608  28.5751

          k = 0.0000 0.2859 0.2171 (   803 PWs)   bands (ev):

     7.8579   9.2468  10.5796  10.7278  11.4854  11.9056  12.5603  12.7245
    13.3943  13.4083  14.0016  16.9192  20.9288  26.2281  30.5154

          k = 0.0000 0.2859 0.3256 (   801 PWs)   bands (ev):

     8.3004   9.0055  10.7675  11.3454  11.4782  11.6540  12.4076  12.7287
    13.6121  13.7000  13.9402  14.7978  22.3521  24.2082  31.8900

          k = 0.0000 0.4288 0.0000 (   806 PWs)   bands (ev):

     8.4551   9.9517   9.9623  10.9380  11.5001  12.2747  12.4195  12.4878
    13.0941  13.3627  14.3259  16.4440  24.5609  25.3508  27.8702

          k = 0.0000 0.4288 0.1085 (   800 PWs)   bands (ev):

     8.4905   9.4518  10.2342  11.3840  11.4794  12.0492  12.4926  12.5485
    13.2721  13.5644  14.2643  16.5167  21.9996  25.0081  28.6966

          k = 0.0000 0.4288 0.2171 (   795 PWs)   bands (ev):

     8.5265   8.9282  10.7791  11.1797  11.6952  12.3942  12.6210  12.8001
    13.6149  13.8655  14.0609  16.4426  19.7387  22.8173  31.9537

          k = 0.0000 0.4288 0.3256 (   794 PWs)   bands (ev):

     8.5062   8.6593  11.0505  11.3261  11.4739  12.7033  13.0673  13.6728
    13.7521  13.8888  14.0111  15.2860  19.2089  21.2332  32.9266

          k = 0.1429 0.1429 0.0000 (   807 PWs)   bands (ev):

     6.4888   9.2878   9.3705  11.0392  11.3978  12.0981  12.7847  13.0498
    13.3817  13.4836  14.1374  20.0336  23.2885  24.0418  25.4163

          k = 0.1429 0.1429 0.1085 (   799 PWs)   bands (ev):

     6.7277   9.3281   9.4658  11.0571  11.3205  12.0565  12.7633  12.9932
    13.3597  13.5355  13.9707  18.4147  24.1951  24.4680  26.8277

          k = 0.1429 0.1429 0.2171 (   799 PWs)   bands (ev):

     7.3766   9.4245   9.6424  11.0959  11.2202  11.9025  12.7404  12.8754
    13.4223  13.5134  13.5855  16.1727  25.3035  25.5953  29.8112

          k = 0.1429 0.1429 0.3256 (   801 PWs)   bands (ev):

     8.1430   9.5091   9.5579  11.1229  11.4380  11.8550  12.3780  12.7964
    13.2151  13.2659  13.8755  14.6494  26.6701  27.0272  28.4018

          k = 0.1429 0.2859 0.0000 (   798 PWs)   bands (ev):

     7.7087   9.7062  10.1630  10.4174  11.2954  11.6473  12.8839  12.9059
    13.2512  13.5571  13.9868  20.0117  22.2572  24.3733  26.2953

          k = 0.1429 0.2859 0.1085 (   795 PWs)   bands (ev):

     7.8942   9.7236  10.2185  10.4573  11.2071  11.5679  12.8309  13.0440
    13.3001  13.5386  13.9192  20.1122  20.4021  25.8685  27.4629

          k = 0.1429 0.2859 0.2171 (   794 PWs)   bands (ev):

     8.3529   9.5883  10.5112  10.6371  11.1069  11.4073  12.7613  13.0075
    13.2966  13.7737  13.8207  17.5674  21.3857  26.3890  27.1110

          k = 0.1429 0.2859 0.3256 (   800 PWs)   bands (ev):

     8.8544   9.2781  10.6349  10.9988  11.2118  11.4949  12.4726  12.9291
    13.2766  13.5321  14.4280  15.6557  22.7925  24.5313  28.0293

          k = 0.1429 0.4288 0.0000 (   800 PWs)   bands (ev):

     8.9629   9.8891  10.1043  10.1349  11.2352  12.0024  12.9655  13.1570
    13.2170  13.6171  14.3353  16.7306  25.0410  25.4451  27.2688

          k = 0.1429 0.4288 0.1085 (   798 PWs)   bands (ev):

     8.9937   9.5807  10.2539  10.3691  11.2166  12.1002  12.8395  12.9235
    13.6069  13.7527  14.3437  16.9208  22.3083  25.2830  28.1385

          k = 0.1429 0.4288 0.2171 (   798 PWs)   bands (ev):

     8.8974   9.3416  10.4859  10.7974  11.1659  12.3818  12.7065  12.8636
    13.8299  13.8652  14.6175  17.2459  19.9541  23.0354  28.8524

          k = 0.1429 0.4288 0.3256 (   796 PWs)   bands (ev):

     8.7306   9.2760  10.4993  11.0888  11.4546  12.7019  12.7564  12.8918
    13.6925  13.7706  15.3453  16.5566  19.4438  21.3510  29.5231

          k = 0.2859 0.2859 0.0000 (   790 PWs)   bands (ev):

     8.5746   9.8127  10.2175  10.4264  10.9409  11.7328  13.2273  13.2317
    13.2874  13.6114  14.1764  20.4788  22.2412  23.8624  25.7257

          k = 0.2859 0.2859 0.1085 (   792 PWs)   bands (ev):

     8.7416   9.9558  10.2278  10.3428  10.9398  11.5755  13.1237  13.2797
    13.3840  13.8249  14.0049  20.9650  21.2427  22.9107  27.8568

          k = 0.2859 0.2859 0.2171 (   802 PWs)   bands (ev):

     9.1065  10.0243  10.2543  10.5611  10.9334  11.3667  12.9706  13.2587
    13.2953  13.6727  14.4974  18.8924  22.2291  23.2108  27.0125

          k = 0.2859 0.2859 0.3256 (   802 PWs)   bands (ev):

     9.3680   9.8984  10.2799  10.9232  11.0066  11.6173  12.4979  13.1879
    13.2295  13.4548  15.3234  17.0357  23.9461  23.9508  25.3380

          k = 0.2859 0.4288 0.0000 (   791 PWs)   bands (ev):

     8.8852   9.7377   9.7517  10.2216  11.4339  12.8951  13.4311  13.6331
    13.6687  14.0407  14.3866  17.3796  23.7049  26.0196  26.3735

          k = 0.2859 0.4288 0.1085 (   799 PWs)   bands (ev):

     8.9451   9.7083   9.9883  10.2217  11.3662  12.6842  13.2506  13.3586
    13.8800  13.9775  14.8673  17.8087  22.9376  24.6735  25.8483

          k = 0.2859 0.4288 0.2171 (   798 PWs)   bands (ev):

     9.0756   9.6257  10.2321  10.6300  11.2103  12.4180  12.9196  13.2733
    13.7931  13.8275  15.8350  18.8016  20.7634  23.7079  24.9711

          k = 0.2859 0.4288 0.3256 (   797 PWs)   bands (ev):

     9.1926   9.5237  10.2788  10.8982  11.6475  12.3368  12.4801  13.2021
    13.6133  13.7324  16.9103  18.6390  20.2870  21.9294  25.7135

          k = 0.4288 0.4288 0.0000 (   796 PWs)   bands (ev):

     8.3376   9.6186   9.6383   9.7617  13.3050  13.7260  13.8190  13.8346
    14.0605  14.2080  15.1378  17.2312  21.6901  24.0959  26.4927

          k = 0.4288 0.4288 0.1085 (   798 PWs)   bands (ev):

     8.4271   9.6413   9.6458  10.0065  13.0818  13.3389  13.6390  13.7417
    13.8339  14.0199  16.0593  17.9488  21.7683  23.8279  25.1837

          k = 0.4288 0.4288 0.2171 (   802 PWs)   bands (ev):

     8.6478   9.6550   9.7005  10.6837  12.5507  12.5785  13.3095  13.5346
    13.8317  13.8860  17.4331  19.5206  21.8158  22.9643  23.6595

          k = 0.4288 0.4288 0.3256 (   812 PWs)   bands (ev):

     8.8566   9.6412   9.7589  11.5967  12.1622  12.1647  12.6892  13.3563
    13.8287  13.8552  18.7613  20.7373  21.3660  22.3877  23.5384

     the Fermi energy is    15.6842 ev

!    total energy              =    -154.73235069 Ry
     estimated scf accuracy    <          6.7E-12 Ry
     smearing contrib. (-TS)   =       0.00004428 Ry
     internal energy E=F+TS    =    -154.73239498 Ry

     The total energy is F=E-TS. E is the sum of the following terms:
     one-electron contribution =      -4.04776886 Ry
     hartree contribution      =      27.65059672 Ry
     xc contribution           =     -24.55162027 Ry
     ewald contribution        =    -153.78360257 Ry

     total magnetization       =    -0.00 Bohr mag/cell
     absolute magnetization    =     0.00 Bohr mag/cell

     convergence has been achieved in   3 iterations

     Forces acting on atoms (cartesian axes, Ry/au):

     atom    1 type  2   force =     0.00000000    0.00000000    0.00000000
     atom    2 type  1   force =     0.00000000    0.00000000    0.00000000
     The non-local contrib.  to forces
     atom    1 type  2   force =     0.00000000    0.00000000    0.00000000
     atom    2 type  1   force =     0.00000000    0.00000000    0.00000000
     The ionic contribution  to forces
     atom    1 type  2   force =     0.00000000    0.00000000   -0.00000000
     atom    2 type  1   force =     0.00000000   -0.00000000   -0.00000000
     The local contribution  to forces
     atom    1 type  2   force =     0.00000000    0.00000000    0.00000000
     atom    2 type  1   force =     0.00000000   -0.00000000   -0.00000000
     The core correction contribution to forces
     atom    1 type  2   force =     0.00000000    0.00000000    0.00000000
     atom    2 type  1   force =     0.00000000    0.00000000    0.00000000
     The Hubbard contrib.    to forces
     atom    1 type  2   force =     0.00000000    0.00000000    0.00000000
     atom    2 type  1   force =     0.00000000    0.00000000    0.00000000
     The SCF correction term to forces
     atom    1 type  2   force =     0.00000000   -0.00000000   -0.00000000
     atom    2 type  1   force =     0.00000000    0.00000000    0.00000000

     Total force =     0.000000     Total SCF correction =     0.000000


     Computing stress (Cartesian axis) and pressure

          total   stress  (Ry/bohr**3)                   (kbar)     P=        0.07
  -0.00000266   0.00000000   0.00000000           -0.39        0.00        0.00
   0.00000000  -0.00000266   0.00000000            0.00       -0.39        0.00
   0.00000000   0.00000000   0.00000682            0.00        0.00        1.00

     Message from routine bfgs:
     history already reset at previous step: exiting
     Energy error            =      1.4E-06 Ry
     Gradient error          =      0.0E+00 Ry/Bohr
     Cell gradient error     =      1.0E+00 kbar
Begin final coordinates
     new unit-cell volume =    187.75973 a.u.^3 (    27.82312 Ang^3 )
     density =     15.54791 g/cm^3

CELL_PARAMETERS (angstrom)
   2.764651030   0.000000000   0.000000000
   0.000000000   2.764651030   0.000000000
   0.000000000   0.000000000   3.640199760

ATOMIC_POSITIONS (angstrom)
Cu            0.0000000000        0.0000000000        0.0000000000
Au            1.3823255151        1.3823255151        1.8200998798
End final coordinates



     Writing config-only to output data dir /home/gridsan/epan1/labutil/lab3_samples/problem3/Lab3/CuAu_a_2.766_c_3.623_ecut_40_nk_7/pwscf.save/

     init_run     :      0.62s CPU      0.63s WALL (       1 calls)
     electrons    :     68.53s CPU     62.18s WALL (      12 calls)
     update_pot   :      1.92s CPU      1.86s WALL (      11 calls)
     forces       :      2.22s CPU      1.92s WALL (      12 calls)
     stress       :      5.97s CPU      5.20s WALL (      12 calls)

     Called by init_run:
     wfcinit      :      0.19s CPU      0.18s WALL (       1 calls)
     potinit      :      0.16s CPU      0.16s WALL (       1 calls)
     hinit0       :      0.26s CPU      0.27s WALL (       1 calls)

     Called by electrons:
     c_bands      :     55.51s CPU     50.85s WALL (      96 calls)
     sum_band     :     11.30s CPU      9.77s WALL (      96 calls)
     v_of_rho     :      0.26s CPU      0.26s WALL (     102 calls)
     newd         :      1.08s CPU      0.92s WALL (     102 calls)
     mix_rho      :      0.21s CPU      0.19s WALL (      96 calls)

     Called by c_bands:
     init_us_2    :      1.11s CPU      0.96s WALL (   17360 calls)
     init_us_2:cp :      1.08s CPU      0.94s WALL (   17360 calls)
     cegterg      :     49.76s CPU     43.67s WALL (    7680 calls)

     Called by *egterg:
     cdiaghg      :      8.80s CPU      7.78s WALL (   19964 calls)
     h_psi        :     34.56s CPU     30.25s WALL (   21404 calls)
     s_psi        :      0.55s CPU      0.48s WALL (   21404 calls)
     g_psi        :      0.15s CPU      0.13s WALL (   13644 calls)

     Called by h_psi:
     h_psi:calbec :      2.15s CPU      1.90s WALL (   21404 calls)
     vloc_psi     :     31.57s CPU     27.60s WALL (   21404 calls)
     add_vuspsi   :      0.59s CPU      0.53s WALL (   21404 calls)

     General routines
     calbec       :      3.41s CPU      2.96s WALL (   33884 calls)
     fft          :      0.51s CPU      0.47s WALL (    1157 calls)
     ffts         :      0.17s CPU      0.15s WALL (     396 calls)
     fftw         :     34.72s CPU     30.34s WALL (  656940 calls)
     interpolate  :      0.18s CPU      0.17s WALL (     204 calls)
     davcio       :      0.00s CPU      0.00s WALL (      80 calls)

     Parallel routines

     PWSCF        :   1m19.84s CPU   1m12.77s WALL


   This run was terminated on:  14:10:21   3Nov2023            

=------------------------------------------------------------------------------=
   JOB DONE.
=------------------------------------------------------------------------------=
