
     Program PWSCF v.7.2 starts on  1Nov2023 at 16:42:11 

     This program is part of the open-source Quantum ESPRESSO suite
     for quantum simulation of materials; please cite
         "P. Giannozzi et al., J. Phys.:Condens. Matter 21 395502 (2009);
         "P. Giannozzi et al., J. Phys.:Condens. Matter 29 465901 (2017);
         "P. Giannozzi et al., J. Chem. Phys. 152 154105 (2020);
          URL http://www.quantum-espresso.org", 
     in publications or presentations arising from this work. More details at
     http://www.quantum-espresso.org/quote

     Parallel version (MPI), running on     4 processors

     MPI processes distributed on     4 nodes
     185275 MiB available memory on the printing compute node when the environment starts

     Waiting for input...
     Reading input from standard input
Warning: card &CELL ignored
Warning: card / ignored

     Current dimensions of program PWSCF are:
     Max number of different atomic species (ntypx) = 10
     Max number of k-points (npk) =  40000
     Max angular momentum in pseudopotentials (lmaxx) =  4
     file Fe.pbe-nd-rrkjus.UPF: wavefunction(s)  4S renormalized
     Message from routine setup:
     using ibrav=0 with symmetry is DISCOURAGED, use correct ibrav instead

     R & G space division:  proc/nbgrp/npool/nimage =       4
     Subspace diagonalization in iterative solution of the eigenvalue problem:
     a serial algorithm will be used


     Parallelization info
     --------------------
     sticks:   dense  smooth     PW     G-vecs:    dense   smooth      PW
     Min         193      96     32                 3392     1188     233
     Max         194      97     33                 3394     1189     235
     Sum         773     387    129                13571     4753     935

     Using Slab Decomposition



     bravais-lattice index     =            0
     lattice parameter (alat)  =       6.5462  a.u.
     unit-cell volume          =     215.9467 (a.u.)^3
     number of atoms/cell      =            1
     number of atomic types    =            1
     number of electrons       =         8.00
     number of Kohn-Sham states=            8
     kinetic-energy cutoff     =      30.0000  Ry
     charge density cutoff     =     240.0000  Ry
     scf convergence threshold =      1.0E-07
     mixing beta               =       0.5000
     number of iterations used =            8  plain     mixing
     Exchange-correlation=  SLA  PW   PBE  PBE
                           (   1   4   3   4   0   0   0)

     celldm(1)=   6.546203  celldm(2)=   0.000000  celldm(3)=   0.000000
     celldm(4)=   0.000000  celldm(5)=   0.000000  celldm(6)=   0.000000

     crystal axes: (cart. coord. in units of alat)
               a(1) = (  -0.577350   0.577350   0.577350 )  
               a(2) = (   0.577350  -0.577350   0.577350 )  
               a(3) = (   0.577350   0.577350  -0.577350 )  

     reciprocal axes: (cart. coord. in units 2 pi/alat)
               b(1) = (  0.000000  0.866025  0.866025 )  
               b(2) = (  0.866025  0.000000  0.866025 )  
               b(3) = (  0.866025  0.866025  0.000000 )  


     PseudoPot. # 1 for Fe read from file:
     /home/gridsan/epan1/labutil/lab3_samples/pseudopotentials/Fe.pbe-nd-rrkjus.UPF
     MD5 check sum: 398036227a04b607635f6f5e8dfd8242
     Pseudo is Ultrasoft + core correction, Zval =  8.0
     Generated by new atomic code, or converted to UPF format
     Using radial grid of  957 points,  6 beta functions with: 
                l(1) =   0
                l(2) =   0
                l(3) =   1
                l(4) =   1
                l(5) =   2
                l(6) =   2
     Q(r) pseudized with 0 coefficients 


     atomic species   valence    mass     pseudopotential
        Fe             8.00    55.84500     Fe( 1.00)

     Starting magnetic structure 
     atomic species   magnetization
        Fe           0.700

     48 Sym. Ops., with inversion, found



   Cartesian axes

     site n.     atom                  positions (alat units)
         1           Fe  tau(   1) = (   0.0000000   0.0000000   0.0000000  )

     number of k points=    20  Methfessel-Paxton smearing, width (Ry)=  0.0200
                       cart. coord. in units 2pi/alat
        k(    1) = (   0.0000000   0.0000000   0.0000000), wk =   0.0029155
        k(    2) = (   0.1237179   0.1237179   0.0000000), wk =   0.0349854
        k(    3) = (   0.2474358   0.2474358   0.0000000), wk =   0.0349854
        k(    4) = (   0.3711537   0.3711537   0.0000000), wk =   0.0349854
        k(    5) = (   0.2474358   0.1237179   0.1237179), wk =   0.0699708
        k(    6) = (   0.3711537   0.2474358   0.1237179), wk =   0.1399417
        k(    7) = (   0.4948717   0.3711537   0.1237179), wk =   0.0699708
        k(    8) = (   0.4948717   0.2474358   0.2474358), wk =   0.0699708
        k(    9) = (   0.2474358   0.2474358   0.2474358), wk =   0.0233236
        k(   10) = (   0.3711537   0.3711537   0.2474358), wk =   0.0699708
        k(   11) = (  -0.0000000  -0.0000000   0.2474358), wk =   0.0174927
        k(   12) = (   0.4948717   0.3711537   0.3711537), wk =   0.0233236
        k(   13) = (   0.0000000  -0.1237179   0.3711537), wk =   0.0699708
        k(   14) = (  -0.0000000  -0.2474358   0.4948717), wk =   0.0699708
        k(   15) = (   0.1237179  -0.1237179   0.4948717), wk =   0.0699708
        k(   16) = (  -0.7423075  -0.2474358  -0.2474358), wk =   0.0699708
        k(   17) = (   0.0000000   0.0000000   0.4948717), wk =   0.0174927
        k(   18) = (  -0.0000000  -0.1237179   0.6185896), wk =   0.0699708
        k(   19) = (  -0.7423075  -0.1237179  -0.1237179), wk =   0.0233236
        k(   20) = (  -0.0000000  -0.0000000   0.7423075), wk =   0.0174927

     Dense  grid:    13571 G-vectors     FFT dimensions: (  36,  36,  36)

     Smooth grid:     4753 G-vectors     FFT dimensions: (  24,  24,  24)

     Estimated max dynamical RAM per process >      16.19 MB

     Estimated total dynamical RAM >      64.76 MB

     Check: negative core charge=   -0.000007
     Generating pointlists ...
     new r_m :   0.4125 (alat units)  2.7003 (a.u.) for type    1

     Initial potential from superposition of free atoms

     starting charge       7.9994, renormalised to       8.0000
     Starting wfcs are    6 randomized atomic wfcs +    2 random wfcs

     total cpu time spent up to now is        0.8 secs

     Self-consistent Calculation

     iteration #  1     ecut=    30.00 Ry     beta= 0.50
     Davidson diagonalization with overlap
     ethr =  1.00E-02,  avg # of iterations =  5.4

     total cpu time spent up to now is        1.0 secs

     total energy              =     -55.33530298 Ry
     estimated scf accuracy    <       0.54806760 Ry

     total magnetization       =     4.44 Bohr mag/cell
     absolute magnetization    =     4.44 Bohr mag/cell

     iteration #  2     ecut=    30.00 Ry     beta= 0.50
     Davidson diagonalization with overlap
     ethr =  6.85E-03,  avg # of iterations =  2.0

     total cpu time spent up to now is        1.3 secs

     total energy              =     -55.48764759 Ry
     estimated scf accuracy    <       0.86020230 Ry

     total magnetization       =     2.81 Bohr mag/cell
     absolute magnetization    =     2.81 Bohr mag/cell

     iteration #  3     ecut=    30.00 Ry     beta= 0.50
     Davidson diagonalization with overlap
     ethr =  6.85E-03,  avg # of iterations =  1.1

     total cpu time spent up to now is        1.5 secs

     total energy              =     -55.59341435 Ry
     estimated scf accuracy    <       0.01169220 Ry

     total magnetization       =     3.54 Bohr mag/cell
     absolute magnetization    =     3.57 Bohr mag/cell

     iteration #  4     ecut=    30.00 Ry     beta= 0.50
     Davidson diagonalization with overlap
     ethr =  1.46E-04,  avg # of iterations =  3.6

     total cpu time spent up to now is        1.8 secs

     total energy              =     -55.60170177 Ry
     estimated scf accuracy    <       0.00304733 Ry

     total magnetization       =     3.41 Bohr mag/cell
     absolute magnetization    =     3.58 Bohr mag/cell

     iteration #  5     ecut=    30.00 Ry     beta= 0.50
     Davidson diagonalization with overlap
     ethr =  3.81E-05,  avg # of iterations =  2.0

     total cpu time spent up to now is        2.0 secs

     total energy              =     -55.60484092 Ry
     estimated scf accuracy    <       0.00145106 Ry

     total magnetization       =     3.20 Bohr mag/cell
     absolute magnetization    =     3.49 Bohr mag/cell

     iteration #  6     ecut=    30.00 Ry     beta= 0.50
     Davidson diagonalization with overlap
     ethr =  1.81E-05,  avg # of iterations =  1.4

     total cpu time spent up to now is        2.2 secs

     total energy              =     -55.60487187 Ry
     estimated scf accuracy    <       0.00041399 Ry

     total magnetization       =     3.22 Bohr mag/cell
     absolute magnetization    =     3.51 Bohr mag/cell

     iteration #  7     ecut=    30.00 Ry     beta= 0.50
     Davidson diagonalization with overlap
     ethr =  5.17E-06,  avg # of iterations =  3.0

     total cpu time spent up to now is        2.4 secs

     total energy              =     -55.60507469 Ry
     estimated scf accuracy    <       0.00008210 Ry

     total magnetization       =     3.22 Bohr mag/cell
     absolute magnetization    =     3.52 Bohr mag/cell

     iteration #  8     ecut=    30.00 Ry     beta= 0.50
     Davidson diagonalization with overlap
     ethr =  1.03E-06,  avg # of iterations =  2.9

     total cpu time spent up to now is        2.7 secs

     total energy              =     -55.60511893 Ry
     estimated scf accuracy    <       0.00000789 Ry

     total magnetization       =     3.23 Bohr mag/cell
     absolute magnetization    =     3.52 Bohr mag/cell

     iteration #  9     ecut=    30.00 Ry     beta= 0.50
     Davidson diagonalization with overlap
     ethr =  9.86E-08,  avg # of iterations =  3.6

     total cpu time spent up to now is        2.9 secs

     total energy              =     -55.60513251 Ry
     estimated scf accuracy    <       0.00000115 Ry

     total magnetization       =     3.24 Bohr mag/cell
     absolute magnetization    =     3.52 Bohr mag/cell

     iteration # 10     ecut=    30.00 Ry     beta= 0.50
     Davidson diagonalization with overlap
     ethr =  1.43E-08,  avg # of iterations =  4.2

     total cpu time spent up to now is        3.2 secs

     total energy              =     -55.60513624 Ry
     estimated scf accuracy    <       0.00000021 Ry

     total magnetization       =     3.24 Bohr mag/cell
     absolute magnetization    =     3.52 Bohr mag/cell

     iteration # 11     ecut=    30.00 Ry     beta= 0.50
     Davidson diagonalization with overlap
     ethr =  2.67E-09,  avg # of iterations =  4.1

     Magnetic moment per site  (integrated on atomic sphere of radius R)
     atom   1 (R=0.413)  charge=  7.0819  magn=  3.3668

     total cpu time spent up to now is        3.5 secs

     End of self-consistent calculation

 ------ SPIN UP ------------


          k = 0.0000 0.0000 0.0000 (   603 PWs)   bands (ev):

    -1.7839  -0.0940  -0.0940  -0.0713  -0.0713  -0.0713  15.5352  15.5352

          k = 0.1237 0.1237 0.0000 (   601 PWs)   bands (ev):

    -1.3948  -0.1327  -0.1023  -0.0923  -0.0433   0.0115  12.5676  14.1182

          k = 0.2474 0.2474 0.0000 (   599 PWs)   bands (ev):

    -0.5935  -0.1715  -0.0865  -0.0806   0.2078   0.2624   8.4615  12.4012

          k = 0.3712 0.3712 0.0000 (   596 PWs)   bands (ev):

    -0.5391  -0.2266  -0.0799   0.0010   0.3772   2.1085   4.9231  11.4218

          k = 0.2474 0.1237 0.1237 (   607 PWs)   bands (ev):

    -0.7216  -0.2077  -0.1118  -0.0576  -0.0346   0.2414  10.3543  11.1574

          k = 0.3712 0.2474 0.1237 (   601 PWs)   bands (ev):

    -0.4266  -0.2224  -0.1081   0.0001   0.1941   1.3703   6.8554   9.6200

          k = 0.4949 0.3712 0.1237 (   604 PWs)   bands (ev):

    -0.4680  -0.2175  -0.1197   0.0192   0.3166   3.6957   3.7478   9.1696

          k = 0.4949 0.2474 0.2474 (   594 PWs)   bands (ev):

    -0.2976  -0.2910  -0.1688   0.0870   0.1877   3.3141   5.7640   6.5161

          k = 0.2474 0.2474 0.2474 (   610 PWs)   bands (ev):

    -0.2271  -0.2271  -0.1634  -0.0408  -0.0408   1.0880   8.4142   9.7141

          k = 0.3712 0.3712 0.2474 (   594 PWs)   bands (ev):

    -0.3118  -0.2180  -0.0694  -0.0066   0.0900   2.9487   5.6467   8.1923

          k =-0.0000-0.0000 0.2474 (   603 PWs)   bands (ev):

    -1.0273  -0.1866  -0.0439  -0.0439  -0.0352   0.0109  12.6550  12.6735

          k = 0.4949 0.3712 0.3712 (   589 PWs)   bands (ev):

    -0.2194  -0.1425  -0.1425   0.0066   0.0066   4.5868   5.7015   5.7015

          k = 0.0000-0.1237 0.3712 (   598 PWs)   bands (ev):

    -0.4476  -0.2642  -0.0840   0.0008   0.1934   0.5584   8.8001  11.0269

          k =-0.0000-0.2474 0.4949 (   600 PWs)   bands (ev):

    -0.4804  -0.2280  -0.1301   0.0214   0.3677   2.4988   5.2983  10.1116

          k = 0.1237-0.1237 0.4949 (   596 PWs)   bands (ev):

    -0.3829  -0.3616  -0.0811   0.1011   0.2697   2.0875   7.2956   8.0206

          k =-0.7423-0.2474-0.2474 (   592 PWs)   bands (ev):

    -0.4364  -0.3392  -0.1146   0.1501   0.3294   4.2635   4.6807   7.3034

          k = 0.0000 0.0000 0.4949 (   595 PWs)   bands (ev):

    -0.4104  -0.4038   0.0962   0.0962   0.1937   1.6419   9.4050   9.4050

          k =-0.0000-0.1237 0.6186 (   607 PWs)   bands (ev):

    -0.5072  -0.4578   0.1064   0.1669   0.3464   3.6047   6.3907   8.4797

          k =-0.7423-0.1237-0.1237 (   604 PWs)   bands (ev):

    -0.5340  -0.5340   0.1297   0.3211   0.3211   5.3993   6.2536   6.2537

          k =-0.0000-0.0000 0.7423 (   602 PWs)   bands (ev):

    -0.6045  -0.5941   0.3147   0.3147   0.3371   5.4283   7.5276   7.5277

 ------ SPIN DOWN ----------


          k = 0.0000 0.0000 0.0000 (   603 PWs)   bands (ev):

    -1.6485   3.0135   3.0135   3.0135   3.8426   3.8426  16.5156  16.5159

          k = 0.1237 0.1237 0.0000 (   601 PWs)   bands (ev):

    -1.2514   2.9538   3.0020   3.1338   3.7869   3.8470  13.1306  14.8858

          k = 0.2474 0.2474 0.0000 (   599 PWs)   bands (ev):

    -0.1092   2.8221   2.9474   3.4304   3.7181   3.8636   9.0363  13.0084

          k = 0.3712 0.3712 0.0000 (   596 PWs)   bands (ev):

     1.3910   2.7185   3.0535   3.7025   3.7129   3.8839   5.8246  11.9100

          k = 0.2474 0.1237 0.1237 (   607 PWs)   bands (ev):

    -0.4781   2.8865   2.9180   3.3669   3.7149   3.8674  10.9701  11.5507

          k = 0.3712 0.2474 0.1237 (   601 PWs)   bands (ev):

     0.9227   2.7654   2.8463   3.6911   3.7143   3.9160   7.4808  10.0856

          k = 0.4949 0.3712 0.1237 (   604 PWs)   bands (ev):

     1.9179   2.7096   2.9451   3.7089   3.8227   4.3935   5.1577   9.6220

          k = 0.4949 0.2474 0.2474 (   594 PWs)   bands (ev):

     2.1329   2.6989   2.7506   3.7150   3.7910   4.6344   6.4132   7.1015

          k = 0.2474 0.2474 0.2474 (   610 PWs)   bands (ev):

     0.6044   2.7487   2.7487   3.7609   3.8235   3.8235   9.0161  10.1170

          k = 0.3712 0.3712 0.2474 (   594 PWs)   bands (ev):

     1.9512   2.6414   2.6900   3.8145   3.8854   4.4190   6.3038   8.6842

          k =-0.0000-0.0000 0.2474 (   603 PWs)   bands (ev):

    -0.8585   3.0183   3.0183   3.1399   3.6432   3.8986  13.2215  13.2225

          k = 0.4949 0.3712 0.3712 (   589 PWs)   bands (ev):

     2.4850   2.6111   2.6111   3.8737   3.8737   5.5002   6.3158   6.3158

          k = 0.0000-0.1237 0.3712 (   598 PWs)   bands (ev):

     0.2669   2.9405   2.9994   3.4078   3.5134   3.9186   9.3627  11.5254

          k =-0.0000-0.2474 0.4949 (   600 PWs)   bands (ev):

     1.7159   2.8543   2.9498   3.5606   3.6875   4.1319   6.0918  10.5376

          k = 0.1237-0.1237 0.4949 (   596 PWs)   bands (ev):

     1.5636   2.8915   2.9750   3.4624   3.6269   4.0848   7.8877   8.5196

          k =-0.7423-0.2474-0.2474 (   592 PWs)   bands (ev):

     2.4218   2.8114   2.8861   3.5332   3.6882   5.3241   5.4005   7.8195

          k = 0.0000 0.0000 0.4949 (   595 PWs)   bands (ev):

     1.3029   3.1515   3.1823   3.1823   3.4222   3.9729   9.8270   9.8272

          k =-0.0000-0.1237 0.6186 (   607 PWs)   bands (ev):

     2.4083   2.8533   3.2138   3.3633   3.6542   4.6645   6.9603   8.8095

          k =-0.7423-0.1237-0.1237 (   604 PWs)   bands (ev):

     2.7390   2.7390   3.1891   3.6089   3.6089   6.1649   6.6922   6.6922

          k =-0.0000-0.0000 0.7423 (   602 PWs)   bands (ev):

     2.6459   2.7254   3.5780   3.5780   3.6445   5.9626   7.7176   7.7176

     the Fermi energy is     2.9506 ev

!    total energy              =     -55.60513776 Ry
     estimated scf accuracy    <       0.00000006 Ry
     smearing contrib. (-TS)   =      -0.00185680 Ry
     internal energy E=F+TS    =     -55.60328096 Ry

     The total energy is F=E-TS. E is the sum of the following terms:
     one-electron contribution =     -11.23893701 Ry
     hartree contribution      =      12.67423961 Ry
     xc contribution           =     -26.22579305 Ry
     ewald contribution        =     -30.81279051 Ry

     total magnetization       =     3.24 Bohr mag/cell
     absolute magnetization    =     3.52 Bohr mag/cell

     convergence has been achieved in  11 iterations

     Forces acting on atoms (cartesian axes, Ry/au):

     atom    1 type  1   force =     0.00000000    0.00000000    0.00000000
     The non-local contrib.  to forces
     atom    1 type  1   force =     0.00000000    0.00000000    0.00000000
     The ionic contribution  to forces
     atom    1 type  1   force =    -0.00000000   -0.00000000   -0.00000000
     The local contribution  to forces
     atom    1 type  1   force =     0.00000000    0.00000000    0.00000000
     The core correction contribution to forces
     atom    1 type  1   force =     0.00000000    0.00000000    0.00000000
     The Hubbard contrib.    to forces
     atom    1 type  1   force =     0.00000000    0.00000000    0.00000000
     The SCF correction term to forces
     atom    1 type  1   force =     0.00000000    0.00000000   -0.00000000

     Total force =     0.000000     Total SCF correction =     0.000000


     Computing stress (Cartesian axis) and pressure

          total   stress  (Ry/bohr**3)                   (kbar)     P=     -166.54
  -0.00113209   0.00000000  -0.00000000         -166.54        0.00       -0.00
  -0.00000000  -0.00113209  -0.00000000           -0.00     -166.54       -0.00
  -0.00000000   0.00000000  -0.00113209           -0.00        0.00     -166.54


     init_run     :      0.45s CPU      0.43s WALL (       1 calls)
     electrons    :      2.74s CPU      2.71s WALL (       1 calls)
     forces       :      0.05s CPU      0.05s WALL (       1 calls)
     stress       :      0.22s CPU      0.20s WALL (       1 calls)

     Called by init_run:
     wfcinit      :      0.08s CPU      0.07s WALL (       1 calls)
     potinit      :      0.13s CPU      0.13s WALL (       1 calls)
     hinit0       :      0.21s CPU      0.21s WALL (       1 calls)

     Called by electrons:
     c_bands      :      1.89s CPU      1.98s WALL (      11 calls)
     sum_band     :      0.52s CPU      0.42s WALL (      11 calls)
     v_of_rho     :      0.20s CPU      0.19s WALL (      12 calls)
     newd         :      0.12s CPU      0.10s WALL (      12 calls)
     mix_rho      :      0.02s CPU      0.02s WALL (      11 calls)

     Called by c_bands:
     init_us_2    :      0.06s CPU      0.06s WALL (    1000 calls)
     init_us_2:cp :      0.06s CPU      0.06s WALL (    1000 calls)
     cegterg      :      1.70s CPU      1.69s WALL (     440 calls)

     Called by *egterg:
     cdiaghg      :      0.19s CPU      0.19s WALL (    1767 calls)
     h_psi        :      1.33s CPU      1.32s WALL (    1807 calls)
     s_psi        :      0.03s CPU      0.03s WALL (    1807 calls)
     g_psi        :      0.01s CPU      0.01s WALL (    1327 calls)

     Called by h_psi:
     h_psi:calbec :      0.07s CPU      0.07s WALL (    1807 calls)
     vloc_psi     :      1.22s CPU      1.21s WALL (    1807 calls)
     add_vuspsi   :      0.02s CPU      0.02s WALL (    1807 calls)

     General routines
     calbec       :      0.09s CPU      0.10s WALL (    2447 calls)
     fft          :      0.25s CPU      0.23s WALL (     338 calls)
     ffts         :      0.12s CPU      0.12s WALL (      46 calls)
     fftw         :      1.22s CPU      1.22s WALL (   22072 calls)
     interpolate  :      0.13s CPU      0.13s WALL (      24 calls)

     Parallel routines

     PWSCF        :      3.63s CPU      3.74s WALL


   This run was terminated on:  16:42:14   1Nov2023            

=------------------------------------------------------------------------------=
   JOB DONE.
=------------------------------------------------------------------------------=
