Header of the LAMMPS data file 

4 atoms 
1 atom types

0.0 4.08421052631579  xlo xhi
0.0 4.08421052631579  ylo yhi
0.0 4.08421052631579  zlo zhi

Masses 

1  107.8682

Atoms # atomic 

1 1 0.00000 0.00000 0.00000 
2 1 0.00000 2.04211 2.04211 
3 1 2.04211 0.00000 2.04211 
4 1 2.04211 2.04211 0.00000 
