
     Program PWSCF v.7.2 starts on  3Nov2023 at 11: 7:37 

     This program is part of the open-source Quantum ESPRESSO suite
     for quantum simulation of materials; please cite
         "P. Giannozzi et al., J. Phys.:Condens. Matter 21 395502 (2009);
         "P. Giannozzi et al., J. Phys.:Condens. Matter 29 465901 (2017);
         "P. Giannozzi et al., J. Chem. Phys. 152 154105 (2020);
          URL http://www.quantum-espresso.org", 
     in publications or presentations arising from this work. More details at
     http://www.quantum-espresso.org/quote

     Parallel version (MPI), running on     8 processors

     MPI processes distributed on     8 nodes
     185434 MiB available memory on the printing compute node when the environment starts

     Waiting for input...
     Reading input from standard input

     Current dimensions of program PWSCF are:
     Max number of different atomic species (ntypx) = 10
     Max number of k-points (npk) =  40000
     Max angular momentum in pseudopotentials (lmaxx) =  4
     Message from routine setup:
     using ibrav=0 with symmetry is DISCOURAGED, use correct ibrav instead

     R & G space division:  proc/nbgrp/npool/nimage =       8
     Subspace diagonalization in iterative solution of the eigenvalue problem:
     a serial algorithm will be used


     Parallelization info
     --------------------
     sticks:   dense  smooth     PW     G-vecs:    dense   smooth      PW
     Min          79      39     13                 1301      461      90
     Max          80      40     14                 1303      463      91
     Sum         637     313    109                10417     3695     725

     Using Slab Decomposition



     bravais-lattice index     =            0
     lattice parameter (alat)  =       5.3450  a.u.
     unit-cell volume          =     107.9734 (a.u.)^3
     number of atoms/cell      =            1
     number of atomic types    =            1
     number of electrons       =        11.00
     number of Kohn-Sham states=           10
     kinetic-energy cutoff     =      40.0000  Ry
     charge density cutoff     =     320.0000  Ry
     scf convergence threshold =      1.0E-07
     mixing beta               =       0.5000
     number of iterations used =            8  plain     mixing
     energy convergence thresh.=      1.0E-04
     force convergence thresh. =      1.0E-03
     press convergence thresh. =      5.0E-01
     Exchange-correlation=  SLA  PZ   NOGX NOGC
                           (   1   1   0   0   0   0   0)
     nstep                     =           50


     celldm(1)=   5.344953  celldm(2)=   0.000000  celldm(3)=   0.000000
     celldm(4)=   0.000000  celldm(5)=   0.000000  celldm(6)=   0.000000

     crystal axes: (cart. coord. in units of alat)
               a(1) = (   0.000000   0.707107   0.707107 )  
               a(2) = (   0.707107   0.000000   0.707107 )  
               a(3) = (   0.707107   0.707107   0.000000 )  

     reciprocal axes: (cart. coord. in units 2 pi/alat)
               b(1) = ( -0.707107  0.707107  0.707107 )  
               b(2) = (  0.707107 -0.707107  0.707107 )  
               b(3) = (  0.707107  0.707107 -0.707107 )  


     PseudoPot. # 1 for Au read from file:
     /home/gridsan/epan1/labutil/lab3_samples/pseudopotentials/Au.pz-d-rrkjus.UPF
     MD5 check sum: 424ffd4ac9c90487cbadcd287136c95b
     Pseudo is Ultrasoft, Zval = 11.0
     Generated by new atomic code, or converted to UPF format
     Using radial grid of 1279 points,  3 beta functions with: 
                l(1) =   2
                l(2) =   2
                l(3) =   1
     Q(r) pseudized with 0 coefficients 


     atomic species   valence    mass     pseudopotential
        Au            11.00   196.96657     Au( 1.00)

     Starting magnetic structure 
     atomic species   magnetization
        Au           0.700

     48 Sym. Ops., with inversion, found



   Cartesian axes

     site n.     atom                  positions (alat units)
         1           Au  tau(   1) = (   0.0000000   0.0000000   0.0000000  )

     number of k points=    47  Methfessel-Paxton smearing, width (Ry)=  0.0200
                       cart. coord. in units 2pi/alat
        k(    1) = (   0.0000000   0.0000000   0.0000000), wk =   0.0010000
        k(    2) = (   0.0707107   0.0707107  -0.0707107), wk =   0.0080000
        k(    3) = (   0.1414214   0.1414214  -0.1414214), wk =   0.0080000
        k(    4) = (   0.2121320   0.2121320  -0.2121320), wk =   0.0080000
        k(    5) = (   0.2828427   0.2828427  -0.2828427), wk =   0.0080000
        k(    6) = (  -0.3535534  -0.3535534   0.3535534), wk =   0.0040000
        k(    7) = (   0.1414214   0.0000000   0.0000000), wk =   0.0060000
        k(    8) = (   0.2121320   0.0707107  -0.0707107), wk =   0.0240000
        k(    9) = (   0.2828427   0.1414214  -0.1414214), wk =   0.0240000
        k(   10) = (   0.3535534   0.2121320  -0.2121320), wk =   0.0240000
        k(   11) = (  -0.2828427  -0.4242641   0.4242641), wk =   0.0240000
        k(   12) = (  -0.2121320  -0.3535534   0.3535534), wk =   0.0240000
        k(   13) = (  -0.1414214  -0.2828427   0.2828427), wk =   0.0240000
        k(   14) = (  -0.0707107  -0.2121320   0.2121320), wk =   0.0240000
        k(   15) = (   0.0000000  -0.1414214   0.1414214), wk =   0.0120000
        k(   16) = (   0.2828427   0.0000000   0.0000000), wk =   0.0060000
        k(   17) = (   0.3535534   0.0707107  -0.0707107), wk =   0.0240000
        k(   18) = (   0.4242641   0.1414214  -0.1414214), wk =   0.0240000
        k(   19) = (  -0.2121320  -0.4949747   0.4949747), wk =   0.0240000
        k(   20) = (  -0.1414214  -0.4242641   0.4242641), wk =   0.0240000
        k(   21) = (  -0.0707107  -0.3535534   0.3535534), wk =   0.0240000
        k(   22) = (   0.0000000  -0.2828427   0.2828427), wk =   0.0120000
        k(   23) = (   0.4242641   0.0000000   0.0000000), wk =   0.0060000
        k(   24) = (   0.4949747   0.0707107  -0.0707107), wk =   0.0240000
        k(   25) = (  -0.1414214  -0.5656854   0.5656854), wk =   0.0240000
        k(   26) = (  -0.0707107  -0.4949747   0.4949747), wk =   0.0240000
        k(   27) = (  -0.0000000  -0.4242641   0.4242641), wk =   0.0120000
        k(   28) = (   0.5656854   0.0000000   0.0000000), wk =   0.0060000
        k(   29) = (  -0.0707107  -0.6363961   0.6363961), wk =   0.0240000
        k(   30) = (   0.0000000  -0.5656854   0.5656854), wk =   0.0120000
        k(   31) = (  -0.7071068   0.0000000   0.0000000), wk =   0.0030000
        k(   32) = (   0.2828427   0.1414214   0.0000000), wk =   0.0240000
        k(   33) = (   0.3535534   0.2121320  -0.0707107), wk =   0.0480000
        k(   34) = (  -0.2828427  -0.4242641   0.5656854), wk =   0.0480000
        k(   35) = (  -0.2121320  -0.3535534   0.4949747), wk =   0.0240000
        k(   36) = (   0.4242641   0.1414214  -0.0000000), wk =   0.0240000
        k(   37) = (  -0.2121320  -0.4949747   0.6363961), wk =   0.0480000
        k(   38) = (  -0.1414214  -0.4242641   0.5656854), wk =   0.0480000
        k(   39) = (  -0.0707107  -0.3535534   0.4949747), wk =   0.0480000
        k(   40) = (   0.0000000  -0.2828427   0.4242641), wk =   0.0240000
        k(   41) = (  -0.1414214  -0.5656854   0.7071068), wk =   0.0240000
        k(   42) = (  -0.0707107  -0.4949747   0.6363961), wk =   0.0480000
        k(   43) = (  -0.0000000  -0.4242641   0.5656854), wk =   0.0240000
        k(   44) = (  -0.7071068   0.1414214   0.0000000), wk =   0.0120000
        k(   45) = (  -0.1414214  -0.4242641   0.7071068), wk =   0.0240000
        k(   46) = (  -0.0707107  -0.3535534   0.6363961), wk =   0.0240000
        k(   47) = (  -0.7071068   0.2828427   0.0000000), wk =   0.0120000

     Dense  grid:    10417 G-vectors     FFT dimensions: (  32,  32,  32)

     Smooth grid:     3695 G-vectors     FFT dimensions: (  24,  24,  24)

     Estimated max dynamical RAM per process >       5.46 MB

     Estimated total dynamical RAM >      43.71 MB
     Generating pointlists ...
     new r_m :   0.4125 (alat units)  2.2048 (a.u.) for type    1

     Initial potential from superposition of free atoms

     starting charge      10.9999, renormalised to      11.0000
     Starting wfcs are    9 randomized atomic wfcs +    1 random wfcs

     total cpu time spent up to now is        0.5 secs

     Self-consistent Calculation

     iteration #  1     ecut=    40.00 Ry     beta= 0.50
     Davidson diagonalization with overlap
     ethr =  1.00E-02,  avg # of iterations =  5.5

     total cpu time spent up to now is        1.1 secs

     total energy              =     -66.48447731 Ry
     estimated scf accuracy    <       0.46263196 Ry

     total magnetization       =     1.28 Bohr mag/cell
     absolute magnetization    =     1.32 Bohr mag/cell

     iteration #  2     ecut=    40.00 Ry     beta= 0.50
     Davidson diagonalization with overlap
     ethr =  4.21E-03,  avg # of iterations =  1.4

     total cpu time spent up to now is        1.5 secs

     total energy              =     -66.77022092 Ry
     estimated scf accuracy    <       0.15102481 Ry

     total magnetization       =     0.32 Bohr mag/cell
     absolute magnetization    =     0.51 Bohr mag/cell

     iteration #  3     ecut=    40.00 Ry     beta= 0.50
     Davidson diagonalization with overlap
     ethr =  1.37E-03,  avg # of iterations =  1.1

     total cpu time spent up to now is        1.8 secs

     total energy              =     -66.85902404 Ry
     estimated scf accuracy    <       0.04555299 Ry

     total magnetization       =     0.25 Bohr mag/cell
     absolute magnetization    =     0.36 Bohr mag/cell

     iteration #  4     ecut=    40.00 Ry     beta= 0.50
     Davidson diagonalization with overlap
     ethr =  4.14E-04,  avg # of iterations =  1.6

     total cpu time spent up to now is        2.2 secs

     total energy              =     -66.87024348 Ry
     estimated scf accuracy    <       0.00249060 Ry

     total magnetization       =    -0.02 Bohr mag/cell
     absolute magnetization    =     0.05 Bohr mag/cell

     iteration #  5     ecut=    40.00 Ry     beta= 0.50
     Davidson diagonalization with overlap
     ethr =  2.26E-05,  avg # of iterations =  1.9

     total cpu time spent up to now is        2.6 secs

     total energy              =     -66.87107961 Ry
     estimated scf accuracy    <       0.00017592 Ry

     total magnetization       =    -0.02 Bohr mag/cell
     absolute magnetization    =     0.02 Bohr mag/cell

     iteration #  6     ecut=    40.00 Ry     beta= 0.50
     Davidson diagonalization with overlap
     ethr =  1.60E-06,  avg # of iterations =  2.0

     total cpu time spent up to now is        3.0 secs

     total energy              =     -66.87117823 Ry
     estimated scf accuracy    <       0.00002485 Ry

     total magnetization       =     0.01 Bohr mag/cell
     absolute magnetization    =     0.01 Bohr mag/cell

     iteration #  7     ecut=    40.00 Ry     beta= 0.50
     Davidson diagonalization with overlap
     ethr =  2.26E-07,  avg # of iterations =  1.5

     total cpu time spent up to now is        3.3 secs

     total energy              =     -66.87119174 Ry
     estimated scf accuracy    <       0.00000239 Ry

     total magnetization       =     0.00 Bohr mag/cell
     absolute magnetization    =     0.00 Bohr mag/cell

     iteration #  8     ecut=    40.00 Ry     beta= 0.50
     Davidson diagonalization with overlap
     ethr =  2.17E-08,  avg # of iterations =  1.5

     Magnetic moment per site  (integrated on atomic sphere of radius R)
     atom   1 (R=0.413)  charge=  9.2964  magn= -0.0010

     total cpu time spent up to now is        3.7 secs

     End of self-consistent calculation

 ------ SPIN UP ------------


          k = 0.0000 0.0000 0.0000 (   459 PWs)   bands (ev):

     6.4001  12.0129  12.0129  12.0129  13.7096  13.7096  33.5461  37.4111
    37.4111  37.4111

          k = 0.0707 0.0707-0.0707 (   471 PWs)   bands (ev):

     6.7693  11.8957  12.1398  12.1398  13.6587  13.6587  33.8028  35.0166
    37.6871  37.6871

          k = 0.1414 0.1414-0.1414 (   471 PWs)   bands (ev):

     7.7529  11.7418  12.3316  12.3316  13.7091  13.7091  30.8270  34.5995
    38.1051  38.1052

          k = 0.2121 0.2121-0.2121 (   471 PWs)   bands (ev):

     8.7691  12.2473  12.2473  12.2586  14.1873  14.1873  26.6706  33.9151
    37.4724  37.4724

          k = 0.2828 0.2828-0.2828 (   467 PWs)   bands (ev):

     9.0960  12.0510  12.0510  14.1279  14.7934  14.7934  22.6928  32.9751
    36.1417  36.1417

          k =-0.3536-0.3536 0.3536 (   464 PWs)   bands (ev):

     9.1113  11.9654  11.9654  15.0613  15.0613  15.8044  20.3739  32.6156
    35.5476  35.5476

          k = 0.1414 0.0000 0.0000 (   479 PWs)   bands (ev):

     6.8942  11.7542  12.2469  12.2469  13.4317  13.8250  34.0505  35.7398
    36.6252  36.6252

          k = 0.2121 0.0707-0.0707 (   474 PWs)   bands (ev):

     7.6901  11.5040  12.4612  12.5002  13.2979  13.9654  32.3813  34.6798
    35.8912  37.6900

          k = 0.2828 0.1414-0.1414 (   468 PWs)   bands (ev):

     8.7912  11.5498  12.2601  12.5385  13.9254  14.3675  28.2394  34.3431
    35.1588  37.3982

          k = 0.3536 0.2121-0.2121 (   458 PWs)   bands (ev):

     9.3351  11.9447  12.3590  12.5570  14.8910  15.2146  24.0808  33.3632
    34.5275  35.6742

          k =-0.2828-0.4243 0.4243 (   459 PWs)   bands (ev):

     9.3844  11.7901  12.2042  13.6720  15.0796  17.0504  20.7197  32.6797
    34.3220  34.5894

          k =-0.2121-0.3536 0.3536 (   458 PWs)   bands (ev):

     9.3962  11.8491  12.2013  13.5690  14.7247  16.5642  21.6946  32.4899
    34.0132  35.7872

          k =-0.1414-0.2828 0.2828 (   455 PWs)   bands (ev):

     9.2671  12.0089  12.3393  12.3660  14.0080  15.2618  25.4671  32.7982
    34.8647  38.0572

          k =-0.0707-0.2121 0.2121 (   469 PWs)   bands (ev):

     8.4451  11.5413  12.3546  12.5473  13.3699  14.3833  29.6009  33.3730
    36.4797  38.6684

          k = 0.0000-0.1414 0.1414 (   473 PWs)   bands (ev):

     7.3560  11.6836  12.3317  12.3420  13.3905  13.8696  33.1959  33.8916
    36.5413  39.2442

          k = 0.2828 0.0000 0.0000 (   472 PWs)   bands (ev):

     8.2272  11.1255  12.8585  12.9208  12.9208  14.1354  34.1633  34.1633
    34.3871  35.2500

          k = 0.3536 0.0707-0.0707 (   466 PWs)   bands (ev):

     9.1488  10.8640  12.4027  13.1842  13.8747  14.4677  30.0962  32.9003
    34.2191  35.3453

          k = 0.4243 0.1414-0.1414 (   452 PWs)   bands (ev):

     9.8128  11.1241  12.0546  13.0771  14.9678  15.5514  25.7614  32.2331
    32.2570  34.9756

          k =-0.2121-0.4950 0.4950 (   460 PWs)   bands (ev):

     9.9486  11.4069  12.3824  12.8761  15.1296  17.9621  21.8948  30.5597
    32.4843  34.5160

          k =-0.1414-0.4243 0.4243 (   456 PWs)   bands (ev):

    10.0680  11.4415  12.6466  12.7638  14.7286  18.7090  21.2296  29.3817
    33.8559  34.3513

          k =-0.0707-0.3536 0.3536 (   461 PWs)   bands (ev):

    10.1604  11.6058  11.9961  12.8128  13.9549  16.8132  24.7640  29.0896
    34.7573  36.1550

          k = 0.0000-0.2828 0.2828 (   465 PWs)   bands (ev):

     9.5606  11.3119  12.1123  12.9951  13.1783  15.4648  28.0691  30.2097
    35.7791  38.8837

          k = 0.4243 0.0000 0.0000 (   456 PWs)   bands (ev):

     9.4948  10.4270  13.1540  13.9214  13.9214  14.5363  31.1131  31.1131
    31.5018  34.1342

          k = 0.4950 0.0707-0.0707 (   463 PWs)   bands (ev):

     9.7725  10.2746  13.2028  14.0416  14.9804  15.5584  27.2789  29.7567
    30.0970  35.1095

          k =-0.1414-0.5657 0.5657 (   460 PWs)   bands (ev):

     9.9542  10.5862  12.8865  13.8258  15.2006  18.2475  23.5136  27.8630
    30.1936  35.3706

          k =-0.0707-0.4950 0.4950 (   455 PWs)   bands (ev):

    10.2307  11.0847  12.4491  13.5779  14.8419  20.4233  21.6164  26.1430
    31.5019  35.1748

          k =-0.0000-0.4243 0.4243 (   459 PWs)   bands (ev):

    10.5846  11.5140  11.7906  13.2917  14.2410  18.4480  24.7771  25.3684
    33.6830  34.9473

          k = 0.5657 0.0000 0.0000 (   452 PWs)   bands (ev):

     9.5211   9.9121  14.8763  14.9500  14.9500  15.6300  26.2258  28.6436
    28.6436  34.4421

          k =-0.0707-0.6364 0.6364 (   458 PWs)   bands (ev):

     9.5693   9.9241  14.4510  14.7064  15.3015  18.1620  23.7974  27.0503
    28.3762  35.3521

          k = 0.0000-0.5657 0.5657 (   462 PWs)   bands (ev):

     9.8559  10.3828  13.4618  14.3134  15.1019  20.8648  21.8800  25.2985
    29.4646  35.6730

          k =-0.7071 0.0000 0.0000 (   460 PWs)   bands (ev):

     9.3683   9.7255  15.0101  15.4276  15.4276  17.9327  23.1224  27.6582
    27.6582  34.6542

          k = 0.2828 0.1414 0.0000 (   471 PWs)   bands (ev):

     8.6032  11.2201  12.3557  12.9282  13.2672  14.4277  30.8157  32.4871
    36.2616  36.9152

          k = 0.3536 0.2121-0.0707 (   459 PWs)   bands (ev):

     9.6157  11.3069  11.9545  12.9445  13.9069  15.4012  27.1104  31.3193
    34.3316  37.3681

          k =-0.2828-0.4243 0.5657 (   454 PWs)   bands (ev):

     9.8836  11.6043  12.2423  12.7682  14.6914  16.9269  23.1471  31.0429
    32.7982  36.1240

          k =-0.2121-0.3536 0.4950 (   458 PWs)   bands (ev):

     9.8749  11.4705  12.6147  12.8990  14.9459  18.8544  20.3120  31.3457
    31.8622  35.5319

          k = 0.4243 0.1414-0.0000 (   463 PWs)   bands (ev):

     9.8594  10.6268  12.2307  13.9135  13.9930  15.3920  28.3767  30.0219
    32.1975  36.9661

          k =-0.2121-0.4950 0.6364 (   461 PWs)   bands (ev):

    10.2368  10.8795  11.9986  13.6897  14.7824  17.1833  24.8352  28.9707
    30.5350  36.9022

          k =-0.1414-0.4243 0.5657 (   462 PWs)   bands (ev):

    10.3930  11.1176  12.1200  13.3710  14.9695  19.8024  21.4270  28.1845
    30.2212  36.6702

          k =-0.0707-0.3536 0.4950 (   459 PWs)   bands (ev):

    10.6562  11.1681  11.8836  13.3021  14.6112  18.7638  23.0436  27.2496
    31.3970  37.0056

          k = 0.0000-0.2828 0.4243 (   461 PWs)   bands (ev):

    10.6189  11.1638  11.4959  13.4363  13.9497  16.8972  25.9981  27.8083
    32.9052  38.0114

          k =-0.1414-0.5657 0.7071 (   463 PWs)   bands (ev):

     9.8704  10.1760  13.2710  14.6065  14.9449  17.3847  25.3712  27.7983
    28.5722  36.5579

          k =-0.0707-0.4950 0.6364 (   463 PWs)   bands (ev):

    10.0918  10.5193  12.8465  14.1221  15.2153  20.0521  22.8904  26.0150
    28.4315  37.2685

          k =-0.0000-0.4243 0.5657 (   460 PWs)   bands (ev):

    10.4533  11.0613  12.1479  13.6617  14.9485  20.5206  23.2493  24.5077
    29.7242  37.2355

          k =-0.7071 0.1414 0.0000 (   460 PWs)   bands (ev):

     9.6980  10.0108  14.0239  14.6020  15.4284  19.6479  22.6965  26.8766
    27.3093  36.6346

          k =-0.1414-0.4243 0.7071 (   459 PWs)   bands (ev):

    10.6663  10.9489  11.7155  13.8387  14.9352  19.1833  24.4179  25.7581
    28.9216  39.4775

          k =-0.0707-0.3536 0.6364 (   462 PWs)   bands (ev):

    10.7043  11.2100  11.6381  13.5577  15.1881  21.0930  22.5636  25.4357
    28.0601  39.5346

          k =-0.7071 0.2828 0.0000 (   454 PWs)   bands (ev):

    10.4124  10.8579  12.2316  13.7318  15.4297  22.1284  22.3075  24.8882
    26.9759  40.4176

 ------ SPIN DOWN ----------


          k = 0.0000 0.0000 0.0000 (   459 PWs)   bands (ev):

     6.3979  12.0093  12.0093  12.0093  13.7059  13.7059  33.5441  37.4090
    37.4090  37.4090

          k = 0.0707 0.0707-0.0707 (   471 PWs)   bands (ev):

     6.7671  11.8921  12.1361  12.1361  13.6551  13.6551  33.8007  35.0145
    37.6849  37.6849

          k = 0.1414 0.1414-0.1414 (   471 PWs)   bands (ev):

     7.7507  11.7384  12.3279  12.3279  13.7054  13.7054  30.8245  34.5974
    38.1028  38.1028

          k = 0.2121 0.2121-0.2121 (   471 PWs)   bands (ev):

     8.7665  12.2438  12.2438  12.2555  14.1835  14.1835  26.6679  33.9131
    37.4699  37.4699

          k = 0.2828 0.2828-0.2828 (   467 PWs)   bands (ev):

     9.0931  12.0475  12.0475  14.1254  14.7896  14.7896  22.6899  32.9731
    36.1393  36.1393

          k =-0.3536-0.3536 0.3536 (   464 PWs)   bands (ev):

     9.1083  11.9619  11.9619  15.0574  15.0574  15.8023  20.3706  32.6137
    35.5452  35.5452

          k = 0.1414 0.0000 0.0000 (   479 PWs)   bands (ev):

     6.8919  11.7506  12.2432  12.2432  13.4281  13.8213  34.0484  35.7377
    36.6229  36.6229

          k = 0.2121 0.0707-0.0707 (   474 PWs)   bands (ev):

     7.6878  11.5005  12.4576  12.4965  13.2943  13.9617  32.3789  34.6776
    35.8888  37.6879

          k = 0.2828 0.1414-0.1414 (   468 PWs)   bands (ev):

     8.7888  11.5464  12.2566  12.5348  13.9217  14.3637  28.2368  34.3410
    35.1564  37.3957

          k = 0.3536 0.2121-0.2121 (   458 PWs)   bands (ev):

     9.3323  11.9412  12.3554  12.5540  14.8871  15.2112  24.0780  33.3611
    34.5251  35.6716

          k =-0.2828-0.4243 0.4243 (   459 PWs)   bands (ev):

     9.3814  11.7867  12.2006  13.6687  15.0757  17.0475  20.7166  32.6776
    34.3196  34.5870

          k =-0.2121-0.3536 0.3536 (   458 PWs)   bands (ev):

     9.3932  11.8456  12.1978  13.5659  14.7208  16.5610  21.6916  32.4877
    34.0110  35.7848

          k =-0.1414-0.2828 0.2828 (   455 PWs)   bands (ev):

     9.2644  12.0054  12.3362  12.3625  14.0042  15.2581  25.4644  32.7958
    34.8625  38.0548

          k =-0.0707-0.2121 0.2121 (   469 PWs)   bands (ev):

     8.4427  11.5378  12.3510  12.5437  13.3663  14.3796  29.5983  33.3705
    36.4775  38.6663

          k = 0.0000-0.1414 0.1414 (   473 PWs)   bands (ev):

     7.3538  11.6801  12.3280  12.3384  13.3869  13.8659  33.1937  33.8893
    36.5392  39.2422

          k = 0.2828 0.0000 0.0000 (   472 PWs)   bands (ev):

     8.2250  11.1220  12.8550  12.9171  12.9171  14.1317  34.1609  34.1609
    34.3849  35.2477

          k = 0.3536 0.0707-0.0707 (   466 PWs)   bands (ev):

     9.1464  10.8606  12.3992  13.1805  13.8711  14.4639  30.0937  32.8978
    34.2167  35.3426

          k = 0.4243 0.1414-0.1414 (   452 PWs)   bands (ev):

     9.8099  11.1208  12.0512  13.0735  14.9639  15.5480  25.7588  32.2307
    32.2545  34.9732

          k =-0.2121-0.4950 0.4950 (   460 PWs)   bands (ev):

     9.9455  11.4036  12.3792  12.8725  15.1257  17.9590  21.8920  30.5571
    32.4819  34.5137

          k =-0.1414-0.4243 0.4243 (   456 PWs)   bands (ev):

    10.0649  11.4382  12.6433  12.7602  14.7247  18.7060  21.2266  29.3791
    33.8535  34.3491

          k =-0.0707-0.3536 0.3536 (   461 PWs)   bands (ev):

    10.1575  11.6024  11.9931  12.8092  13.9511  16.8098  24.7613  29.0870
    34.7551  36.1525

          k = 0.0000-0.2828 0.2828 (   465 PWs)   bands (ev):

     9.5581  11.3085  12.1089  12.9915  13.1745  15.4611  28.0665  30.2069
    35.7770  38.8811

          k = 0.4243 0.0000 0.0000 (   456 PWs)   bands (ev):

     9.4922  10.4236  13.1510  13.9176  13.9176  14.5326  31.1107  31.1107
    31.4991  34.1318

          k = 0.4950 0.0707-0.0707 (   463 PWs)   bands (ev):

     9.7697  10.2712  13.1996  14.0378  14.9766  15.5551  27.2764  29.7541
    30.0946  35.1070

          k =-0.1414-0.5657 0.5657 (   460 PWs)   bands (ev):

     9.9511  10.5829  12.8831  13.8221  15.1967  18.2444  23.5110  27.8603
    30.1912  35.3680

          k =-0.0707-0.4950 0.4950 (   455 PWs)   bands (ev):

    10.2275  11.0816  12.4457  13.5743  14.8380  20.4205  21.6136  26.1403
    31.4995  35.1724

          k =-0.0000-0.4243 0.4243 (   459 PWs)   bands (ev):

    10.5814  11.5110  11.7872  13.2882  14.2371  18.4449  24.7744  25.3656
    33.6806  34.9450

          k = 0.5657 0.0000 0.0000 (   452 PWs)   bands (ev):

     9.5181   9.9088  14.8725  14.9460  14.9460  15.6276  26.2230  28.6414
    28.6414  34.4395

          k =-0.0707-0.6364 0.6364 (   458 PWs)   bands (ev):

     9.5663   9.9208  14.4474  14.7026  15.2975  18.1593  23.7946  27.0479
    28.3740  35.3495

          k = 0.0000-0.5657 0.5657 (   462 PWs)   bands (ev):

     9.8527  10.3796  13.4583  14.3097  15.0979  20.8621  21.8773  25.2958
    29.4623  35.6703

          k =-0.7071 0.0000 0.0000 (   460 PWs)   bands (ev):

     9.3653   9.7221  15.0063  15.4236  15.4236  17.9306  23.1194  27.6561
    27.6561  34.6516

          k = 0.2828 0.1414 0.0000 (   471 PWs)   bands (ev):

     8.6009  11.2166  12.3522  12.9245  13.2637  14.4240  30.8133  32.4845
    36.2593  36.9130

          k = 0.3536 0.2121-0.0707 (   459 PWs)   bands (ev):

     9.6132  11.3036  11.9511  12.9409  13.9032  15.3975  27.1078  31.3167
    34.3293  37.3657

          k =-0.2828-0.4243 0.5657 (   454 PWs)   bands (ev):

     9.8806  11.6010  12.2391  12.7647  14.6876  16.9236  23.1444  31.0403
    32.7959  36.1218

          k =-0.2121-0.3536 0.4950 (   458 PWs)   bands (ev):

     9.8718  11.4671  12.6112  12.8958  14.9420  18.8516  20.3088  31.3431
    31.8599  35.5297

          k = 0.4243 0.1414-0.0000 (   463 PWs)   bands (ev):

     9.8568  10.6234  12.2274  13.9097  13.9895  15.3884  28.3742  30.0193
    32.1950  37.6407

          k =-0.2121-0.4950 0.6364 (   461 PWs)   bands (ev):

    10.2337  10.8763  11.9953  13.6861  14.7785  17.1800  24.8326  28.9681
    30.5324  36.8999

          k =-0.1414-0.4243 0.5657 (   462 PWs)   bands (ev):

    10.3898  11.1144  12.1167  13.3674  14.9656  19.7993  21.4243  28.1818
    30.2187  36.6680

          k =-0.0707-0.3536 0.4950 (   459 PWs)   bands (ev):

    10.6530  11.1649  11.8803  13.2985  14.6073  18.7607  23.0409  27.2469
    31.3945  37.0033

          k = 0.0000-0.2828 0.4243 (   461 PWs)   bands (ev):

    10.6161  11.1604  11.4926  13.4328  13.9459  16.8938  25.9956  27.8056
    32.9027  38.0091

          k =-0.1414-0.5657 0.7071 (   463 PWs)   bands (ev):

     9.8674  10.1726  13.2676  14.6028  14.9409  17.3816  25.3686  27.7959
    28.5696  36.5555

          k =-0.0707-0.4950 0.6364 (   463 PWs)   bands (ev):

    10.0887  10.5161  12.8431  14.1184  15.2113  20.0492  22.8878  26.0123
    28.4290  37.2660

          k =-0.0000-0.4243 0.5657 (   460 PWs)   bands (ev):

    10.4501  11.0582  12.1445  13.6581  14.9446  20.5178  23.2466  24.5049
    29.7217  37.2331

          k =-0.7071 0.1414 0.0000 (   460 PWs)   bands (ev):

     9.6950  10.0075  14.0204  14.5983  15.4244  19.6453  22.6936  26.8743
    27.3068  36.6321

          k =-0.1414-0.4243 0.7071 (   459 PWs)   bands (ev):

    10.6632  10.9455  11.7122  13.8351  14.9312  19.1803  24.4153  25.7555
    28.9189  39.4753

          k =-0.0707-0.3536 0.6364 (   462 PWs)   bands (ev):

    10.7011  11.2067  11.6348  13.5541  15.1841  21.0902  22.5609  25.4331
    28.0574  39.5323

          k =-0.7071 0.2828 0.0000 (   454 PWs)   bands (ev):

    10.4093  10.8545  12.2283  13.7282  15.4257  22.1256  22.3048  24.8857
    26.9732  40.4152

     the Fermi energy is    17.0447 ev

!    total energy              =     -66.87119247 Ry
     estimated scf accuracy    <       0.00000009 Ry
     smearing contrib. (-TS)   =      -0.00029431 Ry
     internal energy E=F+TS    =     -66.87089816 Ry

     The total energy is F=E-TS. E is the sum of the following terms:
     one-electron contribution =      10.18524551 Ry
     hartree contribution      =       6.83078147 Ry
     xc contribution           =     -10.49423827 Ry
     ewald contribution        =     -73.39268687 Ry

     total magnetization       =    -0.00 Bohr mag/cell
     absolute magnetization    =     0.00 Bohr mag/cell

     convergence has been achieved in   8 iterations

     Forces acting on atoms (cartesian axes, Ry/au):

     atom    1 type  1   force =     0.00000000    0.00000000    0.00000000
     The non-local contrib.  to forces
     atom    1 type  1   force =     0.00000000    0.00000000    0.00000000
     The ionic contribution  to forces
     atom    1 type  1   force =    -0.00000000   -0.00000000   -0.00000000
     The local contribution  to forces
     atom    1 type  1   force =     0.00000000    0.00000000    0.00000000
     The core correction contribution to forces
     atom    1 type  1   force =     0.00000000    0.00000000    0.00000000
     The Hubbard contrib.    to forces
     atom    1 type  1   force =     0.00000000    0.00000000    0.00000000
     The SCF correction term to forces
     atom    1 type  1   force =     0.00000000    0.00000000    0.00000000

     Total force =     0.000000     Total SCF correction =     0.000000


     Computing stress (Cartesian axis) and pressure

          total   stress  (Ry/bohr**3)                   (kbar)     P=       78.32
   0.00053243  -0.00000000   0.00000000           78.32       -0.00        0.00
  -0.00000000   0.00053243   0.00000000           -0.00       78.32        0.00
   0.00000000   0.00000000   0.00053243            0.00        0.00       78.32


     BFGS Geometry Optimization
     Energy error            =      0.0E+00 Ry
     Gradient error          =      0.0E+00 Ry/Bohr
     Cell gradient error     =      7.8E+01 kbar

     number of scf cycles    =   1
     number of bfgs steps    =   0

     enthalpy           new  =     -66.8711924716 Ry

     new trust radius        =       0.0276626619 bohr
     new conv_thr            =       0.0000001000 Ry

     new unit-cell volume =    112.34265 a.u.^3 (    16.64746 Ang^3 )
     density =     19.64688 g/cm^3

CELL_PARAMETERS (angstrom)
   0.000000000   2.026621693   2.026621693
   2.026621693   0.000000000   2.026621693
   2.026621693   2.026621693   0.000000000

ATOMIC_POSITIONS (angstrom)
Au            0.0000000000        0.0000000000        0.0000000000



     Writing config-only to output data dir /home/gridsan/epan1/labutil/lab3_samples/problem3/Lab3/Au_a_4.0_ecut_40_nk_10/pwscf.save/
     NEW-OLD atomic charge density approx. for the potential
     extrapolated charge   11.42782, renormalised to   11.00000
     Generating pointlists ...

     total cpu time spent up to now is        4.0 secs

     Self-consistent Calculation

     iteration #  1     ecut=    40.00 Ry     beta= 0.50
     Davidson diagonalization with overlap
     ethr =  1.00E-06,  avg # of iterations =  3.5

     total cpu time spent up to now is        4.6 secs

     total energy              =     -66.84162252 Ry
     estimated scf accuracy    <       0.02604162 Ry

     total magnetization       =    -0.00 Bohr mag/cell
     absolute magnetization    =     0.00 Bohr mag/cell

     iteration #  2     ecut=    40.00 Ry     beta= 0.50
     Davidson diagonalization with overlap
     ethr =  2.37E-04,  avg # of iterations =  2.0

     total cpu time spent up to now is        5.0 secs

     total energy              =     -66.87301104 Ry
     estimated scf accuracy    <       0.03239204 Ry

     total magnetization       =    -0.00 Bohr mag/cell
     absolute magnetization    =     0.00 Bohr mag/cell

     iteration #  3     ecut=    40.00 Ry     beta= 0.50
     Davidson diagonalization with overlap
     ethr =  2.37E-04,  avg # of iterations =  1.0

     total cpu time spent up to now is        5.4 secs

     total energy              =     -66.87238963 Ry
     estimated scf accuracy    <       0.00723849 Ry

     total magnetization       =    -0.00 Bohr mag/cell
     absolute magnetization    =     0.00 Bohr mag/cell

     iteration #  4     ecut=    40.00 Ry     beta= 0.50
     Davidson diagonalization with overlap
     ethr =  6.58E-05,  avg # of iterations =  1.0

     total cpu time spent up to now is        5.7 secs

     total energy              =     -66.87320045 Ry
     estimated scf accuracy    <       0.00156803 Ry

     total magnetization       =    -0.00 Bohr mag/cell
     absolute magnetization    =     0.00 Bohr mag/cell

     iteration #  5     ecut=    40.00 Ry     beta= 0.50
     Davidson diagonalization with overlap
     ethr =  1.43E-05,  avg # of iterations =  1.0

     total cpu time spent up to now is        6.1 secs

     total energy              =     -66.87178789 Ry
     estimated scf accuracy    <       0.00280408 Ry

     total magnetization       =    -0.00 Bohr mag/cell
     absolute magnetization    =     0.00 Bohr mag/cell

     iteration #  6     ecut=    40.00 Ry     beta= 0.50
     Davidson diagonalization with overlap
     ethr =  1.43E-05,  avg # of iterations =  2.0

     total cpu time spent up to now is        6.5 secs

     total energy              =     -66.87225535 Ry
     estimated scf accuracy    <       0.00001305 Ry

     total magnetization       =    -0.00 Bohr mag/cell
     absolute magnetization    =     0.00 Bohr mag/cell

     iteration #  7     ecut=    40.00 Ry     beta= 0.50
     Davidson diagonalization with overlap
     ethr =  1.19E-07,  avg # of iterations =  2.1

     total cpu time spent up to now is        7.0 secs

     total energy              =     -66.87226462 Ry
     estimated scf accuracy    <       0.00001095 Ry

     total magnetization       =    -0.00 Bohr mag/cell
     absolute magnetization    =     0.00 Bohr mag/cell

     iteration #  8     ecut=    40.00 Ry     beta= 0.50
     Davidson diagonalization with overlap
     ethr =  9.96E-08,  avg # of iterations =  1.0

     total cpu time spent up to now is        7.3 secs

     total energy              =     -66.87225911 Ry
     estimated scf accuracy    <       0.00000839 Ry

     total magnetization       =    -0.00 Bohr mag/cell
     absolute magnetization    =     0.00 Bohr mag/cell

     iteration #  9     ecut=    40.00 Ry     beta= 0.50
     Davidson diagonalization with overlap
     ethr =  7.62E-08,  avg # of iterations =  2.0

     total cpu time spent up to now is        7.8 secs

     total energy              =     -66.87226176 Ry
     estimated scf accuracy    <       0.00000158 Ry

     total magnetization       =    -0.00 Bohr mag/cell
     absolute magnetization    =     0.00 Bohr mag/cell

     iteration # 10     ecut=    40.00 Ry     beta= 0.50
     Davidson diagonalization with overlap
     ethr =  1.43E-08,  avg # of iterations =  1.0

     total cpu time spent up to now is        8.1 secs

     total energy              =     -66.87226180 Ry
     estimated scf accuracy    <       0.00000019 Ry

     total magnetization       =    -0.00 Bohr mag/cell
     absolute magnetization    =     0.00 Bohr mag/cell

     iteration # 11     ecut=    40.00 Ry     beta= 0.50
     Davidson diagonalization with overlap
     ethr =  1.68E-09,  avg # of iterations =  1.9

     Magnetic moment per site  (integrated on atomic sphere of radius R)
     atom   1 (R=0.413)  charge=  9.2459  magn= -0.0000

     total cpu time spent up to now is        8.5 secs

     End of self-consistent calculation

 ------ SPIN UP ------------


          k = 0.0000 0.0000 0.0000 (   459 PWs)   bands (ev):

     5.8831  11.2898  11.2898  11.2898  12.8734  12.8734  32.5058  36.1206
    36.1206  36.1206

          k = 0.0698 0.0698-0.0698 (   471 PWs)   bands (ev):

     6.2391  11.1816  11.4090  11.4090  12.8270  12.8270  32.6910  33.7945
    36.3560  36.3560

          k = 0.1396 0.1396-0.1396 (   471 PWs)   bands (ev):

     7.1910  11.0414  11.5893  11.5893  12.8762  12.8762  29.5619  33.4844
    36.6646  36.6646

          k = 0.2093 0.2093-0.2093 (   471 PWs)   bands (ev):

     8.1886  11.5112  11.5112  11.5389  13.3236  13.3236  25.4394  32.8252
    35.9929  35.9929

          k = 0.2791 0.2791-0.2791 (   467 PWs)   bands (ev):

     8.5222  11.3280  11.3280  13.3570  13.8874  13.8874  21.5174  31.9338
    34.7347  34.7347

          k =-0.3489-0.3489 0.3489 (   464 PWs)   bands (ev):

     8.5422  11.2478  11.2478  14.1358  14.1358  15.0353  19.1984  31.5919
    34.1767  34.1767

          k = 0.1396 0.0000 0.0000 (   479 PWs)   bands (ev):

     6.3594  11.0491  11.5096  11.5096  12.6165  12.9814  32.9584  34.5062
    35.2795  35.2795

          k = 0.2093 0.0698-0.0698 (   474 PWs)   bands (ev):

     7.1287  10.8166  11.7118  11.7475  12.4941  13.1135  31.1060  33.5217
    34.5027  36.3904

          k = 0.2791 0.1396-0.1396 (   468 PWs)   bands (ev):

     8.2022  10.8629  11.5257  11.7839  13.0854  13.4901  26.9876  33.1931
    33.7559  35.9458

          k = 0.3489 0.2093-0.2093 (   458 PWs)   bands (ev):

     8.7471  11.2309  11.6166  11.8242  13.9775  14.3160  22.8936  32.2636
    33.1525  34.2390

          k =-0.2791-0.4187 0.4187 (   459 PWs)   bands (ev):

     8.8025  11.0864  11.4720  12.8783  14.1528  16.1401  19.5632  31.5657
    32.9903  33.2289

          k =-0.2093-0.3489 0.3489 (   458 PWs)   bands (ev):

     8.8120  11.1411  11.4694  12.7879  13.8240  15.6275  20.5379  31.2972
    32.7793  34.3845

          k =-0.1396-0.2791 0.2791 (   455 PWs)   bands (ev):

     8.6746  11.2900  11.6169  11.6233  13.1574  14.3378  24.2554  31.5375
    33.6421  36.5587

          k =-0.0698-0.2093 0.2093 (   469 PWs)   bands (ev):

     7.8620  10.8537  11.6139  11.7919  12.5616  13.5069  28.3399  32.0814
    35.2149  37.3849

          k = 0.0000-0.1396 0.1396 (   473 PWs)   bands (ev):

     6.8054  10.9845  11.5892  11.5996  12.5787  13.0245  31.9443  32.6754
    35.2700  37.8713

          k = 0.2791 0.0000 0.0000 (   472 PWs)   bands (ev):

     7.6496  10.4619  12.0864  12.1422  12.1422  13.2714  32.8055  32.8055
    33.1561  34.0268

          k = 0.3489 0.0698-0.0698 (   466 PWs)   bands (ev):

     8.5487  10.2172  11.6609  12.3888  13.0405  13.5822  28.8115  31.5689
    32.9392  33.9378

          k = 0.4187 0.1396-0.1396 (   452 PWs)   bands (ev):

     9.2065  10.4652  11.3344  12.2892  14.0483  14.6353  24.5607  30.9254
    30.9501  33.6530

          k =-0.2093-0.4885 0.4885 (   460 PWs)   bands (ev):

     9.3433  10.7344  11.6511  12.1019  14.1992  16.9645  20.7753  29.2673
    31.1725  33.2644

          k =-0.1396-0.4187 0.4187 (   456 PWs)   bands (ev):

     9.4552  10.7649  11.9069  11.9972  13.8279  17.6956  20.1003  28.1090
    32.4914  33.1499

          k =-0.0698-0.3489 0.3489 (   461 PWs)   bands (ev):

     9.5353  10.9149  11.2935  12.0431  13.1081  15.8199  23.5736  27.8117
    33.5700  34.7024

          k = 0.0000-0.2791 0.2791 (   465 PWs)   bands (ev):

     8.9431  10.6390  11.3920  12.2132  12.3825  14.5257  26.8324  28.8898
    34.5702  37.3417

          k = 0.4187 0.0000 0.0000 (   456 PWs)   bands (ev):

     8.8989   9.8065  12.3792  13.0785  13.0785  13.6454  29.8427  29.8427
    30.0880  32.8485

          k = 0.4885 0.0698-0.0698 (   463 PWs)   bands (ev):

     9.1801   9.6632  12.4230  13.1897  14.0601  14.6487  26.0416  28.4627
    28.8671  33.7596

          k =-0.1396-0.5583 0.5583 (   460 PWs)   bands (ev):

     9.3586   9.9597  12.1243  12.9891  14.2652  17.2336  22.3889  26.5938
    28.9603  34.0184

          k =-0.0698-0.4885 0.4885 (   455 PWs)   bands (ev):

     9.6190  10.4328  11.7130  12.7588  13.9332  19.3290  20.5379  24.9128
    30.2118  33.8642

          k =-0.0000-0.4187 0.4187 (   459 PWs)   bands (ev):

     9.9476  10.8402  11.0916  12.4921  13.3745  17.4110  23.5819  24.1717
    32.3077  33.6942

          k = 0.5583 0.0000 0.0000 (   452 PWs)   bands (ev):

     8.9490   9.3217  13.9619  14.0355  14.0355  14.7895  24.9254  27.4768
    27.4768  33.0964

          k =-0.0698-0.6280 0.6280 (   458 PWs)   bands (ev):

     8.9986   9.3329  13.5918  13.8065  14.3596  17.2139  22.5665  25.8926
    27.2221  33.9670

          k = 0.0000-0.5583 0.5583 (   462 PWs)   bands (ev):

     9.2696   9.7672  12.6671  13.4431  14.1748  19.8346  20.7244  24.1135
    28.2584  34.2860

          k =-0.6978 0.0000 0.0000 (   460 PWs)   bands (ev):

     8.8089   9.1456  14.0864  14.4769  14.4769  17.0828  21.8432  26.5403
    26.5403  33.2797

          k = 0.2791 0.1396 0.0000 (   471 PWs)   bands (ev):

     8.0137  10.5514  11.6155  12.1489  12.4675  13.5475  29.5467  31.1500
    34.9769  35.6773

          k = 0.3489 0.2093-0.0698 (   459 PWs)   bands (ev):

     9.0035  10.6345  11.2421  12.1656  13.0669  14.4684  25.8780  30.0040
    33.0785  35.9800

          k =-0.2791-0.4187 0.5583 (   454 PWs)   bands (ev):

     9.2762  10.9157  11.5214  12.0037  13.7958  15.9485  21.9889  29.7416
    31.5475  34.8072

          k =-0.2093-0.3489 0.4885 (   458 PWs)   bands (ev):

     9.2711  10.7905  11.8576  12.1460  14.0295  17.8902  19.1590  30.0138
    30.6392  34.2699

          k = 0.4187 0.1396-0.0000 (   463 PWs)   bands (ev):

     9.2473   9.9945  11.5008  13.0709  13.1506  14.4629  27.1228  28.7432
    30.8886  35.5572

          k =-0.2093-0.4885 0.6280 (   461 PWs)   bands (ev):

     9.6211  10.2357  11.2831  12.8649  13.8803  16.1910  23.6651  27.7041
    29.2600  35.5526

          k =-0.1396-0.4187 0.5583 (   462 PWs)   bands (ev):

     9.7695  10.4632  11.4026  12.5668  14.0522  18.7232  20.3468  26.9142
    28.9642  35.3613

          k =-0.0698-0.3489 0.4885 (   459 PWs)   bands (ev):

    10.0145  10.5106  11.1822  12.5027  13.7198  17.7198  21.8994  26.0122
    30.1054  35.6958

          k = 0.0000-0.2791 0.4187 (   461 PWs)   bands (ev):

     9.9709  10.5003  10.8162  12.6299  13.1038  15.8996  24.7953  26.5510
    31.6109  36.6357

          k =-0.1396-0.5583 0.6978 (   463 PWs)   bands (ev):

     9.2812   9.5700  12.4847  13.7192  14.0307  16.4107  24.1529  26.6170
    27.3434  35.1696

          k =-0.0698-0.4885 0.6280 (   463 PWs)   bands (ev):

     9.4931   9.8954  12.0863  13.2674  14.2805  18.9894  21.7596  24.8149
    27.2211  35.8715

          k = 0.0000-0.4187 0.5583 (   460 PWs)   bands (ev):

     9.8329  10.4088  11.4287  12.8380  14.0332  19.4287  22.1325  23.3121
    28.4652  35.8775

          k =-0.6978 0.1396 0.0000 (   460 PWs)   bands (ev):

     9.1220   9.4142  13.1922  13.7106  14.4776  18.6795  21.4604  25.7434
    26.1405  35.2275

          k =-0.1396-0.4187 0.6978 (   459 PWs)   bands (ev):

    10.0386  10.2980  11.0176  13.0053  14.0214  18.1266  23.2432  24.5850
    27.6623  38.0854

          k =-0.0698-0.3489 0.6280 (   462 PWs)   bands (ev):

    10.0761  10.5425  10.9485  12.7417  14.2556  19.9548  21.4807  24.2441
    26.8251  38.1568

          k =-0.6978 0.2791 0.0000 (   454 PWs)   bands (ev):

     9.8003  10.2122  11.5075  12.9041  14.4788  20.9346  21.2365  23.7595
    25.7599  38.9943

 ------ SPIN DOWN ----------


          k = 0.0000 0.0000 0.0000 (   459 PWs)   bands (ev):

     5.8831  11.2898  11.2898  11.2898  12.8734  12.8734  32.5058  36.1206
    36.1206  36.1206

          k = 0.0698 0.0698-0.0698 (   471 PWs)   bands (ev):

     6.2391  11.1816  11.4090  11.4090  12.8270  12.8270  32.6910  33.7945
    36.3560  36.3560

          k = 0.1396 0.1396-0.1396 (   471 PWs)   bands (ev):

     7.1910  11.0414  11.5893  11.5893  12.8762  12.8762  29.5619  33.4844
    36.6646  36.6646

          k = 0.2093 0.2093-0.2093 (   471 PWs)   bands (ev):

     8.1886  11.5112  11.5112  11.5389  13.3236  13.3236  25.4394  32.8252
    35.9929  35.9929

          k = 0.2791 0.2791-0.2791 (   467 PWs)   bands (ev):

     8.5222  11.3280  11.3280  13.3570  13.8874  13.8874  21.5174  31.9338
    34.7347  34.7347

          k =-0.3489-0.3489 0.3489 (   464 PWs)   bands (ev):

     8.5422  11.2478  11.2478  14.1358  14.1358  15.0353  19.1984  31.5919
    34.1767  34.1767

          k = 0.1396 0.0000 0.0000 (   479 PWs)   bands (ev):

     6.3594  11.0491  11.5096  11.5096  12.6165  12.9814  32.9584  34.5062
    35.2795  35.2795

          k = 0.2093 0.0698-0.0698 (   474 PWs)   bands (ev):

     7.1287  10.8166  11.7118  11.7475  12.4941  13.1135  31.1060  33.5217
    34.5027  36.3904

          k = 0.2791 0.1396-0.1396 (   468 PWs)   bands (ev):

     8.2022  10.8629  11.5257  11.7839  13.0854  13.4901  26.9876  33.1931
    33.7559  35.9458

          k = 0.3489 0.2093-0.2093 (   458 PWs)   bands (ev):

     8.7471  11.2309  11.6166  11.8242  13.9775  14.3160  22.8936  32.2636
    33.1525  34.2390

          k =-0.2791-0.4187 0.4187 (   459 PWs)   bands (ev):

     8.8025  11.0864  11.4720  12.8783  14.1528  16.1401  19.5632  31.5657
    32.9903  33.2289

          k =-0.2093-0.3489 0.3489 (   458 PWs)   bands (ev):

     8.8120  11.1411  11.4694  12.7879  13.8240  15.6275  20.5379  31.2972
    32.7793  34.3845

          k =-0.1396-0.2791 0.2791 (   455 PWs)   bands (ev):

     8.6746  11.2900  11.6169  11.6233  13.1574  14.3378  24.2554  31.5375
    33.6421  36.5587

          k =-0.0698-0.2093 0.2093 (   469 PWs)   bands (ev):

     7.8620  10.8537  11.6139  11.7919  12.5616  13.5069  28.3399  32.0814
    35.2149  37.3849

          k = 0.0000-0.1396 0.1396 (   473 PWs)   bands (ev):

     6.8054  10.9845  11.5892  11.5996  12.5787  13.0245  31.9443  32.6754
    35.2700  37.8713

          k = 0.2791 0.0000 0.0000 (   472 PWs)   bands (ev):

     7.6496  10.4619  12.0864  12.1422  12.1422  13.2714  32.8055  32.8055
    33.1561  34.0268

          k = 0.3489 0.0698-0.0698 (   466 PWs)   bands (ev):

     8.5487  10.2172  11.6609  12.3888  13.0405  13.5822  28.8115  31.5689
    32.9392  33.9378

          k = 0.4187 0.1396-0.1396 (   452 PWs)   bands (ev):

     9.2065  10.4652  11.3344  12.2892  14.0483  14.6353  24.5607  30.9254
    30.9501  33.6530

          k =-0.2093-0.4885 0.4885 (   460 PWs)   bands (ev):

     9.3433  10.7344  11.6511  12.1019  14.1992  16.9645  20.7753  29.2673
    31.1725  33.2644

          k =-0.1396-0.4187 0.4187 (   456 PWs)   bands (ev):

     9.4552  10.7649  11.9069  11.9972  13.8279  17.6956  20.1003  28.1090
    32.4914  33.1499

          k =-0.0698-0.3489 0.3489 (   461 PWs)   bands (ev):

     9.5353  10.9149  11.2935  12.0431  13.1081  15.8199  23.5736  27.8117
    33.5700  34.7024

          k = 0.0000-0.2791 0.2791 (   465 PWs)   bands (ev):

     8.9431  10.6390  11.3920  12.2132  12.3825  14.5257  26.8324  28.8898
    34.5702  37.3417

          k = 0.4187 0.0000 0.0000 (   456 PWs)   bands (ev):

     8.8989   9.8065  12.3792  13.0785  13.0785  13.6454  29.8427  29.8427
    30.0880  32.8485

          k = 0.4885 0.0698-0.0698 (   463 PWs)   bands (ev):

     9.1801   9.6632  12.4229  13.1897  14.0601  14.6487  26.0416  28.4627
    28.8671  33.7596

          k =-0.1396-0.5583 0.5583 (   460 PWs)   bands (ev):

     9.3586   9.9597  12.1243  12.9891  14.2652  17.2336  22.3889  26.5938
    28.9603  34.0184

          k =-0.0698-0.4885 0.4885 (   455 PWs)   bands (ev):

     9.6190  10.4328  11.7130  12.7588  13.9332  19.3290  20.5379  24.9128
    30.2118  33.8642

          k =-0.0000-0.4187 0.4187 (   459 PWs)   bands (ev):

     9.9476  10.8402  11.0916  12.4921  13.3745  17.4110  23.5819  24.1717
    32.3077  33.6942

          k = 0.5583 0.0000 0.0000 (   452 PWs)   bands (ev):

     8.9490   9.3217  13.9619  14.0355  14.0355  14.7895  24.9254  27.4768
    27.4768  33.0964

          k =-0.0698-0.6280 0.6280 (   458 PWs)   bands (ev):

     8.9986   9.3329  13.5918  13.8065  14.3596  17.2139  22.5665  25.8926
    27.2221  33.9670

          k = 0.0000-0.5583 0.5583 (   462 PWs)   bands (ev):

     9.2696   9.7672  12.6671  13.4431  14.1748  19.8346  20.7244  24.1135
    28.2584  34.2860

          k =-0.6978 0.0000 0.0000 (   460 PWs)   bands (ev):

     8.8089   9.1456  14.0864  14.4769  14.4769  17.0828  21.8432  26.5403
    26.5403  33.2797

          k = 0.2791 0.1396 0.0000 (   471 PWs)   bands (ev):

     8.0137  10.5514  11.6155  12.1489  12.4675  13.5475  29.5467  31.1500
    34.9769  35.6773

          k = 0.3489 0.2093-0.0698 (   459 PWs)   bands (ev):

     9.0035  10.6345  11.2421  12.1656  13.0669  14.4684  25.8780  30.0040
    33.0785  35.9800

          k =-0.2791-0.4187 0.5583 (   454 PWs)   bands (ev):

     9.2762  10.9157  11.5214  12.0037  13.7958  15.9485  21.9889  29.7416
    31.5475  34.8072

          k =-0.2093-0.3489 0.4885 (   458 PWs)   bands (ev):

     9.2711  10.7905  11.8576  12.1460  14.0295  17.8902  19.1590  30.0138
    30.6392  34.2699

          k = 0.4187 0.1396-0.0000 (   463 PWs)   bands (ev):

     9.2473   9.9945  11.5008  13.0709  13.1506  14.4629  27.1228  28.7432
    30.8886  35.5572

          k =-0.2093-0.4885 0.6280 (   461 PWs)   bands (ev):

     9.6211  10.2357  11.2831  12.8649  13.8803  16.1910  23.6651  27.7041
    29.2600  35.5526

          k =-0.1396-0.4187 0.5583 (   462 PWs)   bands (ev):

     9.7695  10.4632  11.4026  12.5668  14.0522  18.7232  20.3468  26.9142
    28.9642  35.3613

          k =-0.0698-0.3489 0.4885 (   459 PWs)   bands (ev):

    10.0145  10.5106  11.1822  12.5027  13.7198  17.7198  21.8994  26.0122
    30.1054  35.6958

          k = 0.0000-0.2791 0.4187 (   461 PWs)   bands (ev):

     9.9709  10.5003  10.8162  12.6299  13.1038  15.8996  24.7953  26.5510
    31.6109  36.6357

          k =-0.1396-0.5583 0.6978 (   463 PWs)   bands (ev):

     9.2812   9.5700  12.4847  13.7192  14.0307  16.4107  24.1529  26.6170
    27.3434  35.1696

          k =-0.0698-0.4885 0.6280 (   463 PWs)   bands (ev):

     9.4931   9.8954  12.0863  13.2674  14.2805  18.9894  21.7596  24.8149
    27.2211  35.8715

          k = 0.0000-0.4187 0.5583 (   460 PWs)   bands (ev):

     9.8329  10.4088  11.4287  12.8380  14.0332  19.4287  22.1325  23.3121
    28.4652  35.8775

          k =-0.6978 0.1396 0.0000 (   460 PWs)   bands (ev):

     9.1220   9.4142  13.1922  13.7106  14.4776  18.6795  21.4604  25.7434
    26.1405  35.2275

          k =-0.1396-0.4187 0.6978 (   459 PWs)   bands (ev):

    10.0386  10.2980  11.0176  13.0053  14.0214  18.1266  23.2432  24.5850
    27.6623  38.0854

          k =-0.0698-0.3489 0.6280 (   462 PWs)   bands (ev):

    10.0761  10.5425  10.9484  12.7417  14.2556  19.9548  21.4807  24.2441
    26.8251  38.1568

          k =-0.6978 0.2791 0.0000 (   454 PWs)   bands (ev):

     9.8003  10.2122  11.5075  12.9041  14.4788  20.9346  21.2365  23.7595
    25.7599  38.9943

     the Fermi energy is    16.0750 ev

!    total energy              =     -66.87226183 Ry
     estimated scf accuracy    <          7.2E-09 Ry
     smearing contrib. (-TS)   =      -0.00025308 Ry
     internal energy E=F+TS    =     -66.87200876 Ry

     The total energy is F=E-TS. E is the sum of the following terms:
     one-electron contribution =       8.83872846 Ry
     hartree contribution      =       7.17701084 Ry
     xc contribution           =     -10.45914719 Ry
     ewald contribution        =     -72.42860087 Ry

     total magnetization       =    -0.00 Bohr mag/cell
     absolute magnetization    =     0.00 Bohr mag/cell

     convergence has been achieved in  11 iterations

     Forces acting on atoms (cartesian axes, Ry/au):

     atom    1 type  1   force =     0.00000000    0.00000000    0.00000000
     The non-local contrib.  to forces
     atom    1 type  1   force =     0.00000000    0.00000000   -0.00000000
     The ionic contribution  to forces
     atom    1 type  1   force =    -0.00000000   -0.00000000   -0.00000000
     The local contribution  to forces
     atom    1 type  1   force =     0.00000000    0.00000000    0.00000000
     The core correction contribution to forces
     atom    1 type  1   force =     0.00000000    0.00000000    0.00000000
     The Hubbard contrib.    to forces
     atom    1 type  1   force =     0.00000000    0.00000000    0.00000000
     The SCF correction term to forces
     atom    1 type  1   force =     0.00000000    0.00000000    0.00000000

     Total force =     0.000000     Total SCF correction =     0.000000


     Computing stress (Cartesian axis) and pressure

          total   stress  (Ry/bohr**3)                   (kbar)     P=       -3.55
  -0.00002416   0.00000000  -0.00000000           -3.55        0.00       -0.00
   0.00000000  -0.00002416  -0.00000000            0.00       -3.55       -0.00
  -0.00000000  -0.00000000  -0.00002416           -0.00       -0.00       -3.55

     Energy error            =      1.1E-03 Ry
     Gradient error          =      0.0E+00 Ry/Bohr
     Cell gradient error     =      3.6E+00 kbar

     number of scf cycles    =   2
     number of bfgs steps    =   1

     enthalpy           old  =     -66.8711924716 Ry
     enthalpy           new  =     -66.8722618324 Ry

     CASE: enthalpy          _new < enthalpy          _old

     new trust radius        =       0.0012398571 bohr
     new conv_thr            =       0.0000000010 Ry

     new unit-cell volume =    112.14564 a.u.^3 (    16.61827 Ang^3 )
     density =     19.68139 g/cm^3

CELL_PARAMETERS (angstrom)
   0.000000000   2.025436356   2.025436356
   2.025436356   0.000000000   2.025436356
   2.025436356   2.025436356   0.000000000

ATOMIC_POSITIONS (angstrom)
Au            0.0000000000        0.0000000000        0.0000000000



     Writing config-only to output data dir /home/gridsan/epan1/labutil/lab3_samples/problem3/Lab3/Au_a_4.0_ecut_40_nk_10/pwscf.save/
     NEW-OLD atomic charge density approx. for the potential
     extrapolated charge   10.98068, renormalised to   11.00000
     Generating pointlists ...

     total cpu time spent up to now is        8.8 secs

     Self-consistent Calculation

     iteration #  1     ecut=    40.00 Ry     beta= 0.50
     Davidson diagonalization with overlap
     ethr =  1.00E-06,  avg # of iterations =  2.0

     total cpu time spent up to now is        9.3 secs

     total energy              =     -66.87220027 Ry
     estimated scf accuracy    <       0.00005695 Ry

     total magnetization       =    -0.00 Bohr mag/cell
     absolute magnetization    =     0.00 Bohr mag/cell

     iteration #  2     ecut=    40.00 Ry     beta= 0.50
     Davidson diagonalization with overlap
     ethr =  5.18E-07,  avg # of iterations =  2.0

     total cpu time spent up to now is        9.7 secs

     total energy              =     -66.87226518 Ry
     estimated scf accuracy    <       0.00006629 Ry

     total magnetization       =    -0.00 Bohr mag/cell
     absolute magnetization    =     0.00 Bohr mag/cell

     iteration #  3     ecut=    40.00 Ry     beta= 0.50
     Davidson diagonalization with overlap
     ethr =  5.18E-07,  avg # of iterations =  1.0

     total cpu time spent up to now is       10.5 secs

     total energy              =     -66.87226504 Ry
     estimated scf accuracy    <       0.00001370 Ry

     total magnetization       =    -0.00 Bohr mag/cell
     absolute magnetization    =     0.00 Bohr mag/cell

     iteration #  4     ecut=    40.00 Ry     beta= 0.50
     Davidson diagonalization with overlap
     ethr =  1.25E-07,  avg # of iterations =  1.0

     total cpu time spent up to now is       11.1 secs

     total energy              =     -66.87226557 Ry
     estimated scf accuracy    <       0.00000389 Ry

     total magnetization       =    -0.00 Bohr mag/cell
     absolute magnetization    =     0.00 Bohr mag/cell

     iteration #  5     ecut=    40.00 Ry     beta= 0.50
     Davidson diagonalization with overlap
     ethr =  3.53E-08,  avg # of iterations =  1.0

     total cpu time spent up to now is       11.5 secs

     total energy              =     -66.87226568 Ry
     estimated scf accuracy    <       0.00000368 Ry

     total magnetization       =    -0.00 Bohr mag/cell
     absolute magnetization    =     0.00 Bohr mag/cell

     iteration #  6     ecut=    40.00 Ry     beta= 0.50
     Davidson diagonalization with overlap
     ethr =  3.34E-08,  avg # of iterations =  1.0

     total cpu time spent up to now is       11.8 secs

     total energy              =     -66.87226529 Ry
     estimated scf accuracy    <       0.00000398 Ry

     total magnetization       =    -0.00 Bohr mag/cell
     absolute magnetization    =     0.00 Bohr mag/cell

     iteration #  7     ecut=    40.00 Ry     beta= 0.50
     Davidson diagonalization with overlap
     ethr =  3.34E-08,  avg # of iterations =  1.0

     total cpu time spent up to now is       12.2 secs

     total energy              =     -66.87226344 Ry
     estimated scf accuracy    <       0.00000291 Ry

     total magnetization       =    -0.00 Bohr mag/cell
     absolute magnetization    =     0.00 Bohr mag/cell

     iteration #  8     ecut=    40.00 Ry     beta= 0.50
     Davidson diagonalization with overlap
     ethr =  2.64E-08,  avg # of iterations =  2.0

     total cpu time spent up to now is       12.6 secs

     total energy              =     -66.87226456 Ry
     estimated scf accuracy    <       0.00000170 Ry

     total magnetization       =     0.00 Bohr mag/cell
     absolute magnetization    =     0.00 Bohr mag/cell

     iteration #  9     ecut=    40.00 Ry     beta= 0.50
     Davidson diagonalization with overlap
     ethr =  1.54E-08,  avg # of iterations =  1.0

     total cpu time spent up to now is       13.0 secs

     total energy              =     -66.87226426 Ry
     estimated scf accuracy    <       0.00000083 Ry

     total magnetization       =     0.00 Bohr mag/cell
     absolute magnetization    =     0.00 Bohr mag/cell

     iteration # 10     ecut=    40.00 Ry     beta= 0.50
     Davidson diagonalization with overlap
     ethr =  7.57E-09,  avg # of iterations =  1.0

     total cpu time spent up to now is       13.3 secs

     total energy              =     -66.87226431 Ry
     estimated scf accuracy    <       0.00000006 Ry

     total magnetization       =     0.00 Bohr mag/cell
     absolute magnetization    =     0.00 Bohr mag/cell

     iteration # 11     ecut=    40.00 Ry     beta= 0.50
     Davidson diagonalization with overlap
     ethr =  5.30E-10,  avg # of iterations =  1.0

     total cpu time spent up to now is       13.7 secs

     total energy              =     -66.87226431 Ry
     estimated scf accuracy    <       0.00000002 Ry

     total magnetization       =     0.00 Bohr mag/cell
     absolute magnetization    =     0.00 Bohr mag/cell

     iteration # 12     ecut=    40.00 Ry     beta= 0.50
     Davidson diagonalization with overlap
     ethr =  1.98E-10,  avg # of iterations =  1.0

     total cpu time spent up to now is       14.5 secs

     total energy              =     -66.87226431 Ry
     estimated scf accuracy    <          4.9E-09 Ry

     total magnetization       =     0.00 Bohr mag/cell
     absolute magnetization    =     0.00 Bohr mag/cell

     iteration # 13     ecut=    40.00 Ry     beta= 0.50
     Davidson diagonalization with overlap
     ethr =  4.48E-11,  avg # of iterations =  1.0

     total cpu time spent up to now is       14.9 secs

     total energy              =     -66.87226431 Ry
     estimated scf accuracy    <          9.3E-09 Ry

     total magnetization       =     0.00 Bohr mag/cell
     absolute magnetization    =     0.00 Bohr mag/cell

     iteration # 14     ecut=    40.00 Ry     beta= 0.50
     Davidson diagonalization with overlap
     ethr =  4.48E-11,  avg # of iterations =  2.0

     Magnetic moment per site  (integrated on atomic sphere of radius R)
     atom   1 (R=0.413)  charge=  9.2481  magn= -0.0000

     total cpu time spent up to now is       15.3 secs

     End of self-consistent calculation

 ------ SPIN UP ------------


          k = 0.0000 0.0000 0.0000 (   459 PWs)   bands (ev):

     5.9053  11.3211  11.3211  11.3211  12.9095  12.9095  32.5511  36.1768
    36.1768  36.1768

          k = 0.0698 0.0698-0.0698 (   471 PWs)   bands (ev):

     6.2619  11.2124  11.4406  11.4406  12.8629  12.8629  32.7396  33.8476
    36.4140  36.4140

          k = 0.1396 0.1396-0.1396 (   471 PWs)   bands (ev):

     7.2152  11.0716  11.6213  11.6213  12.9122  12.9122  29.6169  33.5329
    36.7273  36.7273

          k = 0.2095 0.2095-0.2095 (   471 PWs)   bands (ev):

     8.2136  11.5430  11.5430  11.5700  13.3608  13.3608  25.4928  32.8725
    36.0571  36.0571

          k = 0.2793 0.2793-0.2793 (   467 PWs)   bands (ev):

     8.5470  11.3592  11.3592  13.3903  13.9265  13.9265  21.5681  31.9791
    34.7958  34.7958

          k =-0.3491-0.3491 0.3491 (   464 PWs)   bands (ev):

     8.5667  11.2788  11.2788  14.1757  14.1757  15.0686  19.2491  31.6364
    34.2362  34.2362

          k = 0.1396 0.0000 0.0000 (   479 PWs)   bands (ev):

     6.3824  11.0795  11.5415  11.5415  12.6517  13.0178  33.0059  34.5600
    35.3381  35.3381

          k = 0.2095 0.0698-0.0698 (   474 PWs)   bands (ev):

     7.1529  10.8463  11.7441  11.7800  12.5288  13.1502  31.1616  33.5721
    34.5631  36.4468

          k = 0.2793 0.1396-0.1396 (   468 PWs)   bands (ev):

     8.2276  10.8926  11.5575  11.8165  13.1216  13.5279  27.0419  33.2431
    33.8168  36.0090

          k = 0.3491 0.2095-0.2095 (   458 PWs)   bands (ev):

     8.7724  11.2617  11.6486  11.8558  14.0168  14.3548  22.9449  32.3115
    33.2122  34.3013

          k =-0.2793-0.4189 0.4189 (   459 PWs)   bands (ev):

     8.8277  11.1168  11.5036  12.9126  14.1928  16.1793  19.6131  31.6144
    33.0478  33.2879

          k =-0.2095-0.3491 0.3491 (   458 PWs)   bands (ev):

     8.8372  11.1717  11.5010  12.8217  13.8629  15.6679  20.5878  31.3495
    32.8323  34.4454

          k =-0.1396-0.2793 0.2793 (   455 PWs)   bands (ev):

     8.7002  11.3211  11.6481  11.6554  13.1941  14.3776  24.3078  31.5926
    33.6948  36.6237

          k =-0.0698-0.2095 0.2095 (   469 PWs)   bands (ev):

     7.8872  10.8834  11.6458  11.8245  12.5965  13.5447  28.3946  32.1376
    35.2696  37.4406

          k = 0.0000-0.1396 0.1396 (   473 PWs)   bands (ev):

     6.8292  11.0147  11.6212  11.6317  12.6138  13.0610  31.9989  32.7284
    35.3251  37.9311

          k = 0.2793 0.0000 0.0000 (   472 PWs)   bands (ev):

     7.6745  10.4906  12.1198  12.1758  12.1758  13.3087  32.8644  32.8644
    33.2099  34.0800

          k = 0.3491 0.0698-0.0698 (   466 PWs)   bands (ev):

     8.5746  10.2452  11.6930  12.4231  13.0765  13.6204  28.8672  31.6267
    32.9952  33.9986

          k = 0.4189 0.1396-0.1396 (   452 PWs)   bands (ev):

     9.2327  10.4937  11.3655  12.3232  14.0880  14.6748  24.6126  30.9821
    31.0070  33.7102

          k =-0.2095-0.4888 0.4888 (   460 PWs)   bands (ev):

     9.3694  10.7635  11.6827  12.1353  14.2393  17.0076  20.8236  29.3234
    31.2294  33.3187

          k =-0.1396-0.4189 0.4189 (   456 PWs)   bands (ev):

     9.4816  10.7942  11.9388  12.0303  13.8667  17.7394  20.1490  28.1641
    32.5505  33.2022

          k =-0.0698-0.3491 0.3491 (   461 PWs)   bands (ev):

     9.5622  10.9448  11.3239  12.0763  13.1446  15.8627  23.6250  27.8670
    33.6216  34.7654

          k = 0.0000-0.2793 0.2793 (   465 PWs)   bands (ev):

     8.9697  10.6681  11.4231  12.2470  12.4168  14.5662  26.8860  28.9469
    34.6227  37.4086

          k = 0.4189 0.0000 0.0000 (   456 PWs)   bands (ev):

     8.9246   9.8333  12.4126  13.1149  13.1149  13.6838  29.8978  29.8978
    30.1494  32.9042

          k = 0.4888 0.0698-0.0698 (   463 PWs)   bands (ev):

     9.2057   9.6896  12.4566  13.2264  14.0997  14.6879  26.0952  28.5187
    28.9204  33.8182

          k =-0.1396-0.5586 0.5586 (   460 PWs)   bands (ev):

     9.3843   9.9868  12.1572  13.0252  14.3055  17.2773  22.4375  26.6487
    29.0138  34.0771

          k =-0.0698-0.4888 0.4888 (   455 PWs)   bands (ev):

     9.6455  10.4610  11.7448  12.7941  13.9724  19.3764  20.5844  24.9660
    30.2677  33.9211

          k =-0.0000-0.4189 0.4189 (   459 PWs)   bands (ev):

     9.9751  10.8693  11.1218  12.5266  13.4118  17.4558  23.6335  24.2234
    32.3673  33.7487

          k = 0.5586 0.0000 0.0000 (   452 PWs)   bands (ev):

     8.9737   9.3472  14.0013  14.0749  14.0749  14.8258  24.9816  27.5273
    27.5273  33.1549

          k =-0.0698-0.6284 0.6284 (   458 PWs)   bands (ev):

     9.0233   9.3584  13.6289  13.8453  14.4001  17.2548  22.6197  25.9427
    27.2721  34.0272

          k = 0.0000-0.5586 0.5586 (   462 PWs)   bands (ev):

     9.2950   9.7938  12.7014  13.4807  14.2147  19.8790  20.7744  24.1647
    28.3106  34.3463

          k =-0.6982 0.0000 0.0000 (   460 PWs)   bands (ev):

     8.8331   9.1707  14.1262  14.5179  14.5179  17.1195  21.8985  26.5888
    26.5888  33.3394

          k = 0.2793 0.1396 0.0000 (   471 PWs)   bands (ev):

     8.0391  10.5803  11.6475  12.1825  12.5020  13.5855  29.6018  31.2080
    35.0327  35.7311

          k = 0.3491 0.2095-0.0698 (   459 PWs)   bands (ev):

     9.0299  10.6635  11.2729  12.1992  13.1031  14.5086  25.9314  30.0610
    33.1331  36.0403

          k =-0.2793-0.4189 0.5586 (   454 PWs)   bands (ev):

     9.3024  10.9455  11.5526  12.0367  13.8344  15.9907  22.0389  29.7980
    31.6020  34.8643

          k =-0.2095-0.3491 0.4888 (   458 PWs)   bands (ev):

     9.2972  10.8199  11.8903  12.1785  14.0690  17.9318  19.2087  30.0715
    30.6924  34.3246

          k = 0.4189 0.1396-0.0000 (   463 PWs)   bands (ev):

     9.2737  10.0218  11.5323  13.1072  13.1870  14.5030  27.1772  28.7985
    30.9454  35.6183

          k =-0.2095-0.4888 0.6284 (   461 PWs)   bands (ev):

     9.6477  10.2636  11.3140  12.9005  13.9192  16.2338  23.7157  27.7590
    29.3152  35.6112

          k =-0.1396-0.4189 0.5586 (   462 PWs)   bands (ev):

     9.7965  10.4915  11.4336  12.6015  14.0917  18.7698  20.3934  26.9692
    29.0187  35.4182

          k =-0.0698-0.3491 0.4888 (   459 PWs)   bands (ev):

    10.0422  10.5390  11.2125  12.5372  13.7583  17.7649  21.9489  26.0658
    30.1614  35.7526

          k = 0.0000-0.2793 0.4189 (   461 PWs)   bands (ev):

     9.9989  10.5289  10.8455  12.6647  13.1403  15.9426  24.8474  26.6054
    31.6671  36.6954

          k =-0.1396-0.5586 0.6982 (   463 PWs)   bands (ev):

     9.3067   9.5962  12.5186  13.7575  14.0701  16.4527  24.2057  26.6681
    27.3966  35.2299

          k =-0.0698-0.4888 0.6284 (   463 PWs)   bands (ev):

     9.5190   9.9223  12.1192  13.3043  14.3207  19.0353  21.8085  24.8668
    27.2735  35.9322

          k = 0.0000-0.4189 0.5586 (   460 PWs)   bands (ev):

     9.8597  10.4370  11.4598  12.8736  14.0726  19.4759  22.1807  23.3637
    28.5197  35.9365

          k =-0.6982 0.1396 0.0000 (   460 PWs)   bands (ev):

     9.1470   9.4400  13.2281  13.7490  14.5186  18.7212  21.5138  25.7925
    26.1911  35.2887

          k =-0.1396-0.4189 0.6982 (   459 PWs)   bands (ev):

    10.0657  10.3261  11.0477  13.0413  14.0608  18.1722  23.2940  24.6357
    27.7168  38.1459

          k =-0.0698-0.3491 0.6284 (   462 PWs)   bands (ev):

    10.1033  10.5713  10.9782  12.7769  14.2957  20.0040  21.5274  24.2956
    26.8786  38.2167

          k =-0.6982 0.2793 0.0000 (   454 PWs)   bands (ev):

     9.8268  10.2401  11.5388  12.9398  14.5198  20.9862  21.2827  23.8083
    25.8125  39.0561

 ------ SPIN DOWN ----------


          k = 0.0000 0.0000 0.0000 (   459 PWs)   bands (ev):

     5.9053  11.3211  11.3211  11.3211  12.9095  12.9095  32.5511  36.1768
    36.1768  36.1768

          k = 0.0698 0.0698-0.0698 (   471 PWs)   bands (ev):

     6.2619  11.2124  11.4406  11.4406  12.8629  12.8629  32.7396  33.8476
    36.4140  36.4140

          k = 0.1396 0.1396-0.1396 (   471 PWs)   bands (ev):

     7.2152  11.0716  11.6213  11.6213  12.9122  12.9122  29.6169  33.5329
    36.7273  36.7273

          k = 0.2095 0.2095-0.2095 (   471 PWs)   bands (ev):

     8.2136  11.5430  11.5430  11.5700  13.3608  13.3608  25.4928  32.8725
    36.0571  36.0571

          k = 0.2793 0.2793-0.2793 (   467 PWs)   bands (ev):

     8.5470  11.3592  11.3592  13.3903  13.9265  13.9265  21.5681  31.9791
    34.7958  34.7958

          k =-0.3491-0.3491 0.3491 (   464 PWs)   bands (ev):

     8.5667  11.2788  11.2788  14.1757  14.1757  15.0686  19.2491  31.6364
    34.2362  34.2362

          k = 0.1396 0.0000 0.0000 (   479 PWs)   bands (ev):

     6.3824  11.0795  11.5415  11.5415  12.6517  13.0178  33.0059  34.5600
    35.3381  35.3381

          k = 0.2095 0.0698-0.0698 (   474 PWs)   bands (ev):

     7.1529  10.8463  11.7441  11.7800  12.5288  13.1502  31.1616  33.5721
    34.5631  36.4468

          k = 0.2793 0.1396-0.1396 (   468 PWs)   bands (ev):

     8.2276  10.8926  11.5575  11.8165  13.1216  13.5279  27.0419  33.2431
    33.8168  36.0090

          k = 0.3491 0.2095-0.2095 (   458 PWs)   bands (ev):

     8.7724  11.2617  11.6486  11.8558  14.0168  14.3548  22.9449  32.3115
    33.2122  34.3013

          k =-0.2793-0.4189 0.4189 (   459 PWs)   bands (ev):

     8.8277  11.1168  11.5036  12.9126  14.1928  16.1793  19.6131  31.6144
    33.0478  33.2879

          k =-0.2095-0.3491 0.3491 (   458 PWs)   bands (ev):

     8.8372  11.1717  11.5010  12.8217  13.8629  15.6679  20.5878  31.3495
    32.8323  34.4454

          k =-0.1396-0.2793 0.2793 (   455 PWs)   bands (ev):

     8.7002  11.3211  11.6481  11.6554  13.1941  14.3776  24.3078  31.5926
    33.6948  36.6237

          k =-0.0698-0.2095 0.2095 (   469 PWs)   bands (ev):

     7.8872  10.8834  11.6458  11.8245  12.5965  13.5447  28.3946  32.1376
    35.2696  37.4406

          k = 0.0000-0.1396 0.1396 (   473 PWs)   bands (ev):

     6.8292  11.0147  11.6212  11.6317  12.6138  13.0610  31.9989  32.7284
    35.3251  37.9311

          k = 0.2793 0.0000 0.0000 (   472 PWs)   bands (ev):

     7.6745  10.4906  12.1198  12.1758  12.1758  13.3087  32.8644  32.8644
    33.2099  34.0800

          k = 0.3491 0.0698-0.0698 (   466 PWs)   bands (ev):

     8.5746  10.2452  11.6930  12.4231  13.0765  13.6204  28.8672  31.6267
    32.9952  33.9986

          k = 0.4189 0.1396-0.1396 (   452 PWs)   bands (ev):

     9.2327  10.4937  11.3655  12.3232  14.0880  14.6748  24.6126  30.9821
    31.0070  33.7102

          k =-0.2095-0.4888 0.4888 (   460 PWs)   bands (ev):

     9.3694  10.7635  11.6827  12.1353  14.2393  17.0076  20.8236  29.3234
    31.2294  33.3187

          k =-0.1396-0.4189 0.4189 (   456 PWs)   bands (ev):

     9.4816  10.7942  11.9388  12.0303  13.8667  17.7394  20.1490  28.1641
    32.5505  33.2022

          k =-0.0698-0.3491 0.3491 (   461 PWs)   bands (ev):

     9.5622  10.9448  11.3239  12.0763  13.1446  15.8627  23.6250  27.8670
    33.6216  34.7654

          k = 0.0000-0.2793 0.2793 (   465 PWs)   bands (ev):

     8.9697  10.6681  11.4231  12.2470  12.4168  14.5662  26.8860  28.9469
    34.6227  37.4086

          k = 0.4189 0.0000 0.0000 (   456 PWs)   bands (ev):

     8.9246   9.8333  12.4126  13.1149  13.1149  13.6838  29.8978  29.8978
    30.1494  32.9042

          k = 0.4888 0.0698-0.0698 (   463 PWs)   bands (ev):

     9.2057   9.6896  12.4566  13.2264  14.0997  14.6879  26.0952  28.5187
    28.9204  33.8182

          k =-0.1396-0.5586 0.5586 (   460 PWs)   bands (ev):

     9.3843   9.9868  12.1572  13.0252  14.3055  17.2773  22.4375  26.6487
    29.0138  34.0771

          k =-0.0698-0.4888 0.4888 (   455 PWs)   bands (ev):

     9.6455  10.4610  11.7448  12.7941  13.9724  19.3764  20.5844  24.9660
    30.2677  33.9211

          k =-0.0000-0.4189 0.4189 (   459 PWs)   bands (ev):

     9.9751  10.8693  11.1218  12.5266  13.4118  17.4558  23.6335  24.2234
    32.3673  33.7487

          k = 0.5586 0.0000 0.0000 (   452 PWs)   bands (ev):

     8.9737   9.3472  14.0013  14.0749  14.0749  14.8258  24.9816  27.5273
    27.5273  33.1549

          k =-0.0698-0.6284 0.6284 (   458 PWs)   bands (ev):

     9.0233   9.3584  13.6289  13.8453  14.4001  17.2548  22.6197  25.9427
    27.2721  34.0272

          k = 0.0000-0.5586 0.5586 (   462 PWs)   bands (ev):

     9.2950   9.7938  12.7014  13.4807  14.2147  19.8790  20.7744  24.1647
    28.3106  34.3463

          k =-0.6982 0.0000 0.0000 (   460 PWs)   bands (ev):

     8.8331   9.1707  14.1262  14.5179  14.5179  17.1195  21.8985  26.5888
    26.5888  33.3394

          k = 0.2793 0.1396 0.0000 (   471 PWs)   bands (ev):

     8.0391  10.5803  11.6475  12.1825  12.5020  13.5855  29.6018  31.2080
    35.0327  35.7311

          k = 0.3491 0.2095-0.0698 (   459 PWs)   bands (ev):

     9.0299  10.6635  11.2729  12.1992  13.1031  14.5086  25.9314  30.0610
    33.1331  36.0403

          k =-0.2793-0.4189 0.5586 (   454 PWs)   bands (ev):

     9.3024  10.9455  11.5526  12.0367  13.8344  15.9907  22.0389  29.7980
    31.6020  34.8643

          k =-0.2095-0.3491 0.4888 (   458 PWs)   bands (ev):

     9.2972  10.8199  11.8903  12.1785  14.0690  17.9318  19.2087  30.0715
    30.6924  34.3246

          k = 0.4189 0.1396-0.0000 (   463 PWs)   bands (ev):

     9.2737  10.0218  11.5323  13.1072  13.1870  14.5030  27.1772  28.7985
    30.9454  35.6183

          k =-0.2095-0.4888 0.6284 (   461 PWs)   bands (ev):

     9.6477  10.2636  11.3140  12.9005  13.9192  16.2338  23.7157  27.7590
    29.3152  35.6112

          k =-0.1396-0.4189 0.5586 (   462 PWs)   bands (ev):

     9.7965  10.4915  11.4336  12.6015  14.0917  18.7698  20.3934  26.9692
    29.0187  35.4182

          k =-0.0698-0.3491 0.4888 (   459 PWs)   bands (ev):

    10.0422  10.5390  11.2125  12.5372  13.7583  17.7649  21.9489  26.0658
    30.1614  35.7526

          k = 0.0000-0.2793 0.4189 (   461 PWs)   bands (ev):

     9.9989  10.5289  10.8455  12.6647  13.1403  15.9426  24.8474  26.6054
    31.6671  36.6954

          k =-0.1396-0.5586 0.6982 (   463 PWs)   bands (ev):

     9.3067   9.5962  12.5186  13.7575  14.0701  16.4527  24.2057  26.6681
    27.3966  35.2299

          k =-0.0698-0.4888 0.6284 (   463 PWs)   bands (ev):

     9.5190   9.9223  12.1192  13.3043  14.3207  19.0353  21.8085  24.8668
    27.2735  35.9322

          k = 0.0000-0.4189 0.5586 (   460 PWs)   bands (ev):

     9.8597  10.4370  11.4598  12.8736  14.0726  19.4759  22.1807  23.3637
    28.5197  35.9365

          k =-0.6982 0.1396 0.0000 (   460 PWs)   bands (ev):

     9.1470   9.4400  13.2281  13.7490  14.5186  18.7212  21.5138  25.7925
    26.1911  35.2887

          k =-0.1396-0.4189 0.6982 (   459 PWs)   bands (ev):

    10.0657  10.3261  11.0477  13.0413  14.0608  18.1722  23.2940  24.6357
    27.7168  38.1459

          k =-0.0698-0.3491 0.6284 (   462 PWs)   bands (ev):

    10.1033  10.5713  10.9782  12.7769  14.2957  20.0040  21.5274  24.2956
    26.8786  38.2167

          k =-0.6982 0.2793 0.0000 (   454 PWs)   bands (ev):

     9.8268  10.2401  11.5388  12.9398  14.5198  20.9862  21.2827  23.8083
    25.8125  39.0561

     the Fermi energy is    16.1169 ev

!    total energy              =     -66.87226431 Ry
     estimated scf accuracy    <          9.4E-11 Ry
     smearing contrib. (-TS)   =      -0.00025553 Ry
     internal energy E=F+TS    =     -66.87200877 Ry

     The total energy is F=E-TS. E is the sum of the following terms:
     one-electron contribution =       8.89807966 Ry
     hartree contribution      =       7.16155962 Ry
     xc contribution           =     -10.46066010 Ry
     ewald contribution        =     -72.47098795 Ry

     total magnetization       =    -0.00 Bohr mag/cell
     absolute magnetization    =     0.00 Bohr mag/cell

     convergence has been achieved in  14 iterations

     Forces acting on atoms (cartesian axes, Ry/au):

     atom    1 type  1   force =     0.00000000    0.00000000    0.00000000
     The non-local contrib.  to forces
     atom    1 type  1   force =     0.00000000    0.00000000   -0.00000000
     The ionic contribution  to forces
     atom    1 type  1   force =    -0.00000000   -0.00000000   -0.00000000
     The local contribution  to forces
     atom    1 type  1   force =     0.00000000    0.00000000    0.00000000
     The core correction contribution to forces
     atom    1 type  1   force =     0.00000000    0.00000000    0.00000000
     The Hubbard contrib.    to forces
     atom    1 type  1   force =     0.00000000    0.00000000    0.00000000
     The SCF correction term to forces
     atom    1 type  1   force =     0.00000000    0.00000000    0.00000000

     Total force =     0.000000     Total SCF correction =     0.000000


     Computing stress (Cartesian axis) and pressure

          total   stress  (Ry/bohr**3)                   (kbar)     P=       -0.12
  -0.00000081  -0.00000000   0.00000000           -0.12       -0.00        0.00
  -0.00000000  -0.00000081   0.00000000           -0.00       -0.12        0.00
   0.00000000  -0.00000000  -0.00000081            0.00       -0.00       -0.12

     Energy error            =      2.5E-06 Ry
     Gradient error          =      0.0E+00 Ry/Bohr
     Cell gradient error     =      1.2E-01 kbar
Begin final coordinates
     new unit-cell volume =    112.14564 a.u.^3 (    16.61827 Ang^3 )
     density =     19.68139 g/cm^3

CELL_PARAMETERS (angstrom)
   0.000000000   2.025436356   2.025436356
   2.025436356   0.000000000   2.025436356
   2.025436356   2.025436356   0.000000000

ATOMIC_POSITIONS (angstrom)
Au            0.0000000000        0.0000000000        0.0000000000
End final coordinates



     Writing config-only to output data dir /home/gridsan/epan1/labutil/lab3_samples/problem3/Lab3/Au_a_4.0_ecut_40_nk_10/pwscf.save/

     lsda relaxation :  a final configuration with zero
                        absolute magnetization has been found

     the program is checking if it is really the minimum energy structure
     by performing a new scf iteration without any "electronic" history

     Initial potential from superposition of free atoms

     starting charge      10.9999, renormalised to      11.0000

     total cpu time spent up to now is       16.0 secs

     Self-consistent Calculation

     iteration #  1     ecut=    40.00 Ry     beta= 0.50
     Davidson diagonalization with overlap
     ethr =  1.00E-06,  avg # of iterations =  3.7

     total cpu time spent up to now is       16.6 secs

     total energy              =     -66.47435482 Ry
     estimated scf accuracy    <       0.47128607 Ry

     total magnetization       =     1.33 Bohr mag/cell
     absolute magnetization    =     1.38 Bohr mag/cell

     iteration #  2     ecut=    40.00 Ry     beta= 0.50
     Davidson diagonalization with overlap
     ethr =  4.28E-03,  avg # of iterations =  1.5

     total cpu time spent up to now is       17.0 secs

     total energy              =     -66.76450277 Ry
     estimated scf accuracy    <       0.16016698 Ry

     total magnetization       =     0.33 Bohr mag/cell
     absolute magnetization    =     0.51 Bohr mag/cell

     iteration #  3     ecut=    40.00 Ry     beta= 0.50
     Davidson diagonalization with overlap
     ethr =  1.46E-03,  avg # of iterations =  1.0

     total cpu time spent up to now is       17.3 secs

     total energy              =     -66.85880675 Ry
     estimated scf accuracy    <       0.04871596 Ry

     total magnetization       =     0.25 Bohr mag/cell
     absolute magnetization    =     0.37 Bohr mag/cell

     iteration #  4     ecut=    40.00 Ry     beta= 0.50
     Davidson diagonalization with overlap
     ethr =  4.43E-04,  avg # of iterations =  1.5

     total cpu time spent up to now is       17.7 secs

     total energy              =     -66.87114430 Ry
     estimated scf accuracy    <       0.00315233 Ry

     total magnetization       =    -0.03 Bohr mag/cell
     absolute magnetization    =     0.05 Bohr mag/cell

     iteration #  5     ecut=    40.00 Ry     beta= 0.50
     Davidson diagonalization with overlap
     ethr =  2.87E-05,  avg # of iterations =  1.7

     total cpu time spent up to now is       18.1 secs

     total energy              =     -66.87213067 Ry
     estimated scf accuracy    <       0.00017206 Ry

     total magnetization       =    -0.02 Bohr mag/cell
     absolute magnetization    =     0.03 Bohr mag/cell

     iteration #  6     ecut=    40.00 Ry     beta= 0.50
     Davidson diagonalization with overlap
     ethr =  1.56E-06,  avg # of iterations =  1.7

     total cpu time spent up to now is       18.5 secs

     total energy              =     -66.87224504 Ry
     estimated scf accuracy    <       0.00003514 Ry

     total magnetization       =     0.01 Bohr mag/cell
     absolute magnetization    =     0.01 Bohr mag/cell

     iteration #  7     ecut=    40.00 Ry     beta= 0.50
     Davidson diagonalization with overlap
     ethr =  3.19E-07,  avg # of iterations =  1.5

[...]

     total magnetization       =    -0.00 Bohr mag/cell
     absolute magnetization    =     0.00 Bohr mag/cell

     iteration #  7     ecut=    40.00 Ry     beta= 0.50
     Davidson diagonalization with overlap
     ethr =  1.23E-11,  avg # of iterations =  2.0

     Magnetic moment per site  (integrated on atomic sphere of radius R)
     atom   1 (R=0.413)  charge=  9.2480  magn= -0.0000

     total cpu time spent up to now is       23.9 secs

     End of self-consistent calculation

 ------ SPIN UP ------------


          k = 0.0000 0.0000 0.0000 (   531 PWs)   bands (ev):

     5.9054  11.3207  11.3207  11.3207  12.9092  12.9092  32.5510  36.1767
    36.1767  36.1767

          k = 0.0698 0.0698-0.0698 (   495 PWs)   bands (ev):

     6.2619  11.2122  11.4404  11.4404  12.8627  12.8627  32.7395  33.8475
    36.4139  36.4139

          k = 0.1396 0.1396-0.1396 (   489 PWs)   bands (ev):

     7.2153  11.0715  11.6212  11.6212  12.9120  12.9120  29.6169  33.5328
    36.7272  36.7272

          k = 0.2095 0.2095-0.2095 (   483 PWs)   bands (ev):

     8.2136  11.5429  11.5429  11.5699  13.3607  13.3607  25.4927  32.8725
    36.0571  36.0571

          k = 0.2793 0.2793-0.2793 (   477 PWs)   bands (ev):

     8.5470  11.3591  11.3591  13.3903  13.9263  13.9263  21.5681  31.9791
    34.7958  34.7958

          k =-0.3491-0.3491 0.3491 (   476 PWs)   bands (ev):

     8.5667  11.2787  11.2787  14.1756  14.1756  15.0686  19.2491  31.6364
    34.2362  34.2362

          k = 0.1396 0.0000 0.0000 (   495 PWs)   bands (ev):

     6.3824  11.0794  11.5413  11.5413  12.6515  13.0176  33.0058  34.5600
    35.3381  35.3381

          k = 0.2095 0.0698-0.0698 (   495 PWs)   bands (ev):

     7.1529  10.8462  11.7439  11.7798  12.5287  13.1501  31.1615  33.5721
    34.5630  36.4468

          k = 0.2793 0.1396-0.1396 (   487 PWs)   bands (ev):

     8.2276  10.8925  11.5573  11.8163  13.1215  13.5277  27.0419  33.2431
    33.8168  36.0090

          k = 0.3491 0.2095-0.2095 (   481 PWs)   bands (ev):

     8.7724  11.2616  11.6485  11.8557  14.0167  14.3547  22.9449  32.3115
    33.2122  34.3012

          k =-0.2793-0.4189 0.4189 (   477 PWs)   bands (ev):

     8.8276  11.1166  11.5035  12.9125  14.1926  16.1793  19.6131  31.6144
    33.0478  33.2880

          k =-0.2095-0.3491 0.3491 (   475 PWs)   bands (ev):

     8.8372  11.1716  11.5009  12.8216  13.8627  15.6678  20.5878  31.3495
    32.8323  34.4454

          k =-0.1396-0.2793 0.2793 (   484 PWs)   bands (ev):

     8.7001  11.3209  11.6480  11.6552  13.1939  14.3775  24.3078  31.5925
    33.6948  36.6236

          k =-0.0698-0.2095 0.2095 (   483 PWs)   bands (ev):

     7.8872  10.8833  11.6457  11.8244  12.5964  13.5446  28.3946  32.1375
    35.2696  37.4406

          k = 0.0000-0.1396 0.1396 (   493 PWs)   bands (ev):

     6.8292  11.0145  11.6210  11.6315  12.6136  13.0608  31.9989  32.7284
    35.3250  37.9311

          k = 0.2793 0.0000 0.0000 (   488 PWs)   bands (ev):

     7.6745  10.4905  12.1197  12.1756  12.1756  13.3085  32.8644  32.8644
    33.2099  34.0799

          k = 0.3491 0.0698-0.0698 (   481 PWs)   bands (ev):

     8.5746  10.2450  11.6928  12.4230  13.0763  13.6202  28.8672  31.6267
    32.9951  33.9985

          k = 0.4189 0.1396-0.1396 (   475 PWs)   bands (ev):

     9.2326  10.4936  11.3654  12.3230  14.0878  14.6747  24.6126  30.9821
    31.0069  33.7101

          k =-0.2095-0.4888 0.4888 (   477 PWs)   bands (ev):

     9.3693  10.7633  11.6826  12.1351  14.2392  17.0075  20.8236  29.3233
    31.2294  33.3187

          k =-0.1396-0.4189 0.4189 (   477 PWs)   bands (ev):

     9.4816  10.7940  11.9387  12.0302  13.8665  17.7393  20.1490  28.1641
    32.5505  33.2021

          k =-0.0698-0.3491 0.3491 (   484 PWs)   bands (ev):

     9.5622  10.9446  11.3238  12.0761  13.1445  15.8626  23.6250  27.8670
    33.6216  34.7653

          k = 0.0000-0.2793 0.2793 (   485 PWs)   bands (ev):

     8.9697  10.6680  11.4230  12.2468  12.4167  14.5661  26.8860  28.9469
    34.6227  37.4085

          k = 0.4189 0.0000 0.0000 (   480 PWs)   bands (ev):

     8.9245   9.8332  12.4125  13.1148  13.1148  13.6837  29.8978  29.8978
    30.1493  32.9040

          k = 0.4888 0.0698-0.0698 (   475 PWs)   bands (ev):

     9.2057   9.6895  12.4565  13.2263  14.0996  14.6879  26.0952  28.5187
    28.9204  33.8181

          k =-0.1396-0.5586 0.5586 (   476 PWs)   bands (ev):

     9.3842   9.9867  12.1571  13.0251  14.3054  17.2773  22.4375  26.6486
    29.0138  34.0770

          k =-0.0698-0.4888 0.4888 (   471 PWs)   bands (ev):

     9.6454  10.4609  11.7447  12.7940  13.9722  19.3764  20.5844  24.9659
    30.2677  33.9210

          k =-0.0000-0.4189 0.4189 (   484 PWs)   bands (ev):

     9.9750  10.8692  11.1217  12.5264  13.4117  17.4557  23.6335  24.2234
    32.3672  33.7486

          k = 0.5586 0.0000 0.0000 (   468 PWs)   bands (ev):

     8.9736   9.3471  14.0012  14.0748  14.0748  14.8258  24.9815  27.5273
    27.5273  33.1548

          k =-0.0698-0.6284 0.6284 (   469 PWs)   bands (ev):

     9.0232   9.3583  13.6287  13.8452  14.4000  17.2548  22.6197  25.9427
    27.2721  34.0270

          k = 0.0000-0.5586 0.5586 (   474 PWs)   bands (ev):

     9.2949   9.7937  12.7013  13.4805  14.2146  19.8790  20.7744  24.1646
    28.3106  34.3461

          k =-0.6982 0.0000 0.0000 (   468 PWs)   bands (ev):

     8.8330   9.1705  14.1260  14.5178  14.5178  17.1196  21.8984  26.5888
    26.5888  33.3393

          k = 0.2793 0.1396 0.0000 (   480 PWs)   bands (ev):

     8.0391  10.5802  11.6474  12.1824  12.5019  13.5853  29.6018  31.2080
    35.0327  35.7311

          k = 0.3491 0.2095-0.0698 (   480 PWs)   bands (ev):

     9.0299  10.6634  11.2727  12.1991  13.1030  14.5085  25.9313  30.0610
    33.1330  36.0402

          k =-0.2793-0.4189 0.5586 (   476 PWs)   bands (ev):

     9.3023  10.9454  11.5525  12.0366  13.8342  15.9906  22.0389  29.7980
    31.6019  34.8642

          k =-0.2095-0.3491 0.4888 (   474 PWs)   bands (ev):

     9.2971  10.8197  11.8902  12.1784  14.0689  17.9318  19.2087  30.0715
    30.6924  34.3247

          k = 0.4189 0.1396-0.0000 (   471 PWs)   bands (ev):

     9.2737  10.0217  11.5322  13.1071  13.1868  14.5029  27.1772  28.7985
    30.9453  35.6182

          k =-0.2095-0.4888 0.6284 (   474 PWs)   bands (ev):

     9.6476  10.2634  11.3139  12.9004  13.9191  16.2337  23.7157  27.7590
    29.3152  35.6112

          k =-0.1396-0.4189 0.5586 (   481 PWs)   bands (ev):

     9.7964  10.4914  11.4335  12.6014  14.0915  18.7698  20.3934  26.9692
    29.0187  35.4181

          k =-0.0698-0.3491 0.4888 (   478 PWs)   bands (ev):

    10.0421  10.5389  11.2124  12.5371  13.7581  17.7649  21.9488  26.0657
    30.1614  35.7526

          k = 0.0000-0.2793 0.4189 (   482 PWs)   bands (ev):

     9.9989  10.5288  10.8454  12.6646  13.1402  15.9425  24.8474  26.6053
    31.6670  36.6954

          k =-0.1396-0.5586 0.6982 (   475 PWs)   bands (ev):

     9.3066   9.5961  12.5185  13.7574  14.0699  16.4527  24.2057  26.6681
    27.3965  35.2298

          k =-0.0698-0.4888 0.6284 (   481 PWs)   bands (ev):

     9.5189   9.9222  12.1190  13.3041  14.3206  19.0353  21.8085  24.8667
    27.2735  35.9320

          k = 0.0000-0.4189 0.5586 (   475 PWs)   bands (ev):

     9.8596  10.4369  11.4597  12.8734  14.0725  19.4759  22.1807  23.3637
    28.5197  35.9364

          k =-0.6982 0.1396 0.0000 (   476 PWs)   bands (ev):

     9.1469   9.4398  13.2280  13.7489  14.5185  18.7212  21.5138  25.7925
    26.1911  35.2886

          k =-0.1396-0.4189 0.6982 (   487 PWs)   bands (ev):

    10.0656  10.3259  11.0476  13.0411  14.0606  18.1722  23.2940  24.6357
    27.7168  38.1458

          k =-0.0698-0.3491 0.6284 (   478 PWs)   bands (ev):

    10.1032  10.5712  10.9781  12.7768  14.2956  20.0040  21.5274  24.2956
    26.8785  38.2165

          k =-0.6982 0.2793 0.0000 (   476 PWs)   bands (ev):

     9.8266  10.2399  11.5386  12.9396  14.5196  20.9862  21.2827  23.8083
    25.8124  39.0552

 ------ SPIN DOWN ----------


          k = 0.0000 0.0000 0.0000 (   531 PWs)   bands (ev):

     5.9054  11.3207  11.3207  11.3207  12.9092  12.9092  32.5510  36.1767
    36.1767  36.1767

          k = 0.0698 0.0698-0.0698 (   495 PWs)   bands (ev):

     6.2619  11.2122  11.4404  11.4404  12.8627  12.8627  32.7395  33.8475
    36.4139  36.4139

          k = 0.1396 0.1396-0.1396 (   489 PWs)   bands (ev):

     7.2153  11.0715  11.6212  11.6212  12.9120  12.9120  29.6169  33.5328
    36.7272  36.7272

          k = 0.2095 0.2095-0.2095 (   483 PWs)   bands (ev):

     8.2136  11.5429  11.5429  11.5699  13.3607  13.3607  25.4927  32.8725
    36.0571  36.0571

          k = 0.2793 0.2793-0.2793 (   477 PWs)   bands (ev):

     8.5470  11.3591  11.3591  13.3903  13.9263  13.9263  21.5681  31.9791
    34.7958  34.7958

          k =-0.3491-0.3491 0.3491 (   476 PWs)   bands (ev):

     8.5667  11.2787  11.2787  14.1756  14.1756  15.0686  19.2491  31.6364
    34.2362  34.2362

          k = 0.1396 0.0000 0.0000 (   495 PWs)   bands (ev):

     6.3824  11.0794  11.5413  11.5413  12.6515  13.0176  33.0058  34.5600
    35.3381  35.3381

          k = 0.2095 0.0698-0.0698 (   495 PWs)   bands (ev):

     7.1529  10.8462  11.7439  11.7798  12.5287  13.1501  31.1615  33.5721
    34.5630  36.4468

          k = 0.2793 0.1396-0.1396 (   487 PWs)   bands (ev):

     8.2276  10.8925  11.5573  11.8163  13.1215  13.5277  27.0419  33.2431
    33.8168  36.0090

          k = 0.3491 0.2095-0.2095 (   481 PWs)   bands (ev):

     8.7724  11.2616  11.6485  11.8557  14.0167  14.3547  22.9449  32.3115
    33.2122  34.3012

          k =-0.2793-0.4189 0.4189 (   477 PWs)   bands (ev):

     8.8276  11.1166  11.5035  12.9125  14.1926  16.1793  19.6131  31.6144
    33.0478  33.2880

          k =-0.2095-0.3491 0.3491 (   475 PWs)   bands (ev):

     8.8372  11.1716  11.5009  12.8216  13.8627  15.6678  20.5878  31.3495
    32.8323  34.4454

          k =-0.1396-0.2793 0.2793 (   484 PWs)   bands (ev):

     8.7001  11.3209  11.6480  11.6552  13.1939  14.3775  24.3078  31.5925
    33.6948  36.6236

          k =-0.0698-0.2095 0.2095 (   483 PWs)   bands (ev):

     7.8872  10.8833  11.6457  11.8244  12.5964  13.5446  28.3946  32.1375
    35.2696  37.4406

          k = 0.0000-0.1396 0.1396 (   493 PWs)   bands (ev):

     6.8292  11.0145  11.6210  11.6315  12.6136  13.0608  31.9989  32.7284
    35.3250  37.9311

          k = 0.2793 0.0000 0.0000 (   488 PWs)   bands (ev):

     7.6745  10.4905  12.1197  12.1756  12.1756  13.3085  32.8644  32.8644
    33.2099  34.0799

          k = 0.3491 0.0698-0.0698 (   481 PWs)   bands (ev):

     8.5746  10.2450  11.6928  12.4230  13.0763  13.6202  28.8672  31.6267
    32.9951  33.9985

          k = 0.4189 0.1396-0.1396 (   475 PWs)   bands (ev):

     9.2326  10.4936  11.3654  12.3230  14.0878  14.6747  24.6126  30.9821
    31.0069  33.7101

          k =-0.2095-0.4888 0.4888 (   477 PWs)   bands (ev):

     9.3693  10.7633  11.6826  12.1351  14.2392  17.0075  20.8236  29.3233
    31.2294  33.3187

          k =-0.1396-0.4189 0.4189 (   477 PWs)   bands (ev):

     9.4816  10.7940  11.9387  12.0302  13.8665  17.7393  20.1490  28.1641
    32.5505  33.2021

          k =-0.0698-0.3491 0.3491 (   484 PWs)   bands (ev):

     9.5622  10.9446  11.3238  12.0761  13.1445  15.8626  23.6250  27.8670
    33.6216  34.7653

          k = 0.0000-0.2793 0.2793 (   485 PWs)   bands (ev):

     8.9697  10.6680  11.4230  12.2468  12.4167  14.5661  26.8860  28.9469
    34.6227  37.4086

          k = 0.4189 0.0000 0.0000 (   480 PWs)   bands (ev):

     8.9245   9.8332  12.4125  13.1148  13.1148  13.6837  29.8978  29.8978
    30.1493  32.9040

          k = 0.4888 0.0698-0.0698 (   475 PWs)   bands (ev):

     9.2057   9.6895  12.4565  13.2263  14.0996  14.6879  26.0952  28.5187
    28.9204  33.8181

          k =-0.1396-0.5586 0.5586 (   476 PWs)   bands (ev):

     9.3842   9.9867  12.1571  13.0251  14.3054  17.2773  22.4375  26.6486
    29.0138  34.0770

          k =-0.0698-0.4888 0.4888 (   471 PWs)   bands (ev):

     9.6454  10.4609  11.7447  12.7940  13.9722  19.3764  20.5844  24.9659
    30.2677  33.9210

          k =-0.0000-0.4189 0.4189 (   484 PWs)   bands (ev):

     9.9750  10.8692  11.1217  12.5264  13.4117  17.4557  23.6335  24.2234
    32.3672  33.7486

          k = 0.5586 0.0000 0.0000 (   468 PWs)   bands (ev):

     8.9736   9.3471  14.0012  14.0748  14.0748  14.8258  24.9815  27.5273
    27.5273  33.1548

          k =-0.0698-0.6284 0.6284 (   469 PWs)   bands (ev):

     9.0232   9.3583  13.6287  13.8452  14.4000  17.2548  22.6197  25.9427
    27.2721  34.0270

          k = 0.0000-0.5586 0.5586 (   474 PWs)   bands (ev):

     9.2949   9.7937  12.7013  13.4805  14.2146  19.8790  20.7744  24.1646
    28.3106  34.3461

          k =-0.6982 0.0000 0.0000 (   468 PWs)   bands (ev):

     8.8330   9.1705  14.1260  14.5178  14.5178  17.1196  21.8984  26.5888
    26.5888  33.3393

          k = 0.2793 0.1396 0.0000 (   480 PWs)   bands (ev):

     8.0391  10.5802  11.6474  12.1824  12.5019  13.5853  29.6018  31.2080
    35.0327  35.7311

          k = 0.3491 0.2095-0.0698 (   480 PWs)   bands (ev):

     9.0299  10.6634  11.2727  12.1991  13.1030  14.5085  25.9313  30.0610
    33.1330  36.0402

          k =-0.2793-0.4189 0.5586 (   476 PWs)   bands (ev):

     9.3023  10.9454  11.5525  12.0366  13.8342  15.9906  22.0389  29.7980
    31.6019  34.8642

          k =-0.2095-0.3491 0.4888 (   474 PWs)   bands (ev):

     9.2971  10.8197  11.8902  12.1784  14.0689  17.9318  19.2087  30.0715
    30.6924  34.3247

          k = 0.4189 0.1396-0.0000 (   471 PWs)   bands (ev):

     9.2737  10.0217  11.5322  13.1071  13.1868  14.5029  27.1772  28.7985
    30.9453  35.6182

          k =-0.2095-0.4888 0.6284 (   474 PWs)   bands (ev):

     9.6476  10.2634  11.3139  12.9004  13.9191  16.2337  23.7157  27.7590
    29.3152  35.6112

          k =-0.1396-0.4189 0.5586 (   481 PWs)   bands (ev):

     9.7964  10.4914  11.4335  12.6014  14.0915  18.7698  20.3934  26.9692
    29.0187  35.4181

          k =-0.0698-0.3491 0.4888 (   478 PWs)   bands (ev):

    10.0421  10.5389  11.2124  12.5371  13.7581  17.7649  21.9488  26.0657
    30.1614  35.7526

          k = 0.0000-0.2793 0.4189 (   482 PWs)   bands (ev):

     9.9989  10.5288  10.8454  12.6646  13.1402  15.9425  24.8474  26.6053
    31.6670  36.6954

          k =-0.1396-0.5586 0.6982 (   475 PWs)   bands (ev):

     9.3066   9.5961  12.5185  13.7574  14.0699  16.4527  24.2057  26.6681
    27.3965  35.2298

          k =-0.0698-0.4888 0.6284 (   481 PWs)   bands (ev):

     9.5189   9.9222  12.1190  13.3041  14.3206  19.0353  21.8085  24.8667
    27.2735  35.9320

          k = 0.0000-0.4189 0.5586 (   475 PWs)   bands (ev):

     9.8596  10.4369  11.4597  12.8734  14.0725  19.4759  22.1807  23.3637
    28.5197  35.9364

          k =-0.6982 0.1396 0.0000 (   476 PWs)   bands (ev):

     9.1469   9.4398  13.2280  13.7489  14.5185  18.7212  21.5138  25.7925
    26.1911  35.2886

          k =-0.1396-0.4189 0.6982 (   487 PWs)   bands (ev):

    10.0656  10.3259  11.0476  13.0411  14.0606  18.1722  23.2940  24.6357
    27.7168  38.1458

          k =-0.0698-0.3491 0.6284 (   478 PWs)   bands (ev):

    10.1032  10.5712  10.9781  12.7768  14.2956  20.0040  21.5274  24.2956
    26.8785  38.2165

          k =-0.6982 0.2793 0.0000 (   476 PWs)   bands (ev):

     9.8266  10.2399  11.5386  12.9396  14.5196  20.9862  21.2827  23.8083
    25.8124  39.0552

     the Fermi energy is    16.1168 ev

!    total energy              =     -66.87229649 Ry
     estimated scf accuracy    <          1.9E-11 Ry
     smearing contrib. (-TS)   =      -0.00025546 Ry
     internal energy E=F+TS    =     -66.87204103 Ry

     The total energy is F=E-TS. E is the sum of the following terms:
     one-electron contribution =       8.89814323 Ry
     hartree contribution      =       7.16141162 Ry
     xc contribution           =     -10.46060794 Ry
     ewald contribution        =     -72.47098795 Ry

     total magnetization       =    -0.00 Bohr mag/cell
     absolute magnetization    =     0.00 Bohr mag/cell

     convergence has been achieved in   7 iterations

     Forces acting on atoms (cartesian axes, Ry/au):

     atom    1 type  1   force =     0.00000000    0.00000000    0.00000000
     The non-local contrib.  to forces
     atom    1 type  1   force =     0.00000000    0.00000000    0.00000000
     The ionic contribution  to forces
     atom    1 type  1   force =    -0.00000000   -0.00000000   -0.00000000
     The local contribution  to forces
     atom    1 type  1   force =     0.00000000    0.00000000    0.00000000
     The core correction contribution to forces
     atom    1 type  1   force =     0.00000000    0.00000000    0.00000000
     The Hubbard contrib.    to forces
     atom    1 type  1   force =     0.00000000    0.00000000    0.00000000
     The SCF correction term to forces
     atom    1 type  1   force =     0.00000000    0.00000000    0.00000000

     Total force =     0.000000     Total SCF correction =     0.000000


     Computing stress (Cartesian axis) and pressure

          total   stress  (Ry/bohr**3)                   (kbar)     P=       -0.42
  -0.00000288   0.00000000   0.00000000           -0.42        0.00        0.00
   0.00000000  -0.00000288   0.00000000            0.00       -0.42        0.00
   0.00000000   0.00000000  -0.00000288            0.00        0.00       -0.42


     init_run     :      0.69s CPU      0.91s WALL (       2 calls)
     electrons    :     20.96s CPU     21.36s WALL (       5 calls)
     update_pot   :      0.21s CPU      0.17s WALL (       2 calls)
     forces       :      0.29s CPU      0.34s WALL (       5 calls)
     stress       :      0.66s CPU      0.74s WALL (       5 calls)

     Called by init_run:
     wfcinit      :      0.13s CPU      0.20s WALL (       2 calls)
     potinit      :      0.19s CPU      0.23s WALL (       3 calls)
     hinit0       :      0.38s CPU      0.41s WALL (       2 calls)

     Called by electrons:
     c_bands      :     17.29s CPU     17.86s WALL (      49 calls)
     sum_band     :      3.25s CPU      2.92s WALL (      49 calls)
     v_of_rho     :      0.10s CPU      0.11s WALL (      54 calls)
     newd         :      0.15s CPU      0.16s WALL (      54 calls)
     mix_rho      :      0.08s CPU      0.14s WALL (      49 calls)

     Called by c_bands:
     init_us_2    :      0.33s CPU      0.30s WALL (   10340 calls)
     init_us_2:cp :      0.31s CPU      0.29s WALL (   10340 calls)
     cegterg      :     14.77s CPU     14.09s WALL (    4606 calls)

     Called by *egterg:
     cdiaghg      :      2.46s CPU      2.33s WALL (   12770 calls)
     h_psi        :     10.21s CPU      9.71s WALL (   13240 calls)
     s_psi        :      0.11s CPU      0.10s WALL (   13240 calls)
     g_psi        :      0.04s CPU      0.04s WALL (    8446 calls)

     Called by h_psi:
     h_psi:calbec :      0.67s CPU      0.64s WALL (   13240 calls)
     vloc_psi     :      9.34s CPU      8.87s WALL (   13240 calls)
     add_vuspsi   :      0.12s CPU      0.11s WALL (   13240 calls)

     General routines
     calbec       :      1.07s CPU      1.02s WALL (   20196 calls)
     fft          :      0.16s CPU      0.16s WALL (     600 calls)
     ffts         :      0.13s CPU      0.13s WALL (     206 calls)
     fftw         :     10.31s CPU      9.64s WALL (  267502 calls)
     interpolate  :      0.14s CPU      0.14s WALL (     108 calls)

     Parallel routines

     PWSCF        :     23.08s CPU     24.09s WALL


   This run was terminated on:  11: 8: 1   3Nov2023            

=------------------------------------------------------------------------------=
   JOB DONE.
=------------------------------------------------------------------------------=
