
     Program PWSCF v.7.2 starts on  2Nov2023 at 17:43:10 

     This program is part of the open-source Quantum ESPRESSO suite
     for quantum simulation of materials; please cite
         "P. Giannozzi et al., J. Phys.:Condens. Matter 21 395502 (2009);
         "P. Giannozzi et al., J. Phys.:Condens. Matter 29 465901 (2017);
         "P. Giannozzi et al., J. Chem. Phys. 152 154105 (2020);
          URL http://www.quantum-espresso.org", 
     in publications or presentations arising from this work. More details at
     http://www.quantum-espresso.org/quote

     Parallel version (MPI), running on     2 processors

     MPI processes distributed on     2 nodes
     187204 MiB available memory on the printing compute node when the environment starts

     Waiting for input...
     Reading input from standard input
Warning: card &CELL ignored
Warning: card / ignored

     Current dimensions of program PWSCF are:
     Max number of different atomic species (ntypx) = 10
     Max number of k-points (npk) =  40000
     Max angular momentum in pseudopotentials (lmaxx) =  4
     file O.pz-rrkjus.UPF: wavefunction(s)  2S renormalized
     Message from routine setup:
     using ibrav=0 with symmetry is DISCOURAGED, use correct ibrav instead

     R & G space division:  proc/nbgrp/npool/nimage =       2
     Subspace diagonalization in iterative solution of the eigenvalue problem:
     a serial algorithm will be used


     Parallelization info
     --------------------
     sticks:   dense  smooth     PW     G-vecs:    dense   smooth      PW
     Min         520     258     80                12634     4462     751
     Max         521     259     81                12635     4463     752
     Sum        1041     517    161                25269     8925    1503

     Using Slab Decomposition



     bravais-lattice index     =            0
     lattice parameter (alat)  =       7.3699  a.u.
     unit-cell volume          =     400.3045 (a.u.)^3
     number of atoms/cell      =            5
     number of atomic types    =            3
     number of electrons       =        44.00
     number of Kohn-Sham states=           22
     kinetic-energy cutoff     =      30.0000  Ry
     charge density cutoff     =     240.0000  Ry
     scf convergence threshold =      1.0E-07
     mixing beta               =       0.7000
     number of iterations used =            8  plain     mixing
     Exchange-correlation= SLA  PZ   NOGX NOGC
                           (   1   1   0   0   0   0   0)

     celldm(1)=   7.369932  celldm(2)=   0.000000  celldm(3)=   0.000000
     celldm(4)=   0.000000  celldm(5)=   0.000000  celldm(6)=   0.000000

     crystal axes: (cart. coord. in units of alat)
               a(1) = (   1.000000   0.000000   0.000000 )  
               a(2) = (   0.000000   1.000000   0.000000 )  
               a(3) = (   0.000000   0.000000   1.000000 )  

     reciprocal axes: (cart. coord. in units 2 pi/alat)
               b(1) = (  1.000000  0.000000  0.000000 )  
               b(2) = (  0.000000  1.000000  0.000000 )  
               b(3) = (  0.000000  0.000000  1.000000 )  


     PseudoPot. # 1 for O  read from file:
     /home/gridsan/epan1/labutil/lab3_samples/pseudopotentials/O.pz-rrkjus.UPF
     MD5 check sum: 24fb942a68ef5d262e498166c462ef4a
     Pseudo is Ultrasoft, Zval =  6.0
     Generated by new atomic code, or converted to UPF format
     Using radial grid of 1269 points,  4 beta functions with: 
                l(1) =   0
                l(2) =   0
                l(3) =   1
                l(4) =   1
     Q(r) pseudized with 0 coefficients 


     PseudoPot. # 2 for Pb read from file:
     /home/gridsan/epan1/labutil/lab3_samples/pseudopotentials/Pb.pz-d-van.UPF
     MD5 check sum: 4e1e5920686a026ae26139ac417581ff
     Pseudo is Ultrasoft, Zval = 14.0
     Generated by new atomic code, or converted to UPF format
     Using radial grid of  899 points,  6 beta functions with: 
                l(1) =   0
                l(2) =   0
                l(3) =   1
                l(4) =   1
                l(5) =   2
                l(6) =   2
     Q(r) pseudized with  8 coefficients,  rinner =    1.000   1.000   1.000
                                                       1.000   1.000

     PseudoPot. # 3 for Ti read from file:
     /home/gridsan/epan1/labutil/lab3_samples/pseudopotentials/Ti.pz-sp-van_ak.UPF
     MD5 check sum: 545d0e6e05332b8871a8093f427cb0ca
     Pseudo is Ultrasoft, Zval = 12.0
     Generated by new atomic code, or converted to UPF format
     Using radial grid of  851 points,  6 beta functions with: 
                l(1) =   0
                l(2) =   0
                l(3) =   1
                l(4) =   1
                l(5) =   2
                l(6) =   2
     Q(r) pseudized with  8 coefficients,  rinner =    1.000   1.000   1.000
                                                       1.000   1.000

     atomic species   valence    mass     pseudopotential
        O              6.00    15.99900     O ( 1.00)
        Pb            14.00   207.20000     Pb( 1.00)
        Ti            12.00    47.86700     Ti( 1.00)

     48 Sym. Ops., with inversion, found



   Cartesian axes

     site n.     atom                  positions (alat units)
         1           Pb  tau(   1) = (   0.0000000   0.0000000   0.0000000  )
         2           Ti  tau(   2) = (   0.5000000   0.5000000   0.5000000  )
         3           O   tau(   3) = (   0.0000000   0.5000000   0.5000000  )
         4           O   tau(   4) = (   0.5000000   0.0000000   0.5000000  )
         5           O   tau(   5) = (   0.5000000   0.5000000   0.0000000  )

     number of k points=     4
                       cart. coord. in units 2pi/alat
        k(    1) = (   0.1250000   0.1250000   0.1250000), wk =   0.2500000
        k(    2) = (   0.1250000   0.1250000   0.3750000), wk =   0.7500000
        k(    3) = (   0.1250000   0.3750000   0.3750000), wk =   0.7500000
        k(    4) = (   0.3750000   0.3750000   0.3750000), wk =   0.2500000

     Dense  grid:    25269 G-vectors     FFT dimensions: (  40,  40,  40)

     Smooth grid:     8925 G-vectors     FFT dimensions: (  25,  25,  25)

     Estimated max dynamical RAM per process >      52.08 MB

     Estimated total dynamical RAM >     104.16 MB

     Initial potential from superposition of free atoms

     starting charge      42.9982, renormalised to      44.0000
     Starting wfcs are   31 randomized atomic wfcs

     total cpu time spent up to now is        1.0 secs

     Self-consistent Calculation

     iteration #  1     ecut=    30.00 Ry     beta= 0.70
     Davidson diagonalization with overlap
     ethr =  1.00E-02,  avg # of iterations =  2.0

     total cpu time spent up to now is        1.2 secs

     total energy              =    -332.60338947 Ry
     estimated scf accuracy    <       1.11291638 Ry

     iteration #  2     ecut=    30.00 Ry     beta= 0.70
     Davidson diagonalization with overlap
     ethr =  2.53E-03,  avg # of iterations =  6.0

     total cpu time spent up to now is        1.5 secs

     total energy              =    -332.22490899 Ry
     estimated scf accuracy    <       5.11163562 Ry

     iteration #  3     ecut=    30.00 Ry     beta= 0.70
     Davidson diagonalization with overlap
     ethr =  2.53E-03,  avg # of iterations =  6.2

     total cpu time spent up to now is        1.8 secs

     total energy              =    -333.15746755 Ry
     estimated scf accuracy    <       0.25984071 Ry

     iteration #  4     ecut=    30.00 Ry     beta= 0.70
     Davidson diagonalization with overlap
     ethr =  5.91E-04,  avg # of iterations =  2.0

     total cpu time spent up to now is        2.1 secs

     total energy              =    -333.15085156 Ry
     estimated scf accuracy    <       0.07824303 Ry

     iteration #  5     ecut=    30.00 Ry     beta= 0.70
     Davidson diagonalization with overlap
     ethr =  1.78E-04,  avg # of iterations =  5.0

     total cpu time spent up to now is        2.3 secs

     total energy              =    -333.18232077 Ry
     estimated scf accuracy    <       0.01935499 Ry

     iteration #  6     ecut=    30.00 Ry     beta= 0.70
     Davidson diagonalization with overlap
     ethr =  4.40E-05,  avg # of iterations =  3.0

     total cpu time spent up to now is        2.6 secs

     total energy              =    -333.18194716 Ry
     estimated scf accuracy    <       0.00576667 Ry

     iteration #  7     ecut=    30.00 Ry     beta= 0.70
     Davidson diagonalization with overlap
     ethr =  1.31E-05,  avg # of iterations =  4.5

     total cpu time spent up to now is        2.8 secs

     total energy              =    -333.18367199 Ry
     estimated scf accuracy    <       0.00020540 Ry

     iteration #  8     ecut=    30.00 Ry     beta= 0.70
     Davidson diagonalization with overlap
     ethr =  4.67E-07,  avg # of iterations =  2.5

     total cpu time spent up to now is        3.1 secs

     total energy              =    -333.18365355 Ry
     estimated scf accuracy    <       0.00015186 Ry

     iteration #  9     ecut=    30.00 Ry     beta= 0.70
     Davidson diagonalization with overlap
     ethr =  3.45E-07,  avg # of iterations =  4.0

     total cpu time spent up to now is        3.3 secs

     total energy              =    -333.18366960 Ry
     estimated scf accuracy    <       0.00001323 Ry

     iteration # 10     ecut=    30.00 Ry     beta= 0.70
     Davidson diagonalization with overlap
     ethr =  3.01E-08,  avg # of iterations =  5.0

     total cpu time spent up to now is        3.6 secs

     total energy              =    -333.18367568 Ry
     estimated scf accuracy    <       0.00000104 Ry

     iteration # 11     ecut=    30.00 Ry     beta= 0.70
     Davidson diagonalization with overlap
     ethr =  2.36E-09,  avg # of iterations =  6.2

     total cpu time spent up to now is        3.9 secs

     total energy              =    -333.18367550 Ry
     estimated scf accuracy    <       0.00000373 Ry

     iteration # 12     ecut=    30.00 Ry     beta= 0.70
     Davidson diagonalization with overlap
     ethr =  2.36E-09,  avg # of iterations =  4.2

     total cpu time spent up to now is        4.1 secs

     total energy              =    -333.18367534 Ry
     estimated scf accuracy    <       0.00000152 Ry

     iteration # 13     ecut=    30.00 Ry     beta= 0.70
     Davidson diagonalization with overlap
     ethr =  2.36E-09,  avg # of iterations =  4.2

     total cpu time spent up to now is        4.4 secs

     total energy              =    -333.18367545 Ry
     estimated scf accuracy    <       0.00000019 Ry

     iteration # 14     ecut=    30.00 Ry     beta= 0.70
     Davidson diagonalization with overlap
     ethr =  4.29E-10,  avg # of iterations =  4.8

     total cpu time spent up to now is        4.6 secs

     End of self-consistent calculation

          k = 0.1250 0.1250 0.1250 (  1102 PWs)   bands (ev):

   -45.0485 -21.6390 -21.6380 -21.6380  -6.5466  -5.5069  -5.5069  -4.3032
    -4.3032  -4.2903  -4.1236  -4.1236   4.3603   7.0651   7.0651   7.7800
     8.8851   8.8851   9.6357   9.6847   9.6847   9.8000

          k = 0.1250 0.1250 0.3750 (  1115 PWs)   bands (ev):

   -45.0475 -21.6909 -21.6368 -21.6366  -6.1522  -5.3898  -5.3486  -4.3604
    -4.2983  -4.2858  -4.2194  -4.0965   3.6597   6.5914   7.1199   7.5923
     8.1762   8.4935   9.1013   9.6829   9.8302  10.5241

          k = 0.1250 0.3750 0.3750 (  1103 PWs)   bands (ev):

   -45.0463 -21.6883 -21.6876 -21.6344  -5.9465  -5.2744  -5.2088  -4.3354
    -4.2940  -4.2400  -4.1556  -4.0079   3.3169   6.5539   6.6090   6.9645
     7.2685   8.3846   9.1695   9.2212   9.7161  10.4439

          k = 0.3750 0.3750 0.3750 (  1106 PWs)   bands (ev):

   -45.0452 -21.6862 -21.6857 -21.6857  -5.5677  -5.4024  -5.4024  -4.2533
    -4.2533  -3.9677  -3.9020  -3.9020   3.9275   5.7615   5.7615   6.4444
     6.7901   6.7901   7.6831  10.3979  10.3979  10.4759

     highest occupied level (ev):    10.5241

!    total energy              =    -333.18367548 Ry
     estimated scf accuracy    <       0.00000001 Ry

     The total energy is the sum of the following terms:
     one-electron contribution =     -78.97148327 Ry
     hartree contribution      =      66.92748785 Ry
     xc contribution           =     -49.57434589 Ry
     ewald contribution        =    -271.56533416 Ry

     convergence has been achieved in  14 iterations

     Forces acting on atoms (cartesian axes, Ry/au):

     atom    1 type  2   force =     0.00000000    0.00000000    0.00000000
     atom    2 type  3   force =     0.00000000    0.00000000    0.00000000
     atom    3 type  1   force =     0.00000000    0.00000000    0.00000000
     atom    4 type  1   force =     0.00000000    0.00000000    0.00000000
     atom    5 type  1   force =     0.00000000    0.00000000    0.00000000
     The non-local contrib.  to forces
     atom    1 type  2   force =     0.00000000    0.00000000    0.00000000
     atom    2 type  3   force =     0.00000000    0.00000000    0.00000000
     atom    3 type  1   force =     0.00000000    0.00000000    0.00000000
     atom    4 type  1   force =     0.00000000    0.00000000    0.00000000
     atom    5 type  1   force =     0.00000000    0.00000000    0.00000000
     The ionic contribution  to forces
     atom    1 type  2   force =    -0.00000000   -0.00000000   -0.00000000
     atom    2 type  3   force =     0.00000000    0.00000000    0.00000000
     atom    3 type  1   force =    -0.00000000    0.00000000    0.00000000
     atom    4 type  1   force =     0.00000000   -0.00000000    0.00000000
     atom    5 type  1   force =     0.00000000    0.00000000   -0.00000000
     The local contribution  to forces
     atom    1 type  2   force =    -0.00000000   -0.00000000   -0.00000000
     atom    2 type  3   force =     0.00000000    0.00000000    0.00000000
     atom    3 type  1   force =    -0.00000000    0.00000000    0.00000000
     atom    4 type  1   force =     0.00000000    0.00000000    0.00000000
     atom    5 type  1   force =     0.00000000    0.00000000    0.00000000
     The core correction contribution to forces
     atom    1 type  2   force =     0.00000000    0.00000000    0.00000000
     atom    2 type  3   force =     0.00000000    0.00000000    0.00000000
     atom    3 type  1   force =     0.00000000    0.00000000    0.00000000
     atom    4 type  1   force =     0.00000000    0.00000000    0.00000000
     atom    5 type  1   force =     0.00000000    0.00000000    0.00000000
     The Hubbard contrib.    to forces
     atom    1 type  2   force =     0.00000000    0.00000000    0.00000000
     atom    2 type  3   force =     0.00000000    0.00000000    0.00000000
     atom    3 type  1   force =     0.00000000    0.00000000    0.00000000
     atom    4 type  1   force =     0.00000000    0.00000000    0.00000000
     atom    5 type  1   force =     0.00000000    0.00000000    0.00000000
     The SCF correction term to forces
     atom    1 type  2   force =     0.00000000   -0.00000000   -0.00000000
     atom    2 type  3   force =     0.00000000    0.00000000    0.00000000
     atom    3 type  1   force =    -0.00000000   -0.00000000   -0.00000000
     atom    4 type  1   force =     0.00000000    0.00000000   -0.00000000
     atom    5 type  1   force =     0.00000000   -0.00000000   -0.00000000

     Total force =     0.000000     Total SCF correction =     0.000000


     Computing stress (Cartesian axis) and pressure

          total   stress  (Ry/bohr**3)                   (kbar)     P=      -53.71
  -0.00036511   0.00000000   0.00000000          -53.71        0.00        0.00
   0.00000000  -0.00036511   0.00000000            0.00      -53.71        0.00
   0.00000000   0.00000000  -0.00036511            0.00        0.00      -53.71


     init_run     :      0.67s CPU      0.68s WALL (       1 calls)
     electrons    :      4.25s CPU      3.60s WALL (       1 calls)
     forces       :      0.11s CPU      0.10s WALL (       1 calls)
     stress       :      0.99s CPU      0.82s WALL (       1 calls)

     Called by init_run:
     wfcinit      :      0.07s CPU      0.05s WALL (       1 calls)
     potinit      :      0.04s CPU      0.04s WALL (       1 calls)
     hinit0       :      0.46s CPU      0.47s WALL (       1 calls)

     Called by electrons:
     c_bands      :      1.95s CPU      1.56s WALL (      14 calls)
     sum_band     :      1.39s CPU      1.20s WALL (      14 calls)
     v_of_rho     :      0.05s CPU      0.04s WALL (      15 calls)
     newd         :      0.84s CPU      0.79s WALL (      15 calls)
     mix_rho      :      0.04s CPU      0.03s WALL (      14 calls)

     Called by c_bands:
     init_us_2    :      0.06s CPU      0.05s WALL (     124 calls)
     init_us_2:cp :      0.06s CPU      0.05s WALL (     124 calls)
     cegterg      :      1.80s CPU      1.42s WALL (      56 calls)

     Called by *egterg:
     cdiaghg      :      0.32s CPU      0.24s WALL (     295 calls)
     h_psi        :      1.24s CPU      0.99s WALL (     299 calls)
     s_psi        :      0.05s CPU      0.04s WALL (     299 calls)
     g_psi        :      0.01s CPU      0.01s WALL (     239 calls)

     Called by h_psi:
     h_psi:calbec :      0.08s CPU      0.06s WALL (     299 calls)
     vloc_psi     :      1.10s CPU      0.88s WALL (     299 calls)
     add_vuspsi   :      0.06s CPU      0.04s WALL (     299 calls)

     General routines
     calbec       :      0.10s CPU      0.08s WALL (     375 calls)
     fft          :      0.24s CPU      0.22s WALL (      93 calls)
     ffts         :      0.04s CPU      0.04s WALL (      29 calls)
     fftw         :      1.05s CPU      0.85s WALL (    8276 calls)
     interpolate  :      0.05s CPU      0.04s WALL (      15 calls)

     Parallel routines

     PWSCF        :      6.34s CPU      5.54s WALL


   This run was terminated on:  17:43:16   2Nov2023            

=------------------------------------------------------------------------------=
   JOB DONE.
=------------------------------------------------------------------------------=
