
     Program PWSCF v.7.2 starts on  1Nov2023 at 17: 0:58 

     This program is part of the open-source Quantum ESPRESSO suite
     for quantum simulation of materials; please cite
         "P. Giannozzi et al., J. Phys.:Condens. Matter 21 395502 (2009);
         "P. Giannozzi et al., J. Phys.:Condens. Matter 29 465901 (2017);
         "P. Giannozzi et al., J. Chem. Phys. 152 154105 (2020);
          URL http://www.quantum-espresso.org", 
     in publications or presentations arising from this work. More details at
     http://www.quantum-espresso.org/quote

     Parallel version (MPI), running on     4 processors

     MPI processes distributed on     4 nodes
     186838 MiB available memory on the printing compute node when the environment starts

     Waiting for input...
     Reading input from standard input
Warning: card &CELL ignored
Warning: card / ignored

     Current dimensions of program PWSCF are:
     Max number of different atomic species (ntypx) = 10
     Max number of k-points (npk) =  40000
     Max angular momentum in pseudopotentials (lmaxx) =  4
     file Fe.pbe-nd-rrkjus.UPF: wavefunction(s)  4S renormalized
     Message from routine setup:
     using ibrav=0 with symmetry is DISCOURAGED, use correct ibrav instead

     R & G space division:  proc/nbgrp/npool/nimage =       4
     Subspace diagonalization in iterative solution of the eigenvalue problem:
     a serial algorithm will be used


     Parallelization info
     --------------------
     sticks:   dense  smooth     PW     G-vecs:    dense   smooth      PW
     Min         115      58     19                 3278     1157     223
     Max         116      59     23                 3280     1159     224
     Sum         463     235     85                13117     4633     893

     Using Slab Decomposition



     bravais-lattice index     =            0
     lattice parameter (alat)  =       5.2912  a.u.
     unit-cell volume          =     209.5008 (a.u.)^3
     number of atoms/cell      =            2
     number of atomic types    =            1
     number of electrons       =        16.00
     number of Kohn-Sham states=           12
     kinetic-energy cutoff     =      30.0000  Ry
     charge density cutoff     =     240.0000  Ry
     scf convergence threshold =      1.0E-07
     mixing beta               =       0.5000
     number of iterations used =            8  plain     mixing
     Exchange-correlation=  SLA  PW   PBE  PBE
                           (   1   4   3   4   0   0   0)

     celldm(1)=   5.291233  celldm(2)=   0.000000  celldm(3)=   0.000000
     celldm(4)=   0.000000  celldm(5)=   0.000000  celldm(6)=   0.000000

     crystal axes: (cart. coord. in units of alat)
               a(1) = (   1.000000   0.000000   0.000000 )  
               a(2) = (  -0.500000   0.866025   0.000000 )  
               a(3) = (   0.000000   0.000000   1.632993 )  

     reciprocal axes: (cart. coord. in units 2 pi/alat)
               b(1) = (  1.000000  0.577350 -0.000000 )  
               b(2) = (  0.000000  1.154701  0.000000 )  
               b(3) = (  0.000000 -0.000000  0.612372 )  


     PseudoPot. # 1 for Fe read from file:
     /home/gridsan/epan1/labutil/lab3_samples/pseudopotentials/Fe.pbe-nd-rrkjus.UPF
     MD5 check sum: 398036227a04b607635f6f5e8dfd8242
     Pseudo is Ultrasoft + core correction, Zval =  8.0
     Generated by new atomic code, or converted to UPF format
     Using radial grid of  957 points,  6 beta functions with: 
                l(1) =   0
                l(2) =   0
                l(3) =   1
                l(4) =   1
                l(5) =   2
                l(6) =   2
     Q(r) pseudized with 0 coefficients 


     atomic species   valence    mass     pseudopotential
        Fe             8.00    55.84500     Fe( 1.00)

     Starting magnetic structure 
     atomic species   magnetization
        Fe           0.700

     24 Sym. Ops., with inversion, found (12 have fractional translation)



   Cartesian axes

     site n.     atom                  positions (alat units)
         1           Fe  tau(   1) = (   0.0000000   0.0000000   0.0000000  )
         2           Fe  tau(   2) = (   0.0000000   0.5773500   0.8164964  )

     number of k points=    84  Methfessel-Paxton smearing, width (Ry)=  0.0200
                       cart. coord. in units 2pi/alat
        k(    1) = (   0.0000000   0.0000000   0.0000000), wk =   0.0010000
        k(    2) = (   0.0000000   0.0000000   0.0612372), wk =   0.0020000
        k(    3) = (   0.0000000   0.0000000   0.1224745), wk =   0.0020000
        k(    4) = (   0.0000000   0.0000000   0.1837117), wk =   0.0020000
        k(    5) = (   0.0000000   0.0000000   0.2449490), wk =   0.0020000
        k(    6) = (   0.0000000   0.0000000  -0.3061862), wk =   0.0010000
        k(    7) = (   0.0000000   0.1154701   0.0000000), wk =   0.0060000
        k(    8) = (   0.0000000   0.1154701   0.0612372), wk =   0.0120000
        k(    9) = (   0.0000000   0.1154701   0.1224745), wk =   0.0120000
        k(   10) = (   0.0000000   0.1154701   0.1837117), wk =   0.0120000
        k(   11) = (   0.0000000   0.1154701   0.2449490), wk =   0.0120000
        k(   12) = (   0.0000000   0.1154701  -0.3061862), wk =   0.0060000
        k(   13) = (   0.0000000   0.2309401   0.0000000), wk =   0.0060000
        k(   14) = (   0.0000000   0.2309401   0.0612372), wk =   0.0120000
        k(   15) = (   0.0000000   0.2309401   0.1224745), wk =   0.0120000
        k(   16) = (   0.0000000   0.2309401   0.1837117), wk =   0.0120000
        k(   17) = (   0.0000000   0.2309401   0.2449490), wk =   0.0120000
        k(   18) = (   0.0000000   0.2309401  -0.3061862), wk =   0.0060000
        k(   19) = (   0.0000000   0.3464102   0.0000000), wk =   0.0060000
        k(   20) = (   0.0000000   0.3464102   0.0612372), wk =   0.0120000
        k(   21) = (   0.0000000   0.3464102   0.1224745), wk =   0.0120000
        k(   22) = (   0.0000000   0.3464102   0.1837117), wk =   0.0120000
        k(   23) = (   0.0000000   0.3464102   0.2449490), wk =   0.0120000
        k(   24) = (   0.0000000   0.3464102  -0.3061862), wk =   0.0060000
        k(   25) = (   0.0000000   0.4618802   0.0000000), wk =   0.0060000
        k(   26) = (   0.0000000   0.4618802   0.0612372), wk =   0.0120000
        k(   27) = (   0.0000000   0.4618802   0.1224745), wk =   0.0120000
        k(   28) = (   0.0000000   0.4618802   0.1837117), wk =   0.0120000
        k(   29) = (   0.0000000   0.4618802   0.2449490), wk =   0.0120000
        k(   30) = (   0.0000000   0.4618802  -0.3061862), wk =   0.0060000
        k(   31) = (   0.0000000  -0.5773503   0.0000000), wk =   0.0030000
        k(   32) = (   0.0000000  -0.5773503   0.0612372), wk =   0.0060000
        k(   33) = (   0.0000000  -0.5773503   0.1224745), wk =   0.0060000
        k(   34) = (   0.0000000  -0.5773503   0.1837117), wk =   0.0060000
        k(   35) = (   0.0000000  -0.5773503   0.2449490), wk =   0.0060000
        k(   36) = (   0.0000000  -0.5773503  -0.3061862), wk =   0.0030000
        k(   37) = (   0.1000000   0.1732051   0.0000000), wk =   0.0060000
        k(   38) = (   0.1000000   0.1732051   0.0612372), wk =   0.0120000
        k(   39) = (   0.1000000   0.1732051   0.1224745), wk =   0.0120000
        k(   40) = (   0.1000000   0.1732051   0.1837117), wk =   0.0120000
        k(   41) = (   0.1000000   0.1732051   0.2449490), wk =   0.0120000
        k(   42) = (   0.1000000   0.1732051  -0.3061862), wk =   0.0060000
        k(   43) = (   0.1000000   0.2886751   0.0000000), wk =   0.0120000
        k(   44) = (   0.1000000   0.2886751   0.0612372), wk =   0.0240000
        k(   45) = (   0.1000000   0.2886751   0.1224745), wk =   0.0240000
        k(   46) = (   0.1000000   0.2886751   0.1837117), wk =   0.0240000
        k(   47) = (   0.1000000   0.2886751   0.2449490), wk =   0.0240000
        k(   48) = (   0.1000000   0.2886751  -0.3061862), wk =   0.0120000
        k(   49) = (   0.1000000   0.4041452   0.0000000), wk =   0.0120000
        k(   50) = (   0.1000000   0.4041452   0.0612372), wk =   0.0240000
        k(   51) = (   0.1000000   0.4041452   0.1224745), wk =   0.0240000
        k(   52) = (   0.1000000   0.4041452   0.1837117), wk =   0.0240000
        k(   53) = (   0.1000000   0.4041452   0.2449490), wk =   0.0240000
        k(   54) = (   0.1000000   0.4041452  -0.3061862), wk =   0.0120000
        k(   55) = (   0.1000000   0.5196152   0.0000000), wk =   0.0120000
        k(   56) = (   0.1000000   0.5196152   0.0612372), wk =   0.0240000
        k(   57) = (   0.1000000   0.5196152   0.1224745), wk =   0.0240000
        k(   58) = (   0.1000000   0.5196152   0.1837117), wk =   0.0240000
        k(   59) = (   0.1000000   0.5196152   0.2449490), wk =   0.0240000
        k(   60) = (   0.1000000   0.5196152  -0.3061862), wk =   0.0120000
        k(   61) = (   0.2000000   0.3464102   0.0000000), wk =   0.0060000
        k(   62) = (   0.2000000   0.3464102   0.0612372), wk =   0.0120000
        k(   63) = (   0.2000000   0.3464102   0.1224745), wk =   0.0120000
        k(   64) = (   0.2000000   0.3464102   0.1837117), wk =   0.0120000
        k(   65) = (   0.2000000   0.3464102   0.2449490), wk =   0.0120000
        k(   66) = (   0.2000000   0.3464102  -0.3061862), wk =   0.0060000
        k(   67) = (   0.2000000   0.4618802   0.0000000), wk =   0.0120000
        k(   68) = (   0.2000000   0.4618802   0.0612372), wk =   0.0240000
        k(   69) = (   0.2000000   0.4618802   0.1224745), wk =   0.0240000
        k(   70) = (   0.2000000   0.4618802   0.1837117), wk =   0.0240000
        k(   71) = (   0.2000000   0.4618802   0.2449490), wk =   0.0240000
        k(   72) = (   0.2000000   0.4618802  -0.3061862), wk =   0.0120000
        k(   73) = (   0.2000000   0.5773503   0.0000000), wk =   0.0060000
        k(   74) = (   0.2000000   0.5773503   0.0612372), wk =   0.0120000
        k(   75) = (   0.2000000   0.5773503   0.1224745), wk =   0.0120000
        k(   76) = (   0.2000000   0.5773503   0.1837117), wk =   0.0120000
        k(   77) = (   0.2000000   0.5773503   0.2449490), wk =   0.0120000
        k(   78) = (   0.2000000   0.5773503  -0.3061862), wk =   0.0060000
        k(   79) = (   0.3000000   0.5196152   0.0000000), wk =   0.0060000
        k(   80) = (   0.3000000   0.5196152   0.0612372), wk =   0.0120000
        k(   81) = (   0.3000000   0.5196152   0.1224745), wk =   0.0120000
        k(   82) = (   0.3000000   0.5196152   0.1837117), wk =   0.0120000
        k(   83) = (   0.3000000   0.5196152   0.2449490), wk =   0.0120000
        k(   84) = (   0.3000000   0.5196152  -0.3061862), wk =   0.0060000

     Dense  grid:    13117 G-vectors     FFT dimensions: (  27,  27,  48)

     Smooth grid:     4633 G-vectors     FFT dimensions: (  24,  24,  32)

     Estimated max dynamical RAM per process >      19.22 MB

     Estimated total dynamical RAM >      76.90 MB

     Check: negative core charge=   -0.000001
     Generating pointlists ...
     new r_m :   0.4125 (alat units)  2.1826 (a.u.) for type    1

     Initial potential from superposition of free atoms

     starting charge      15.9987, renormalised to      16.0000
     Starting wfcs are   12 randomized atomic wfcs

     total cpu time spent up to now is        0.9 secs

     Self-consistent Calculation

     iteration #  1     ecut=    30.00 Ry     beta= 0.50
     Davidson diagonalization with overlap
     ethr =  1.00E-02,  avg # of iterations =  3.7

     total cpu time spent up to now is        2.7 secs

     total energy              =    -111.27871139 Ry
     estimated scf accuracy    <       0.62542232 Ry

     total magnetization       =     7.26 Bohr mag/cell
     absolute magnetization    =     7.26 Bohr mag/cell

     iteration #  2     ecut=    30.00 Ry     beta= 0.50
     Davidson diagonalization with overlap
     ethr =  3.91E-03,  avg # of iterations =  2.3

     total cpu time spent up to now is        4.3 secs

     total energy              =    -111.49253816 Ry
     estimated scf accuracy    <       0.10399688 Ry

     total magnetization       =     6.30 Bohr mag/cell
     absolute magnetization    =     6.32 Bohr mag/cell

     iteration #  3     ecut=    30.00 Ry     beta= 0.50
     Davidson diagonalization with overlap
     ethr =  6.50E-04,  avg # of iterations =  1.6

     total cpu time spent up to now is        5.6 secs

     total energy              =    -111.52850215 Ry
     estimated scf accuracy    <       0.01014507 Ry

     total magnetization       =     6.33 Bohr mag/cell
     absolute magnetization    =     6.40 Bohr mag/cell

     iteration #  4     ecut=    30.00 Ry     beta= 0.50
     Davidson diagonalization with overlap
     ethr =  6.34E-05,  avg # of iterations =  3.0

     total cpu time spent up to now is        7.3 secs

     total energy              =    -111.53515512 Ry
     estimated scf accuracy    <       0.00293984 Ry

     total magnetization       =     6.01 Bohr mag/cell
     absolute magnetization    =     6.26 Bohr mag/cell

     iteration #  5     ecut=    30.00 Ry     beta= 0.50
     Davidson diagonalization with overlap
     ethr =  1.84E-05,  avg # of iterations =  2.4

     total cpu time spent up to now is        8.9 secs

     total energy              =    -111.53655208 Ry
     estimated scf accuracy    <       0.00037102 Ry

     total magnetization       =     5.84 Bohr mag/cell
     absolute magnetization    =     6.17 Bohr mag/cell

     iteration #  6     ecut=    30.00 Ry     beta= 0.50
     Davidson diagonalization with overlap
     ethr =  2.32E-06,  avg # of iterations =  4.4

     total cpu time spent up to now is       11.4 secs

     total energy              =    -111.53644170 Ry
     estimated scf accuracy    <       0.00185844 Ry

     total magnetization       =     5.80 Bohr mag/cell
     absolute magnetization    =     6.18 Bohr mag/cell

     iteration #  7     ecut=    30.00 Ry     beta= 0.50
     Davidson diagonalization with overlap
     ethr =  2.32E-06,  avg # of iterations =  3.9

     total cpu time spent up to now is       13.5 secs

     total energy              =    -111.53692283 Ry
     estimated scf accuracy    <       0.00005909 Ry

     total magnetization       =     5.77 Bohr mag/cell
     absolute magnetization    =     6.16 Bohr mag/cell

     iteration #  8     ecut=    30.00 Ry     beta= 0.50
     Davidson diagonalization with overlap
     ethr =  3.69E-07,  avg # of iterations =  1.9

     total cpu time spent up to now is       15.0 secs

     total energy              =    -111.53689002 Ry
     estimated scf accuracy    <       0.00010183 Ry

     total magnetization       =     5.78 Bohr mag/cell
     absolute magnetization    =     6.16 Bohr mag/cell

     iteration #  9     ecut=    30.00 Ry     beta= 0.50
     Davidson diagonalization with overlap
     ethr =  3.69E-07,  avg # of iterations =  2.1

     total cpu time spent up to now is       16.5 secs

     total energy              =    -111.53691019 Ry
     estimated scf accuracy    <       0.00000094 Ry

     total magnetization       =     5.78 Bohr mag/cell
     absolute magnetization    =     6.17 Bohr mag/cell

     iteration # 10     ecut=    30.00 Ry     beta= 0.50
     Davidson diagonalization with overlap
     ethr =  5.89E-09,  avg # of iterations =  8.9

     total cpu time spent up to now is       20.3 secs

     total energy              =    -111.53691458 Ry
     estimated scf accuracy    <       0.00001143 Ry

     total magnetization       =     5.79 Bohr mag/cell
     absolute magnetization    =     6.17 Bohr mag/cell

     iteration # 11     ecut=    30.00 Ry     beta= 0.50
     Davidson diagonalization with overlap
     ethr =  5.89E-09,  avg # of iterations =  3.5

     total cpu time spent up to now is       22.4 secs

     total energy              =    -111.53691504 Ry
     estimated scf accuracy    <       0.00000144 Ry

     total magnetization       =     5.79 Bohr mag/cell
     absolute magnetization    =     6.17 Bohr mag/cell

     iteration # 12     ecut=    30.00 Ry     beta= 0.50
     Davidson diagonalization with overlap
     ethr =  5.89E-09,  avg # of iterations =  2.5

     Magnetic moment per site  (integrated on atomic sphere of radius R)
     atom   1 (R=0.412)  charge=  6.7931  magn=  2.9809
     atom   2 (R=0.412)  charge=  6.7931  magn=  2.9809

     total cpu time spent up to now is       24.1 secs

     End of self-consistent calculation

     Number of k-points >= 100: set verbosity='high' to print the bands.

     the Fermi energy is     9.5170 ev

!    total energy              =    -111.53691532 Ry
     estimated scf accuracy    <       0.00000002 Ry
     smearing contrib. (-TS)   =      -0.00089834 Ry
     internal energy E=F+TS    =    -111.53601698 Ry

     The total energy is F=E-TS. E is the sum of the following terms:
     one-electron contribution =       3.06945120 Ry
     hartree contribution      =      16.52146525 Ry
     xc contribution           =     -52.70326713 Ry
     ewald contribution        =     -78.42366630 Ry

     total magnetization       =     5.79 Bohr mag/cell
     absolute magnetization    =     6.17 Bohr mag/cell

     convergence has been achieved in  12 iterations

     Forces acting on atoms (cartesian axes, Ry/au):

     atom    1 type  1   force =     0.00000000    0.00000000    0.00000000
     atom    2 type  1   force =     0.00000000   -0.00000000    0.00000000
     The non-local contrib.  to forces
     atom    1 type  1   force =     0.00000000   -0.00000000    0.00000000
     atom    2 type  1   force =     0.00000000   -0.00000000    0.00000000
     The ionic contribution  to forces
     atom    1 type  1   force =     0.00000000   -0.00000050   -0.00000562
     atom    2 type  1   force =    -0.00000000    0.00000050    0.00000562
     The local contribution  to forces
     atom    1 type  1   force =    -0.00000150    0.00000262   -0.00000417
     atom    2 type  1   force =    -0.00000150    0.00004542    0.00001996
     The core correction contribution to forces
     atom    1 type  1   force =    -0.00000028    0.00000053   -0.00000040
     atom    2 type  1   force =    -0.00000028    0.00000725    0.00000338
     The Hubbard contrib.    to forces
     atom    1 type  1   force =     0.00000000    0.00000000    0.00000000
     atom    2 type  1   force =     0.00000000    0.00000000    0.00000000
     The SCF correction term to forces
     atom    1 type  1   force =    -0.00000000    0.00000000   -0.00000000
     atom    2 type  1   force =    -0.00000000    0.00000000    0.00000000

     Total force =     0.000000     Total SCF correction =     0.000000


     Computing stress (Cartesian axis) and pressure

          total   stress  (Ry/bohr**3)                   (kbar)     P=     -221.54
  -0.00163885   0.00000000   0.00000000         -241.08        0.00        0.00
   0.00000000  -0.00163885  -0.00000000            0.00     -241.08       -0.00
   0.00000000   0.00000000  -0.00124027            0.00        0.00     -182.45


     init_run     :      0.81s CPU      0.77s WALL (       1 calls)
     electrons    :     27.51s CPU     23.15s WALL (       1 calls)
     forces       :      0.22s CPU      0.21s WALL (       1 calls)
     stress       :      1.04s CPU      0.91s WALL (       1 calls)

     Called by init_run:
     wfcinit      :      0.52s CPU      0.47s WALL (       1 calls)
     potinit      :      0.11s CPU      0.12s WALL (       1 calls)
     hinit0       :      0.15s CPU      0.15s WALL (       1 calls)

     Called by electrons:
     c_bands      :     23.58s CPU     19.80s WALL (      12 calls)
     sum_band     :      3.43s CPU      2.89s WALL (      12 calls)
     v_of_rho     :      0.25s CPU      0.25s WALL (      13 calls)
     newd         :      0.19s CPU      0.13s WALL (      13 calls)
     mix_rho      :      0.03s CPU      0.04s WALL (      12 calls)

     Called by c_bands:
     init_us_2    :      0.47s CPU      0.39s WALL (    4536 calls)
     init_us_2:cp :      0.46s CPU      0.38s WALL (    4536 calls)
     cegterg      :     21.74s CPU     18.05s WALL (    2016 calls)

     Called by *egterg:
     cdiaghg      :      2.85s CPU      2.36s WALL (    8766 calls)
     h_psi        :     16.83s CPU     14.01s WALL (    8934 calls)
     s_psi        :      0.36s CPU      0.29s WALL (    8934 calls)
     g_psi        :      0.07s CPU      0.06s WALL (    6750 calls)

     Called by h_psi:
     h_psi:calbec :      0.80s CPU      0.67s WALL (    8934 calls)
     vloc_psi     :     15.56s CPU     12.95s WALL (    8934 calls)
     add_vuspsi   :      0.36s CPU      0.30s WALL (    8934 calls)

     General routines
     calbec       :      1.09s CPU      0.91s WALL (   11790 calls)
     fft          :      0.29s CPU      0.26s WALL (     363 calls)
     ffts         :      0.11s CPU      0.11s WALL (      50 calls)
     fftw         :     16.22s CPU     13.51s WALL (  176074 calls)
     interpolate  :      0.11s CPU      0.12s WALL (      26 calls)

     Parallel routines

     PWSCF        :     29.71s CPU     25.23s WALL


   This run was terminated on:  17: 1:23   1Nov2023            

=------------------------------------------------------------------------------=
   JOB DONE.
=------------------------------------------------------------------------------=
