Header of the LAMMPS data file 

4 atoms 
1 atom types

0.0 4.242105263157895  xlo xhi
0.0 4.242105263157895  ylo yhi
0.0 4.242105263157895  zlo zhi

Masses 

1  107.8682

Atoms # atomic 

1 1 0.00000 0.00000 0.00000 
2 1 0.00000 2.12105 2.12105 
3 1 2.12105 0.00000 2.12105 
4 1 2.12105 2.12105 0.00000 
