Header of the LAMMPS data file 

4 atoms 
1 atom types

0.0 4.05  xlo xhi
0.0 4.05  ylo yhi
0.0 4.05  zlo zhi

Masses 

1  107.8682

Atoms # atomic 

1 1 0.00000 0.00000 0.00000 
2 1 0.00000 2.02500 2.02500 
3 1 2.02500 0.00000 2.02500 
4 1 2.02500 2.02500 0.00000 
