Header of the LAMMPS data file 

4 atoms 
1 atom types

0.0 3.9868686868686867  xlo xhi
0.0 3.9868686868686867  ylo yhi
0.0 3.9868686868686867  zlo zhi

Masses 

1  107.8682

Atoms # atomic 

1 1 0.00000 0.00000 0.00000 
2 1 0.00000 1.99343 1.99343 
3 1 1.99343 0.00000 1.99343 
4 1 1.99343 1.99343 0.00000 
