Header of the LAMMPS data file 

4 atoms 
1 atom types

0.0 3.906060606060606  xlo xhi
0.0 3.906060606060606  ylo yhi
0.0 3.906060606060606  zlo zhi

Masses 

1  107.8682

Atoms # atomic 

1 1 0.00000 0.00000 0.00000 
2 1 0.00000 1.95303 1.95303 
3 1 1.95303 0.00000 1.95303 
4 1 1.95303 1.95303 0.00000 
