LAMMPS (29 Oct 2020)
Reading data file ...
  orthogonal box = (0.0000000 0.0000000 0.0000000) to (32.720000 32.720000 32.720000)
  1 by 1 by 1 MPI processor grid
  reading atoms ...
  2047 atoms
  read_data CPU = 0.002 seconds
Reading eam potential file /home/gridsan/epan1/3320_atomistic_shared/lammps/potentials/Ag_u3.eam with DATE: 2007-06-11
WARNING: No fixes defined, atoms won't move (../verlet.cpp:54)
Neighbor list info ...
  update every 1 steps, delay 10 steps, check yes
  max neighbors/atom: 2000, page size: 100000
  master list distance cutoff = 7.55
  ghost atom cutoff = 7.55
  binsize = 3.775, bins = 9 9 9
  1 neighbor lists, perpetual/occasional/extra = 1 0 0
  (1) pair eam, perpetual
      attributes: half, newton on
      pair build: half/bin/atomonly/newton
      stencil: half/bin/3d/newton
      bin: standard
Setting up Verlet run ...
  Unit style    : metal
  Current step  : 0
  Time step     : 0.001
Per MPI rank memory allocation (min/avg/max) = 3.494 | 3.494 | 3.494 Mbytes
Step PotEng Lx Ly Lz Press Pxx Pyy Pzz 
       0   -5832.9758        32.72        32.72        32.72   -73.218356   -73.218356   -73.218356   -73.218356 
Loop time of 9.53674e-07 on 1 procs for 0 steps with 2047 atoms

209.7% CPU use with 1 MPI tasks x no OpenMP threads

MPI task timing breakdown:
Section |  min time  |  avg time  |  max time  |%varavg| %total
---------------------------------------------------------------
Pair    | 0          | 0          | 0          |   0.0 |  0.00
Neigh   | 0          | 0          | 0          |   0.0 |  0.00
Comm    | 0          | 0          | 0          |   0.0 |  0.00
Output  | 0          | 0          | 0          |   0.0 |  0.00
Modify  | 0          | 0          | 0          |   0.0 |  0.00
Other   |            | 9.537e-07  |            |       |100.00

Nlocal:        2047.00 ave        2047 max        2047 min
Histogram: 1 0 0 0 0 0 0 0 0 0
Nghost:        4028.00 ave        4028 max        4028 min
Histogram: 1 0 0 0 0 0 0 0 0 0
Neighs:        87978.0 ave       87978 max       87978 min
Histogram: 1 0 0 0 0 0 0 0 0 0

Total # of neighbors = 87978
Ave neighs/atom = 42.978994
Neighbor list builds = 0
Dangerous builds = 0
WARNING: Using 'neigh_modify every 1 delay 0 check yes' setting during minimization (../min.cpp:187)
Setting up cg style minimization ...
  Unit style    : metal
  Current step  : 0
WARNING: Energy due to 1 extra global DOFs will be included in minimizer energies
Per MPI rank memory allocation (min/avg/max) = 4.619 | 4.619 | 4.619 Mbytes
Step PotEng Lx Ly Lz Press Pxx Pyy Pzz 
       0   -5832.9758        32.72        32.72        32.72   -73.218356   -73.218356   -73.218356   -73.218356 
      11   -5832.9834    32.719081    32.719081    32.719081   0.86940088   0.86940088   0.86940088   0.86940088 
Loop time of 0.053704 on 1 procs for 11 steps with 2047 atoms

100.0% CPU use with 1 MPI tasks x no OpenMP threads

Minimization stats:
  Stopping criterion = energy tolerance
  Energy initial, next-to-last, final = 
     -5832.97575099261  -5832.98337449723  -5832.98337457827
  Force two-norm initial, final = 4.8080026 0.084743894
  Force max component initial, final = 4.8025374 0.057022528
  Final line search alpha, max atom move = 0.0085395785 0.00048694836
  Iterations, force evaluations = 11 22

MPI task timing breakdown:
Section |  min time  |  avg time  |  max time  |%varavg| %total
---------------------------------------------------------------
Pair    | 0.051029   | 0.051029   | 0.051029   |   0.0 | 95.02
Neigh   | 0          | 0          | 0          |   0.0 |  0.00
Comm    | 0.00034761 | 0.00034761 | 0.00034761 |   0.0 |  0.65
Output  | 0          | 0          | 0          |   0.0 |  0.00
Modify  | 0          | 0          | 0          |   0.0 |  0.00
Other   |            | 0.002327   |            |       |  4.33

Nlocal:        2047.00 ave        2047 max        2047 min
Histogram: 1 0 0 0 0 0 0 0 0 0
Nghost:        4028.00 ave        4028 max        4028 min
Histogram: 1 0 0 0 0 0 0 0 0 0
Neighs:        87978.0 ave       87978 max       87978 min
Histogram: 1 0 0 0 0 0 0 0 0 0

Total # of neighbors = 87978
Ave neighs/atom = 42.978994
Neighbor list builds = 0
Dangerous builds = 0
Total energy (eV) = -5832.98337457827
Number of atoms = 2047
Lattice constant (Angstoms) = 32.7190812826355
Total wall time: 0:00:00
