
     Program PWSCF v.7.2 starts on  1Nov2023 at 16:59:30 

     This program is part of the open-source Quantum ESPRESSO suite
     for quantum simulation of materials; please cite
         "P. Giannozzi et al., J. Phys.:Condens. Matter 21 395502 (2009);
         "P. Giannozzi et al., J. Phys.:Condens. Matter 29 465901 (2017);
         "P. Giannozzi et al., J. Chem. Phys. 152 154105 (2020);
          URL http://www.quantum-espresso.org", 
     in publications or presentations arising from this work. More details at
     http://www.quantum-espresso.org/quote

     Parallel version (MPI), running on     4 processors

     MPI processes distributed on     4 nodes
     186606 MiB available memory on the printing compute node when the environment starts

     Waiting for input...
     Reading input from standard input
Warning: card &CELL ignored
Warning: card / ignored

     Current dimensions of program PWSCF are:
     Max number of different atomic species (ntypx) = 10
     Max number of k-points (npk) =  40000
     Max angular momentum in pseudopotentials (lmaxx) =  4
     file Fe.pbe-nd-rrkjus.UPF: wavefunction(s)  4S renormalized
     Message from routine setup:
     using ibrav=0 with symmetry is DISCOURAGED, use correct ibrav instead

     R & G space division:  proc/nbgrp/npool/nimage =       4
     Subspace diagonalization in iterative solution of the eigenvalue problem:
     a serial algorithm will be used


     Parallelization info
     --------------------
     sticks:   dense  smooth     PW     G-vecs:    dense   smooth      PW
     Min          70      37     13                 1588      567     115
     Max          71      38     14                 1593      570     118
     Sum         283     151     55                 6363     2273     465

     Using Slab Decomposition



     bravais-lattice index     =            0
     lattice parameter (alat)  =       4.1574  a.u.
     unit-cell volume          =     101.6201 (a.u.)^3
     number of atoms/cell      =            2
     number of atomic types    =            1
     number of electrons       =        16.00
     number of Kohn-Sham states=           12
     kinetic-energy cutoff     =      30.0000  Ry
     charge density cutoff     =     240.0000  Ry
     scf convergence threshold =      1.0E-07
     mixing beta               =       0.5000
     number of iterations used =            8  plain     mixing
     Exchange-correlation=  SLA  PW   PBE  PBE
                           (   1   4   3   4   0   0   0)

     celldm(1)=   4.157397  celldm(2)=   0.000000  celldm(3)=   0.000000
     celldm(4)=   0.000000  celldm(5)=   0.000000  celldm(6)=   0.000000

     crystal axes: (cart. coord. in units of alat)
               a(1) = (   1.000000   0.000000   0.000000 )  
               a(2) = (  -0.500000   0.866025   0.000000 )  
               a(3) = (   0.000000   0.000000   1.632993 )  

     reciprocal axes: (cart. coord. in units 2 pi/alat)
               b(1) = (  1.000000  0.577350 -0.000000 )  
               b(2) = (  0.000000  1.154701  0.000000 )  
               b(3) = (  0.000000 -0.000000  0.612372 )  


     PseudoPot. # 1 for Fe read from file:
     /home/gridsan/epan1/labutil/lab3_samples/pseudopotentials/Fe.pbe-nd-rrkjus.UPF
     MD5 check sum: 398036227a04b607635f6f5e8dfd8242
     Pseudo is Ultrasoft + core correction, Zval =  8.0
     Generated by new atomic code, or converted to UPF format
     Using radial grid of  957 points,  6 beta functions with: 
                l(1) =   0
                l(2) =   0
                l(3) =   1
                l(4) =   1
                l(5) =   2
                l(6) =   2
     Q(r) pseudized with 0 coefficients 


     atomic species   valence    mass     pseudopotential
        Fe             8.00    55.84500     Fe( 1.00)

     Starting magnetic structure 
     atomic species   magnetization
        Fe           0.700

     24 Sym. Ops., with inversion, found (12 have fractional translation)



   Cartesian axes

     site n.     atom                  positions (alat units)
         1           Fe  tau(   1) = (   0.0000000   0.0000000   0.0000000  )
         2           Fe  tau(   2) = (   0.0000000   0.5773500   0.8164955  )

     number of k points=    84  Methfessel-Paxton smearing, width (Ry)=  0.0200
                       cart. coord. in units 2pi/alat
        k(    1) = (   0.0000000   0.0000000   0.0000000), wk =   0.0010000
        k(    2) = (   0.0000000   0.0000000   0.0612372), wk =   0.0020000
        k(    3) = (   0.0000000   0.0000000   0.1224745), wk =   0.0020000
        k(    4) = (   0.0000000   0.0000000   0.1837117), wk =   0.0020000
        k(    5) = (   0.0000000   0.0000000   0.2449490), wk =   0.0020000
        k(    6) = (   0.0000000   0.0000000  -0.3061862), wk =   0.0010000
        k(    7) = (   0.0000000   0.1154701   0.0000000), wk =   0.0060000
        k(    8) = (   0.0000000   0.1154701   0.0612372), wk =   0.0120000
        k(    9) = (   0.0000000   0.1154701   0.1224745), wk =   0.0120000
        k(   10) = (   0.0000000   0.1154701   0.1837117), wk =   0.0120000
        k(   11) = (   0.0000000   0.1154701   0.2449490), wk =   0.0120000
        k(   12) = (   0.0000000   0.1154701  -0.3061862), wk =   0.0060000
        k(   13) = (   0.0000000   0.2309401   0.0000000), wk =   0.0060000
        k(   14) = (   0.0000000   0.2309401   0.0612372), wk =   0.0120000
        k(   15) = (   0.0000000   0.2309401   0.1224745), wk =   0.0120000
        k(   16) = (   0.0000000   0.2309401   0.1837117), wk =   0.0120000
        k(   17) = (   0.0000000   0.2309401   0.2449490), wk =   0.0120000
        k(   18) = (   0.0000000   0.2309401  -0.3061862), wk =   0.0060000
        k(   19) = (   0.0000000   0.3464102   0.0000000), wk =   0.0060000
        k(   20) = (   0.0000000   0.3464102   0.0612372), wk =   0.0120000
        k(   21) = (   0.0000000   0.3464102   0.1224745), wk =   0.0120000
        k(   22) = (   0.0000000   0.3464102   0.1837117), wk =   0.0120000
        k(   23) = (   0.0000000   0.3464102   0.2449490), wk =   0.0120000
        k(   24) = (   0.0000000   0.3464102  -0.3061862), wk =   0.0060000
        k(   25) = (   0.0000000   0.4618802   0.0000000), wk =   0.0060000
        k(   26) = (   0.0000000   0.4618802   0.0612372), wk =   0.0120000
        k(   27) = (   0.0000000   0.4618802   0.1224745), wk =   0.0120000
        k(   28) = (   0.0000000   0.4618802   0.1837117), wk =   0.0120000
        k(   29) = (   0.0000000   0.4618802   0.2449490), wk =   0.0120000
        k(   30) = (   0.0000000   0.4618802  -0.3061862), wk =   0.0060000
        k(   31) = (   0.0000000  -0.5773503   0.0000000), wk =   0.0030000
        k(   32) = (   0.0000000  -0.5773503   0.0612372), wk =   0.0060000
        k(   33) = (   0.0000000  -0.5773503   0.1224745), wk =   0.0060000
        k(   34) = (   0.0000000  -0.5773503   0.1837117), wk =   0.0060000
        k(   35) = (   0.0000000  -0.5773503   0.2449490), wk =   0.0060000
        k(   36) = (   0.0000000  -0.5773503  -0.3061862), wk =   0.0030000
        k(   37) = (   0.1000000   0.1732051   0.0000000), wk =   0.0060000
        k(   38) = (   0.1000000   0.1732051   0.0612372), wk =   0.0120000
        k(   39) = (   0.1000000   0.1732051   0.1224745), wk =   0.0120000
        k(   40) = (   0.1000000   0.1732051   0.1837117), wk =   0.0120000
        k(   41) = (   0.1000000   0.1732051   0.2449490), wk =   0.0120000
        k(   42) = (   0.1000000   0.1732051  -0.3061862), wk =   0.0060000
        k(   43) = (   0.1000000   0.2886751   0.0000000), wk =   0.0120000
        k(   44) = (   0.1000000   0.2886751   0.0612372), wk =   0.0240000
        k(   45) = (   0.1000000   0.2886751   0.1224745), wk =   0.0240000
        k(   46) = (   0.1000000   0.2886751   0.1837117), wk =   0.0240000
        k(   47) = (   0.1000000   0.2886751   0.2449490), wk =   0.0240000
        k(   48) = (   0.1000000   0.2886751  -0.3061862), wk =   0.0120000
        k(   49) = (   0.1000000   0.4041452   0.0000000), wk =   0.0120000
        k(   50) = (   0.1000000   0.4041452   0.0612372), wk =   0.0240000
        k(   51) = (   0.1000000   0.4041452   0.1224745), wk =   0.0240000
        k(   52) = (   0.1000000   0.4041452   0.1837117), wk =   0.0240000
        k(   53) = (   0.1000000   0.4041452   0.2449490), wk =   0.0240000
        k(   54) = (   0.1000000   0.4041452  -0.3061862), wk =   0.0120000
        k(   55) = (   0.1000000   0.5196152   0.0000000), wk =   0.0120000
        k(   56) = (   0.1000000   0.5196152   0.0612372), wk =   0.0240000
        k(   57) = (   0.1000000   0.5196152   0.1224745), wk =   0.0240000
        k(   58) = (   0.1000000   0.5196152   0.1837117), wk =   0.0240000
        k(   59) = (   0.1000000   0.5196152   0.2449490), wk =   0.0240000
        k(   60) = (   0.1000000   0.5196152  -0.3061862), wk =   0.0120000
        k(   61) = (   0.2000000   0.3464102   0.0000000), wk =   0.0060000
        k(   62) = (   0.2000000   0.3464102   0.0612372), wk =   0.0120000
        k(   63) = (   0.2000000   0.3464102   0.1224745), wk =   0.0120000
        k(   64) = (   0.2000000   0.3464102   0.1837117), wk =   0.0120000
        k(   65) = (   0.2000000   0.3464102   0.2449490), wk =   0.0120000
        k(   66) = (   0.2000000   0.3464102  -0.3061862), wk =   0.0060000
        k(   67) = (   0.2000000   0.4618802   0.0000000), wk =   0.0120000
        k(   68) = (   0.2000000   0.4618802   0.0612372), wk =   0.0240000
        k(   69) = (   0.2000000   0.4618802   0.1224745), wk =   0.0240000
        k(   70) = (   0.2000000   0.4618802   0.1837117), wk =   0.0240000
        k(   71) = (   0.2000000   0.4618802   0.2449490), wk =   0.0240000
        k(   72) = (   0.2000000   0.4618802  -0.3061862), wk =   0.0120000
        k(   73) = (   0.2000000   0.5773503   0.0000000), wk =   0.0060000
        k(   74) = (   0.2000000   0.5773503   0.0612372), wk =   0.0120000
        k(   75) = (   0.2000000   0.5773503   0.1224745), wk =   0.0120000
        k(   76) = (   0.2000000   0.5773503   0.1837117), wk =   0.0120000
        k(   77) = (   0.2000000   0.5773503   0.2449490), wk =   0.0120000
        k(   78) = (   0.2000000   0.5773503  -0.3061862), wk =   0.0060000
        k(   79) = (   0.3000000   0.5196152   0.0000000), wk =   0.0060000
        k(   80) = (   0.3000000   0.5196152   0.0612372), wk =   0.0120000
        k(   81) = (   0.3000000   0.5196152   0.1224745), wk =   0.0120000
        k(   82) = (   0.3000000   0.5196152   0.1837117), wk =   0.0120000
        k(   83) = (   0.3000000   0.5196152   0.2449490), wk =   0.0120000
        k(   84) = (   0.3000000   0.5196152  -0.3061862), wk =   0.0060000

     Dense  grid:     6363 G-vectors     FFT dimensions: (  24,  24,  36)

     Smooth grid:     2273 G-vectors     FFT dimensions: (  15,  15,  24)

     Estimated max dynamical RAM per process >      10.05 MB

     Estimated total dynamical RAM >      40.19 MB
     Generating pointlists ...
     new r_m :   0.4125 (alat units)  1.7149 (a.u.) for type    1

     Initial potential from superposition of free atoms

     starting charge      15.9987, renormalised to      16.0000
     Starting wfcs are   12 randomized atomic wfcs

     total cpu time spent up to now is        1.0 secs

     Self-consistent Calculation

     iteration #  1     ecut=    30.00 Ry     beta= 0.50
     Davidson diagonalization with overlap
     ethr =  1.00E-02,  avg # of iterations =  3.6

     total cpu time spent up to now is        4.0 secs

     total energy              =    -111.09834076 Ry
     estimated scf accuracy    <       0.39445564 Ry

     total magnetization       =     5.31 Bohr mag/cell
     absolute magnetization    =     5.31 Bohr mag/cell

     iteration #  2     ecut=    30.00 Ry     beta= 0.50
     Davidson diagonalization with overlap
     ethr =  2.47E-03,  avg # of iterations =  1.6

     total cpu time spent up to now is        8.0 secs

     total energy              =    -111.24417618 Ry
     estimated scf accuracy    <       0.07470466 Ry

     total magnetization       =     4.59 Bohr mag/cell
     absolute magnetization    =     4.59 Bohr mag/cell

     iteration #  3     ecut=    30.00 Ry     beta= 0.50
     Davidson diagonalization with overlap
     ethr =  4.67E-04,  avg # of iterations =  1.2

     total cpu time spent up to now is       11.7 secs

     total energy              =    -111.31848029 Ry
     estimated scf accuracy    <       0.06167186 Ry

     total magnetization       =     3.06 Bohr mag/cell
     absolute magnetization    =     3.09 Bohr mag/cell

     iteration #  4     ecut=    30.00 Ry     beta= 0.50
     Davidson diagonalization with overlap
     ethr =  3.85E-04,  avg # of iterations =  1.3

     total cpu time spent up to now is       15.2 secs

     total energy              =    -111.39260799 Ry
     estimated scf accuracy    <       0.02096414 Ry

     total magnetization       =     1.16 Bohr mag/cell
     absolute magnetization    =     1.39 Bohr mag/cell

     iteration #  5     ecut=    30.00 Ry     beta= 0.50
     Davidson diagonalization with overlap
     ethr =  1.31E-04,  avg # of iterations =  1.7

     total cpu time spent up to now is       19.4 secs

     total energy              =    -111.40378927 Ry
     estimated scf accuracy    <       0.02000178 Ry

     total magnetization       =     0.66 Bohr mag/cell
     absolute magnetization    =     0.72 Bohr mag/cell

     iteration #  6     ecut=    30.00 Ry     beta= 0.50
     Davidson diagonalization with overlap
     ethr =  1.25E-04,  avg # of iterations =  1.6

     total cpu time spent up to now is       21.1 secs

     total energy              =    -111.40050967 Ry
     estimated scf accuracy    <       0.00127365 Ry

     total magnetization       =     0.45 Bohr mag/cell
     absolute magnetization    =     0.51 Bohr mag/cell

     iteration #  7     ecut=    30.00 Ry     beta= 0.50
     Davidson diagonalization with overlap
     ethr =  7.96E-06,  avg # of iterations =  3.4

     total cpu time spent up to now is       26.6 secs

     total energy              =    -111.41076712 Ry
     estimated scf accuracy    <       0.00177791 Ry

     total magnetization       =    -0.20 Bohr mag/cell
     absolute magnetization    =     0.23 Bohr mag/cell

     iteration #  8     ecut=    30.00 Ry     beta= 0.50
     Davidson diagonalization with overlap
     ethr =  7.96E-06,  avg # of iterations =  1.5

     total cpu time spent up to now is       31.0 secs

     total energy              =    -111.41124870 Ry
     estimated scf accuracy    <       0.00041684 Ry

     total magnetization       =    -0.05 Bohr mag/cell
     absolute magnetization    =     0.06 Bohr mag/cell

     iteration #  9     ecut=    30.00 Ry     beta= 0.50
     Davidson diagonalization with overlap
     ethr =  2.61E-06,  avg # of iterations =  1.6

     total cpu time spent up to now is       35.0 secs

     total energy              =    -111.41148691 Ry
     estimated scf accuracy    <       0.00015957 Ry

     total magnetization       =     0.07 Bohr mag/cell
     absolute magnetization    =     0.07 Bohr mag/cell

     iteration # 10     ecut=    30.00 Ry     beta= 0.50
     Davidson diagonalization with overlap
     ethr =  9.97E-07,  avg # of iterations =  2.5

     total cpu time spent up to now is       39.5 secs

     total energy              =    -111.41155294 Ry
     estimated scf accuracy    <       0.00001534 Ry

     total magnetization       =     0.05 Bohr mag/cell
     absolute magnetization    =     0.05 Bohr mag/cell

     iteration # 11     ecut=    30.00 Ry     beta= 0.50
     Davidson diagonalization with overlap
     ethr =  9.59E-08,  avg # of iterations =  4.8

     total cpu time spent up to now is       42.8 secs

     total energy              =    -111.41158016 Ry
     estimated scf accuracy    <       0.00000355 Ry

     total magnetization       =     0.02 Bohr mag/cell
     absolute magnetization    =     0.02 Bohr mag/cell

     iteration # 12     ecut=    30.00 Ry     beta= 0.50
     Davidson diagonalization with overlap
     ethr =  2.22E-08,  avg # of iterations =  4.2

     total cpu time spent up to now is       43.7 secs

     total energy              =    -111.41158304 Ry
     estimated scf accuracy    <       0.00000165 Ry

     total magnetization       =     0.01 Bohr mag/cell
     absolute magnetization    =     0.02 Bohr mag/cell

     iteration # 13     ecut=    30.00 Ry     beta= 0.50
     Davidson diagonalization with overlap
     ethr =  1.03E-08,  avg # of iterations =  2.3

     total cpu time spent up to now is       44.4 secs

     total energy              =    -111.41158303 Ry
     estimated scf accuracy    <       0.00000051 Ry

     total magnetization       =     0.01 Bohr mag/cell
     absolute magnetization    =     0.01 Bohr mag/cell

     iteration # 14     ecut=    30.00 Ry     beta= 0.50
     Davidson diagonalization with overlap
     ethr =  3.20E-09,  avg # of iterations =  3.5

     Magnetic moment per site  (integrated on atomic sphere of radius R)
     atom   1 (R=0.412)  charge=  6.3745  magn=  0.0000
     atom   2 (R=0.412)  charge=  6.3745  magn=  0.0000

     total cpu time spent up to now is       45.3 secs

     End of self-consistent calculation

     Number of k-points >= 100: set verbosity='high' to print the bands.

     the Fermi energy is    22.4690 ev

!    total energy              =    -111.41158473 Ry
     estimated scf accuracy    <       0.00000007 Ry
     smearing contrib. (-TS)   =      -0.00059960 Ry
     internal energy E=F+TS    =    -111.41098513 Ry

     The total energy is F=E-TS. E is the sum of the following terms:
     one-electron contribution =      32.90053743 Ry
     hartree contribution      =       8.91407842 Ry
     xc contribution           =     -53.41366205 Ry
     ewald contribution        =     -99.81193893 Ry

     total magnetization       =     0.00 Bohr mag/cell
     absolute magnetization    =     0.00 Bohr mag/cell

     convergence has been achieved in  14 iterations

     Forces acting on atoms (cartesian axes, Ry/au):

     atom    1 type  1   force =     0.00000000   -0.00000000    0.00000000
     atom    2 type  1   force =     0.00000000    0.00000000    0.00000000
     The non-local contrib.  to forces
     atom    1 type  1   force =     0.00000000   -0.00000000    0.00000000
     atom    2 type  1   force =     0.00000000    0.00000000    0.00000000
     The ionic contribution  to forces
     atom    1 type  1   force =     0.00000000   -0.00000081   -0.00006735
     atom    2 type  1   force =    -0.00000000    0.00000081    0.00006735
     The local contribution  to forces
     atom    1 type  1   force =     0.00000048    0.00000082   -0.00002647
     atom    2 type  1   force =     0.00000048    0.00002842    0.00008905
     The core correction contribution to forces
     atom    1 type  1   force =     0.00000013    0.00000026   -0.00000337
     atom    2 type  1   force =     0.00000013    0.00000546    0.00001841
     The Hubbard contrib.    to forces
     atom    1 type  1   force =     0.00000000    0.00000000    0.00000000
     atom    2 type  1   force =     0.00000000    0.00000000    0.00000000
     The SCF correction term to forces
     atom    1 type  1   force =     0.00000000    0.00000000   -0.00000000
     atom    2 type  1   force =     0.00000000    0.00000000    0.00000000

     Total force =     0.000000     Total SCF correction =     0.000000


     Computing stress (Cartesian axis) and pressure

          total   stress  (Ry/bohr**3)                   (kbar)     P=     1648.04
   0.01193521  -0.00000000   0.00000000         1755.73       -0.00        0.00
  -0.00000000   0.01193521   0.00000000           -0.00     1755.73        0.00
   0.00000000   0.00000000   0.00973897            0.00        0.00     1432.65


     init_run     :      0.57s CPU      0.69s WALL (       1 calls)
     electrons    :     31.16s CPU     44.23s WALL (       1 calls)
     forces       :      0.11s CPU      0.10s WALL (       1 calls)
     stress       :      0.55s CPU      0.48s WALL (       1 calls)

     Called by init_run:
     wfcinit      :      0.22s CPU      0.24s WALL (       1 calls)
     potinit      :      0.07s CPU      0.12s WALL (       1 calls)
     hinit0       :      0.26s CPU      0.30s WALL (       1 calls)

     Called by electrons:
     c_bands      :     26.01s CPU     37.83s WALL (      14 calls)
     sum_band     :      4.42s CPU      5.50s WALL (      14 calls)
     v_of_rho     :      0.34s CPU      0.39s WALL (      15 calls)
     newd         :      0.30s CPU      0.35s WALL (      15 calls)
     mix_rho      :      0.06s CPU      0.10s WALL (      14 calls)

     Called by c_bands:
     init_us_2    :      0.23s CPU      0.28s WALL (    5208 calls)
     init_us_2:cp :      0.22s CPU      0.28s WALL (    5208 calls)
     cegterg      :     20.67s CPU     27.00s WALL (    2352 calls)

     Called by *egterg:
     cdiaghg      :      3.36s CPU      7.12s WALL (    8205 calls)
     h_psi        :     13.09s CPU     15.02s WALL (    8373 calls)
     s_psi        :      0.21s CPU      0.32s WALL (    8373 calls)
     g_psi        :      0.03s CPU      0.03s WALL (    5853 calls)

     Called by h_psi:
     h_psi:calbec :      7.21s CPU      8.16s WALL (    8373 calls)
     vloc_psi     :      5.50s CPU      6.17s WALL (    8373 calls)
     add_vuspsi   :      0.33s CPU      0.63s WALL (    8373 calls)

     General routines
     calbec       :      9.42s CPU     10.92s WALL (   11565 calls)
     fft          :      0.40s CPU      0.47s WALL (     413 calls)
     ffts         :      0.05s CPU      0.07s WALL (      58 calls)
     fftw         :      6.29s CPU      7.26s WALL (  177356 calls)
     interpolate  :      0.05s CPU      0.07s WALL (      30 calls)

     Parallel routines

     PWSCF        :     32.69s CPU     45.86s WALL


   This run was terminated on:  17: 0:16   1Nov2023            

=------------------------------------------------------------------------------=
   JOB DONE.
=------------------------------------------------------------------------------=
