Header of the LAMMPS data file 

4 atoms 
1 atom types

0.0 3.9414141414141413  xlo xhi
0.0 3.9414141414141413  ylo yhi
0.0 3.9414141414141413  zlo zhi

Masses 

1  107.8682

Atoms # atomic 

1 1 0.00000 0.00000 0.00000 
2 1 0.00000 1.97071 1.97071 
3 1 1.97071 0.00000 1.97071 
4 1 1.97071 1.97071 0.00000 
