Header of the LAMMPS data file 

4 atoms 
1 atom types

0.0 4.229292929292929  xlo xhi
0.0 4.229292929292929  ylo yhi
0.0 4.229292929292929  zlo zhi

Masses 

1  107.8682

Atoms # atomic 

1 1 0.00000 0.00000 0.00000 
2 1 0.00000 2.11465 2.11465 
3 1 2.11465 0.00000 2.11465 
4 1 2.11465 2.11465 0.00000 
