
     Program PWSCF v.7.2 starts on  1Nov2023 at 17:44: 9 

     This program is part of the open-source Quantum ESPRESSO suite
     for quantum simulation of materials; please cite
         "P. Giannozzi et al., J. Phys.:Condens. Matter 21 395502 (2009);
         "P. Giannozzi et al., J. Phys.:Condens. Matter 29 465901 (2017);
         "P. Giannozzi et al., J. Chem. Phys. 152 154105 (2020);
          URL http://www.quantum-espresso.org", 
     in publications or presentations arising from this work. More details at
     http://www.quantum-espresso.org/quote

     Parallel version (MPI), running on     8 processors

     MPI processes distributed on     8 nodes
     186557 MiB available memory on the printing compute node when the environment starts

     Waiting for input...
     Reading input from standard input

     Current dimensions of program PWSCF are:
     Max number of different atomic species (ntypx) = 10
     Max number of k-points (npk) =  40000
     Max angular momentum in pseudopotentials (lmaxx) =  4
     file Fe.pbe-nd-rrkjus.UPF: wavefunction(s)  4S renormalized
     Message from routine find_sym:
     Not a group! Trying with lower acceptance parameter...
     Message from routine find_sym:
     Symmetry operations form a group
     Message from routine setup:
     using ibrav=0 with symmetry is DISCOURAGED, use correct ibrav instead

     R & G space division:  proc/nbgrp/npool/nimage =       8
     Subspace diagonalization in iterative solution of the eigenvalue problem:
     a serial algorithm will be used


     Parallelization info
     --------------------
     sticks:   dense  smooth     PW     G-vecs:    dense   smooth      PW
     Min          45      23      7                 1167      417      81
     Max          46      24      8                 1174      422      84
     Sum         367     187     61                 9369     3357     663

     Using Slab Decomposition



     bravais-lattice index     =            0
     lattice parameter (alat)  =       4.7243  a.u.
     unit-cell volume          =     149.1185 (a.u.)^3
     number of atoms/cell      =            2
     number of atomic types    =            1
     number of electrons       =        16.00
     number of Kohn-Sham states=           12
     kinetic-energy cutoff     =      30.0000  Ry
     charge density cutoff     =     240.0000  Ry
     scf convergence threshold =      1.0E-07
     mixing beta               =       0.5000
     number of iterations used =            8  plain     mixing
     energy convergence thresh.=      1.0E-04
     force convergence thresh. =      1.0E-03
     press convergence thresh. =      5.0E-01
     Exchange-correlation=  SLA  PW   PBE  PBE
                           (   1   4   3   4   0   0   0)
     nstep                     =           50


     celldm(1)=   4.724315  celldm(2)=   0.000000  celldm(3)=   0.000000
     celldm(4)=   0.000000  celldm(5)=   0.000000  celldm(6)=   0.000000

     crystal axes: (cart. coord. in units of alat)
               a(1) = (   1.000000   0.000000   0.000000 )  
               a(2) = (  -0.500000   0.866025   0.000000 )  
               a(3) = (   0.000000   0.000000   1.632993 )  

     reciprocal axes: (cart. coord. in units 2 pi/alat)
               b(1) = (  1.000000  0.577350 -0.000000 )  
               b(2) = (  0.000000  1.154701  0.000000 )  
               b(3) = (  0.000000 -0.000000  0.612372 )  


     PseudoPot. # 1 for Fe read from file:
     /home/gridsan/epan1/labutil/lab3_samples/pseudopotentials/Fe.pbe-nd-rrkjus.UPF
     MD5 check sum: 398036227a04b607635f6f5e8dfd8242
     Pseudo is Ultrasoft + core correction, Zval =  8.0
     Generated by new atomic code, or converted to UPF format
     Using radial grid of  957 points,  6 beta functions with: 
                l(1) =   0
                l(2) =   0
                l(3) =   1
                l(4) =   1
                l(5) =   2
                l(6) =   2
     Q(r) pseudized with 0 coefficients 


     atomic species   valence    mass     pseudopotential
        Fe             8.00    55.84500     Fe( 1.00)

     Starting magnetic structure 
     atomic species   magnetization
        Fe           0.700

      4 Sym. Ops. (no inversion) found



   Cartesian axes

     site n.     atom                  positions (alat units)
         1           Fe  tau(   1) = (   0.0000000   0.0000000   0.0000000  )
         2           Fe  tau(   2) = (  -0.0000000   0.5773520   0.8164960  )

     number of k points=     8  Methfessel-Paxton smearing, width (Ry)=  0.0200
                       cart. coord. in units 2pi/alat
        k(    1) = (   0.0000000   0.0000000   0.0000000), wk =   0.0370370
        k(    2) = (   0.0000000   0.0000000   0.2041241), wk =   0.0740741
        k(    3) = (   0.0000000   0.3849002   0.0000000), wk =   0.0740741
        k(    4) = (   0.0000000   0.3849002   0.2041241), wk =   0.1481481
        k(    5) = (   0.3333333   0.5773503   0.0000000), wk =   0.0740741
        k(    6) = (   0.3333333   0.5773503   0.2041241), wk =   0.1481481
        k(    7) = (   0.3333333  -0.1924501   0.0000000), wk =   0.1481481
        k(    8) = (   0.3333333  -0.1924501   0.2041241), wk =   0.2962963

     Dense  grid:     9369 G-vectors     FFT dimensions: (  24,  24,  40)

     Smooth grid:     3357 G-vectors     FFT dimensions: (  18,  18,  27)

     Estimated max dynamical RAM per process >       7.44 MB

     Estimated total dynamical RAM >      59.55 MB
     Generating pointlists ...
     new r_m :   0.4125 (alat units)  1.9488 (a.u.) for type    1

     Initial potential from superposition of free atoms

     starting charge      15.9987, renormalised to      16.0000
     Starting wfcs are   12 randomized atomic wfcs

     total cpu time spent up to now is        2.0 secs

     Self-consistent Calculation

     iteration #  1     ecut=    30.00 Ry     beta= 0.50
     Davidson diagonalization with overlap
     ethr =  1.00E-02,  avg # of iterations =  3.6

     total cpu time spent up to now is        3.3 secs

     total energy              =    -111.37961286 Ry
     estimated scf accuracy    <       0.46601178 Ry

     total magnetization       =     6.58 Bohr mag/cell
     absolute magnetization    =     6.58 Bohr mag/cell

     iteration #  2     ecut=    30.00 Ry     beta= 0.50
     Davidson diagonalization with overlap
     ethr =  2.91E-03,  avg # of iterations =  1.9

     total cpu time spent up to now is        4.7 secs

     total energy              =    -111.54401016 Ry
     estimated scf accuracy    <       0.04521411 Ry

     total magnetization       =     5.70 Bohr mag/cell
     absolute magnetization    =     5.73 Bohr mag/cell

     iteration #  3     ecut=    30.00 Ry     beta= 0.50
     Davidson diagonalization with overlap
     ethr =  2.83E-04,  avg # of iterations =  1.7

     total cpu time spent up to now is        5.5 secs

     total energy              =    -111.56929485 Ry
     estimated scf accuracy    <       0.01106066 Ry

     total magnetization       =     5.78 Bohr mag/cell
     absolute magnetization    =     5.81 Bohr mag/cell

     iteration #  4     ecut=    30.00 Ry     beta= 0.50
     Davidson diagonalization with overlap
     ethr =  6.91E-05,  avg # of iterations =  3.2

     total cpu time spent up to now is        7.4 secs

     total energy              =    -111.56333795 Ry
     estimated scf accuracy    <       0.15201127 Ry

     total magnetization       =     5.78 Bohr mag/cell
     absolute magnetization    =     5.85 Bohr mag/cell

     iteration #  5     ecut=    30.00 Ry     beta= 0.50
     Davidson diagonalization with overlap
     ethr =  6.91E-05,  avg # of iterations =  1.7

     total cpu time spent up to now is        8.1 secs

     total energy              =    -111.57227207 Ry
     estimated scf accuracy    <       0.00022975 Ry

     total magnetization       =     5.78 Bohr mag/cell
     absolute magnetization    =     5.84 Bohr mag/cell

     iteration #  6     ecut=    30.00 Ry     beta= 0.50
     Davidson diagonalization with overlap
     ethr =  1.44E-06,  avg # of iterations =  7.5

     total cpu time spent up to now is       10.6 secs

     total energy              =    -111.57258112 Ry
     estimated scf accuracy    <       0.00066544 Ry

     total magnetization       =     5.78 Bohr mag/cell
     absolute magnetization    =     5.86 Bohr mag/cell

     iteration #  7     ecut=    30.00 Ry     beta= 0.50
     Davidson diagonalization with overlap
     ethr =  1.44E-06,  avg # of iterations =  1.2

     total cpu time spent up to now is       13.1 secs

     total energy              =    -111.57264384 Ry
     estimated scf accuracy    <       0.00003742 Ry

     total magnetization       =     5.78 Bohr mag/cell
     absolute magnetization    =     5.86 Bohr mag/cell

     iteration #  8     ecut=    30.00 Ry     beta= 0.50
     Davidson diagonalization with overlap
     ethr =  2.34E-07,  avg # of iterations =  4.1

     total cpu time spent up to now is       14.5 secs

     total energy              =    -111.57267138 Ry
     estimated scf accuracy    <       0.00000692 Ry

     total magnetization       =     5.78 Bohr mag/cell
     absolute magnetization    =     5.87 Bohr mag/cell

     iteration #  9     ecut=    30.00 Ry     beta= 0.50
     Davidson diagonalization with overlap
     ethr =  4.32E-08,  avg # of iterations =  4.3

     total cpu time spent up to now is       16.0 secs

     total energy              =    -111.57267554 Ry
     estimated scf accuracy    <       0.00000033 Ry

     total magnetization       =     5.78 Bohr mag/cell
     absolute magnetization    =     5.87 Bohr mag/cell

     iteration # 10     ecut=    30.00 Ry     beta= 0.50
     Davidson diagonalization with overlap
     ethr =  2.06E-09,  avg # of iterations =  6.4

     total cpu time spent up to now is       17.9 secs

     total energy              =    -111.57267636 Ry
     estimated scf accuracy    <       0.00000028 Ry

     total magnetization       =     5.78 Bohr mag/cell
     absolute magnetization    =     5.87 Bohr mag/cell

     iteration # 11     ecut=    30.00 Ry     beta= 0.50
     Davidson diagonalization with overlap
     ethr =  1.77E-09,  avg # of iterations =  1.6

     Magnetic moment per site  (integrated on atomic sphere of radius R)
     atom   1 (R=0.412)  charge=  6.5949  magn=  2.8743
     atom   2 (R=0.412)  charge=  6.5948  magn=  2.8743

     total cpu time spent up to now is       18.7 secs

     End of self-consistent calculation

 ------ SPIN UP ------------


          k = 0.0000 0.0000 0.0000 (   391 PWs)   bands (ev):

     5.3644   8.9074  11.4511  11.4511  11.6188  11.7907  11.7907  12.1742
    12.1742  13.3597  13.3597  14.0973

          k = 0.0000 0.0000 0.2041 (   398 PWs)   bands (ev):

     6.4321   8.5075  11.3265  11.3265  11.3732  11.5378  11.5378  11.8403
    12.6935  12.6935  13.2475  13.2475

          k = 0.0000 0.3849 0.0000 (   419 PWs)   bands (ev):

     8.4551   9.5366   9.8415  11.0022  11.4577  11.6790  11.7248  13.0172
    13.1763  13.3868  13.5683  20.6889

          k = 0.0000 0.3849 0.2041 (   413 PWs)   bands (ev):

     8.6679   9.3846  10.1436  10.6156  11.8297  11.8459  12.5734  12.7052
    13.1484  13.3762  13.4124  16.1526

          k = 0.3333 0.5774 0.0000 (   420 PWs)   bands (ev):

     9.5344  10.1954  10.1954  10.3612  11.1284  11.1285  12.1634  13.3333
    13.4582  13.4583  18.9360  19.8794

          k = 0.3333 0.5774 0.2041 (   420 PWs)   bands (ev):

     9.9270  10.1571  10.1571  10.3750  11.1377  11.1378  12.0905  12.5679
    13.6102  13.6104  20.1118  20.1118

          k = 0.3333-0.1925 0.0000 (   419 PWs)   bands (ev):

     8.4551   9.5365   9.8415  11.0022  11.4577  11.6790  11.7247  13.0172
    13.1763  13.3868  13.5683  20.6889

          k = 0.3333-0.1925 0.2041 (   413 PWs)   bands (ev):

     8.6679   9.3846  10.1436  10.6156  11.8297  11.8459  12.5734  12.7052
    13.1484  13.3762  13.4124  16.1526

 ------ SPIN DOWN ----------


          k = 0.0000 0.0000 0.0000 (   391 PWs)   bands (ev):

     5.7664  10.5322  14.1700  14.3922  14.4658  14.4658  14.9002  14.9002
    15.5524  15.5524  16.9326  16.9326

          k = 0.0000 0.0000 0.2041 (   398 PWs)   bands (ev):

     6.8596   9.4067  13.4101  13.7745  14.3542  14.3542  14.6052  14.6052
    16.1398  16.1398  16.8019  16.8019

          k = 0.0000 0.3849 0.0000 (   419 PWs)   bands (ev):

     9.1816  11.7612  12.1085  13.0380  14.3068  14.5923  14.6501  16.1498
    16.3198  16.5119  17.2042  22.3257

          k = 0.0000 0.3849 0.2041 (   413 PWs)   bands (ev):

     9.7976  11.1538  12.4309  13.1518  13.9964  14.6347  15.0809  16.0250
    16.4492  16.5087  16.9038  18.3926

          k = 0.3333 0.5774 0.0000 (   420 PWs)   bands (ev):

    12.0572  12.0858  12.0859  12.2756  13.9747  13.9747  15.1202  16.4952
    16.4952  16.9108  20.7299  21.5430

          k = 0.3333 0.5774 0.2041 (   420 PWs)   bands (ev):

    12.2911  12.3868  12.3980  12.3981  13.5501  13.5501  15.1397  15.9233
    16.6851  16.6851  21.6821  21.6821

          k = 0.3333-0.1925 0.0000 (   419 PWs)   bands (ev):

     9.1816  11.7612  12.1085  13.0380  14.3068  14.5923  14.6501  16.1498
    16.3198  16.5119  17.2042  22.3255

          k = 0.3333-0.1925 0.2041 (   413 PWs)   bands (ev):

     9.7976  11.1538  12.4309  13.1518  13.9964  14.6347  15.0809  16.0250
    16.4492  16.5087  16.9038  18.3926

     the Fermi energy is    14.3644 ev

!    total energy              =    -111.57267641 Ry
     estimated scf accuracy    <          6.8E-09 Ry
     smearing contrib. (-TS)   =       0.00055905 Ry
     internal energy E=F+TS    =    -111.57323546 Ry

     The total energy is F=E-TS. E is the sum of the following terms:
     one-electron contribution =      16.57840064 Ry
     hartree contribution      =      12.76928157 Ry
     xc contribution           =     -53.08641141 Ry
     ewald contribution        =     -87.83450626 Ry

     total magnetization       =     5.78 Bohr mag/cell
     absolute magnetization    =     5.87 Bohr mag/cell

     convergence has been achieved in  11 iterations

     Forces acting on atoms (cartesian axes, Ry/au):

     atom    1 type  1   force =     0.00000000    0.00001125    0.00000000
     atom    2 type  1   force =     0.00000000   -0.00001125    0.00000000
     The non-local contrib.  to forces
     atom    1 type  1   force =     0.00000000   -0.00000226    0.00000000
     atom    2 type  1   force =     0.00000000   -0.00000295    0.00000000
     The ionic contribution  to forces
     atom    1 type  1   force =    -0.00000000    0.00000403   -0.00002690
     atom    2 type  1   force =     0.00000000   -0.00000403    0.00002690
     The local contribution  to forces
     atom    1 type  1   force =    -0.00000000    0.00000152    0.00000000
     atom    2 type  1   force =    -0.00000000   -0.00000072    0.00007644
     The core correction contribution to forces
     atom    1 type  1   force =    -0.00000000    0.00000029    0.00000000
     atom    2 type  1   force =    -0.00000000   -0.00000094    0.00001260
     The Hubbard contrib.    to forces
     atom    1 type  1   force =     0.00000000    0.00000000    0.00000000
     atom    2 type  1   force =     0.00000000    0.00000000    0.00000000
     The SCF correction term to forces
     atom    1 type  1   force =     0.00000000    0.00000153    0.00000000
     atom    2 type  1   force =    -0.00000000   -0.00000877   -0.00000000

     Total force =     0.000016     Total SCF correction =     0.000009
     SCF correction compared to forces is large: reduce conv_thr to get better values


     Computing stress (Cartesian axis) and pressure

          total   stress  (Ry/bohr**3)                   (kbar)     P=      288.09
   0.00170935   0.00000000   0.00000000          251.45        0.00        0.00
   0.00000000   0.00170934   0.00000000            0.00      251.45        0.00
   0.00000000   0.00000000   0.00245645            0.00        0.00      361.36


     BFGS Geometry Optimization
     Energy error            =      0.0E+00 Ry
     Gradient error          =      1.1E-05 Ry/Bohr
     Cell gradient error     =      3.6E+02 kbar

     number of scf cycles    =   1
     number of bfgs steps    =   0

     enthalpy           new  =    -111.5726764086 Ry

     new trust radius        =       0.1499837258 bohr
     new conv_thr            =       0.0000001000 Ry

     new unit-cell volume =    172.09256 a.u.^3 (    25.50149 Ang^3 )
     density =      7.27274 g/cm^3

CELL_PARAMETERS (angstrom)
   2.606834370  -0.000000000   0.000000000
  -1.303417185   2.257584276   0.000000000
   0.000000000   0.000000000   4.333193509

ATOMIC_POSITIONS (angstrom)
Fe            0.0000000000        0.0000062095        0.0000000000
Fe            0.0000000000        1.5050544867        2.1665952132



     Writing config-only to output data dir /home/gridsan/epan1/labutil/lab3_samples/problem1/Lab3/Fe_hcp_a_2.5_ecut_30_nk_3/pwscf.save/
     NEW-OLD atomic charge density approx. for the potential

     Check: negative core charge=   -0.000009
     extrapolated charge   18.13580, renormalised to   16.00000
     Generating pointlists ...

     total cpu time spent up to now is       20.5 secs

     Self-consistent Calculation

     iteration #  1     ecut=    30.00 Ry     beta= 0.50
     Davidson diagonalization with overlap
     ethr =  1.00E-06,  avg # of iterations = 13.2

     total cpu time spent up to now is       24.2 secs

     total energy              =    -109.96276745 Ry
     estimated scf accuracy    <       1.59866909 Ry

     total magnetization       =     4.44 Bohr mag/cell
     absolute magnetization    =     4.66 Bohr mag/cell

     iteration #  2     ecut=    30.00 Ry     beta= 0.50
     Davidson diagonalization with overlap
     ethr =  9.99E-03,  avg # of iterations =  3.4

     total cpu time spent up to now is       25.1 secs

     total energy              =    -111.43382472 Ry
     estimated scf accuracy    <       4.02334317 Ry

     total magnetization       =     4.21 Bohr mag/cell
     absolute magnetization    =     4.47 Bohr mag/cell

     iteration #  3     ecut=    30.00 Ry     beta= 0.50
     Davidson diagonalization with overlap
     ethr =  9.99E-03,  avg # of iterations =  1.7

     total cpu time spent up to now is       25.8 secs

     total energy              =    -111.64121920 Ry
     estimated scf accuracy    <       0.64201412 Ry

     total magnetization       =     5.70 Bohr mag/cell
     absolute magnetization    =     5.75 Bohr mag/cell

     iteration #  4     ecut=    30.00 Ry     beta= 0.50
     Davidson diagonalization with overlap
     ethr =  4.01E-03,  avg # of iterations =  1.2

     total cpu time spent up to now is       26.8 secs

     total energy              =    -111.63628108 Ry
     estimated scf accuracy    <       0.31159339 Ry

     total magnetization       =     5.70 Bohr mag/cell
     absolute magnetization    =     5.78 Bohr mag/cell

     iteration #  5     ecut=    30.00 Ry     beta= 0.50
     Davidson diagonalization with overlap
     ethr =  1.95E-03,  avg # of iterations =  1.1

     total cpu time spent up to now is       27.7 secs

     total energy              =    -111.61366289 Ry
     estimated scf accuracy    <       0.23487491 Ry

     total magnetization       =     5.70 Bohr mag/cell
     absolute magnetization    =     5.80 Bohr mag/cell

     iteration #  6     ecut=    30.00 Ry     beta= 0.50
     Davidson diagonalization with overlap
     ethr =  1.47E-03,  avg # of iterations =  1.1

     total cpu time spent up to now is       28.4 secs

     total energy              =    -111.56777120 Ry
     estimated scf accuracy    <       0.13075663 Ry

     total magnetization       =     5.70 Bohr mag/cell
     absolute magnetization    =     5.82 Bohr mag/cell

     iteration #  7     ecut=    30.00 Ry     beta= 0.50
     Davidson diagonalization with overlap
     ethr =  8.17E-04,  avg # of iterations =  1.9

     total cpu time spent up to now is       29.4 secs

     total energy              =    -111.58770834 Ry
     estimated scf accuracy    <       0.00298803 Ry

     total magnetization       =     5.78 Bohr mag/cell
     absolute magnetization    =     5.96 Bohr mag/cell

     iteration #  8     ecut=    30.00 Ry     beta= 0.50
     Davidson diagonalization with overlap
     ethr =  1.87E-05,  avg # of iterations =  4.6

     total cpu time spent up to now is       32.0 secs

     total energy              =    -111.59106020 Ry
     estimated scf accuracy    <       0.00078462 Ry

     total magnetization       =     5.78 Bohr mag/cell
     absolute magnetization    =     5.97 Bohr mag/cell

     iteration #  9     ecut=    30.00 Ry     beta= 0.50
     Davidson diagonalization with overlap
     ethr =  4.90E-06,  avg # of iterations =  1.1

     total cpu time spent up to now is       33.4 secs

     total energy              =    -111.59106277 Ry
     estimated scf accuracy    <       0.00068726 Ry

     total magnetization       =     5.78 Bohr mag/cell
     absolute magnetization    =     5.97 Bohr mag/cell

     iteration # 10     ecut=    30.00 Ry     beta= 0.50
     Davidson diagonalization with overlap
     ethr =  4.30E-06,  avg # of iterations =  2.8

     total cpu time spent up to now is       34.0 secs

     total energy              =    -111.59131980 Ry
     estimated scf accuracy    <       0.00042242 Ry

     total magnetization       =     5.78 Bohr mag/cell
     absolute magnetization    =     5.97 Bohr mag/cell

     iteration # 11     ecut=    30.00 Ry     beta= 0.50
     Davidson diagonalization with overlap
     ethr =  2.64E-06,  avg # of iterations =  1.2

     total cpu time spent up to now is       35.3 secs

     total energy              =    -111.59126605 Ry
     estimated scf accuracy    <       0.00022146 Ry

     total magnetization       =     5.78 Bohr mag/cell
     absolute magnetization    =     5.98 Bohr mag/cell

     iteration # 12     ecut=    30.00 Ry     beta= 0.50
     Davidson diagonalization with overlap
     ethr =  1.38E-06,  avg # of iterations =  2.1

     total cpu time spent up to now is       36.6 secs

     total energy              =    -111.59129338 Ry
     estimated scf accuracy    <       0.00001316 Ry

     total magnetization       =     5.78 Bohr mag/cell
     absolute magnetization    =     5.99 Bohr mag/cell

     iteration # 13     ecut=    30.00 Ry     beta= 0.50
     Davidson diagonalization with overlap
     ethr =  8.22E-08,  avg # of iterations =  4.0

     total cpu time spent up to now is       37.9 secs

     total energy              =    -111.59130281 Ry
     estimated scf accuracy    <       0.00000158 Ry

     total magnetization       =     5.78 Bohr mag/cell
     absolute magnetization    =     5.99 Bohr mag/cell

     iteration # 14     ecut=    30.00 Ry     beta= 0.50
     Davidson diagonalization with overlap
     ethr =  9.85E-09,  avg # of iterations =  4.4

     total cpu time spent up to now is       39.5 secs

     total energy              =    -111.59130405 Ry
     estimated scf accuracy    <       0.00000023 Ry

     total magnetization       =     5.78 Bohr mag/cell
     absolute magnetization    =     5.99 Bohr mag/cell

     iteration # 15     ecut=    30.00 Ry     beta= 0.50
     Davidson diagonalization with overlap
     ethr =  1.47E-09,  avg # of iterations =  3.9

     Magnetic moment per site  (integrated on atomic sphere of radius R)
     atom   1 (R=0.412)  charge=  6.4179  magn=  2.9137
     atom   2 (R=0.412)  charge=  6.4181  magn=  2.9136

     total cpu time spent up to now is       40.8 secs

     End of self-consistent calculation

 ------ SPIN UP ------------


          k = 0.0000 0.0000 0.0000 (   391 PWs)   bands (ev):

     3.7845   7.1122   9.1891   9.1891   9.3112   9.4347   9.4347   9.8082
     9.8082  10.6937  10.6937  11.6470

          k = 0.0000 0.0000 0.1923 (   398 PWs)   bands (ev):

     4.7180   6.6436   9.1088   9.1088   9.1430   9.2595   9.2595   9.5726
    10.1786  10.1786  10.5948  10.5948

          k = 0.0000 0.3691 0.0000 (   419 PWs)   bands (ev):

     6.6475   7.6760   7.9257   8.9108   9.2519   9.3582   9.4242  10.4580
    10.5696  10.7690  10.8322  17.3676

          k = 0.0000 0.3691 0.1923 (   413 PWs)   bands (ev):

     6.8844   7.5133   8.1658   8.5171   9.5508   9.5799  10.1780  10.2083
    10.5496  10.7308  10.7388  13.2060

          k = 0.3197 0.5537 0.0000 (   420 PWs)   bands (ev):

     7.7292   8.2442   8.2442   8.3776   8.9375   8.9377   9.7234  10.6133
    10.8066  10.8067  16.0113  16.6809

          k = 0.3197 0.5537 0.1923 (   420 PWs)   bands (ev):

     8.0337   8.1978   8.1978   8.3845   8.9532   8.9532   9.6773  10.0493
    10.9490  10.9491  16.9639  16.9640

          k = 0.3197-0.1846 0.0000 (   419 PWs)   bands (ev):

     6.6475   7.6760   7.9257   8.9108   9.2519   9.3582   9.4242  10.4580
    10.5696  10.7689  10.8322  17.3676

          k = 0.3197-0.1846 0.1923 (   413 PWs)   bands (ev):

     6.8844   7.5133   8.1658   8.5171   9.5508   9.5799  10.1780  10.2083
    10.5496  10.7308  10.7388  13.2060

 ------ SPIN DOWN ----------


          k = 0.0000 0.0000 0.0000 (   391 PWs)   bands (ev):

     4.0399   8.6848  11.7474  11.8613  12.2576  12.2576  12.5878  12.5878
    13.2397  13.2397  14.3100  14.3101

          k = 0.0000 0.0000 0.1923 (   398 PWs)   bands (ev):

     4.9971   7.3618  11.1677  11.5483  12.1881  12.1881  12.3757  12.3757
    13.6729  13.6729  14.1888  14.1888

          k = 0.0000 0.3691 0.0000 (   419 PWs)   bands (ev):

     7.2139   9.9409  10.1973  11.0086  11.9989  12.3285  12.5049  13.5457
    13.8064  13.9464  14.5009  18.8414

          k = 0.0000 0.3691 0.1923 (   413 PWs)   bands (ev):

     7.8362   9.2155  10.5142  11.1127  11.7632  12.2823  12.8464  13.5822
    13.8326  13.9504  14.2557  15.3976

          k = 0.3197 0.5537 0.0000 (   420 PWs)   bands (ev):

    10.1388  10.1388  10.3185  10.3224  11.8304  11.8305  12.7082  13.8511
    13.8512  14.2184  17.6499  18.2296

          k = 0.3197 0.5537 0.1923 (   420 PWs)   bands (ev):

    10.4372  10.4470  10.4471  10.4518  11.4113  11.4114  12.7650  13.4453
    14.0438  14.0439  18.3892  18.3892

          k = 0.3197-0.1846 0.0000 (   419 PWs)   bands (ev):

     7.2139   9.9409  10.1973  11.0086  11.9990  12.3285  12.5049  13.5457
    13.8064  13.9464  14.5009  18.8413

          k = 0.3197-0.1846 0.1923 (   413 PWs)   bands (ev):

     7.8362   9.2155  10.5142  11.1127  11.7632  12.2823  12.8464  13.5823
    13.8326  13.9505  14.2557  15.3976

     the Fermi energy is    12.0843 ev

!    total energy              =    -111.59130416 Ry
     estimated scf accuracy    <       0.00000003 Ry
     smearing contrib. (-TS)   =       0.00076535 Ry
     internal energy E=F+TS    =    -111.59206951 Ry

     The total energy is F=E-TS. E is the sum of the following terms:
     one-electron contribution =      10.76923745 Ry
     hartree contribution      =      14.25774454 Ry
     xc contribution           =     -52.88433069 Ry
     ewald contribution        =     -83.73472081 Ry

     total magnetization       =     5.78 Bohr mag/cell
     absolute magnetization    =     5.99 Bohr mag/cell

     convergence has been achieved in  15 iterations

     Forces acting on atoms (cartesian axes, Ry/au):

     atom    1 type  1   force =    -0.00000000   -0.00000261    0.00000000
     atom    2 type  1   force =     0.00000000    0.00000261    0.00000000
     The non-local contrib.  to forces
     atom    1 type  1   force =    -0.00000000   -0.00000153    0.00000000
     atom    2 type  1   force =     0.00000000    0.00000050    0.00000000
     The ionic contribution  to forces
     atom    1 type  1   force =     0.00000000   -0.00000623   -0.00002494
     atom    2 type  1   force =    -0.00000000    0.00000623    0.00002494
     The local contribution  to forces
     atom    1 type  1   force =    -0.00000000    0.00000814   -0.00000000
     atom    2 type  1   force =    -0.00000000   -0.00000582    0.00008409
     The core correction contribution to forces
     atom    1 type  1   force =    -0.00000000    0.00000037    0.00000002
     atom    2 type  1   force =    -0.00000000   -0.00000010    0.00001351
     The Hubbard contrib.    to forces
     atom    1 type  1   force =     0.00000000    0.00000000    0.00000000
     atom    2 type  1   force =     0.00000000    0.00000000    0.00000000
     The SCF correction term to forces
     atom    1 type  1   force =    -0.00000000   -0.00000277   -0.00000000
     atom    2 type  1   force =     0.00000000    0.00000238    0.00000000

     Total force =     0.000004     Total SCF correction =     0.000004
     SCF correction compared to forces is large: reduce conv_thr to get better values


     Computing stress (Cartesian axis) and pressure

          total   stress  (Ry/bohr**3)                   (kbar)     P=      -26.01
  -0.00030710  -0.00000000   0.00000000          -45.18       -0.00        0.00
  -0.00000000  -0.00030713   0.00000000           -0.00      -45.18        0.00
   0.00000000   0.00000000   0.00008377            0.00        0.00       12.32

     Energy error            =      1.9E-02 Ry
     Gradient error          =      2.6E-06 Ry/Bohr
     Cell gradient error     =      4.5E+01 kbar

     number of scf cycles    =   2
     number of bfgs steps    =   1

     enthalpy           old  =    -111.5726764086 Ry
     enthalpy           new  =    -111.5913041583 Ry

     CASE: enthalpy          _new < enthalpy          _old

     new trust radius        =       0.0185322036 bohr
     new conv_thr            =       0.0000000010 Ry

     new unit-cell volume =    170.12480 a.u.^3 (    25.20989 Ang^3 )
     density =      7.35686 g/cm^3

CELL_PARAMETERS (angstrom)
   2.588423213  -0.000000000   0.000000000
  -1.294211607   2.241637974   0.000000000
   0.000000000   0.000000000   4.344804637

ATOMIC_POSITIONS (angstrom)
Fe            0.0000000000        0.0000048560        0.0000000000
Fe            0.0000000000        1.4944249401        2.1724007727



     Writing config-only to output data dir /home/gridsan/epan1/labutil/lab3_samples/problem1/Lab3/Fe_hcp_a_2.5_ecut_30_nk_3/pwscf.save/
     NEW-OLD atomic charge density approx. for the potential

     Check: negative core charge=   -0.000008
     extrapolated charge   15.81495, renormalised to   16.00000
     Generating pointlists ...

     total cpu time spent up to now is       42.2 secs

     Self-consistent Calculation

     iteration #  1     ecut=    30.00 Ry     beta= 0.50
     Davidson diagonalization with overlap
     ethr =  1.00E-06,  avg # of iterations =  6.8

     total cpu time spent up to now is       44.2 secs

     total energy              =    -111.57808409 Ry
     estimated scf accuracy    <       0.01430329 Ry

     total magnetization       =     5.77 Bohr mag/cell
     absolute magnetization    =     5.95 Bohr mag/cell

     iteration #  2     ecut=    30.00 Ry     beta= 0.50
     Davidson diagonalization with overlap
     ethr =  8.94E-05,  avg # of iterations =  4.0

     total cpu time spent up to now is       45.4 secs

     total energy              =    -111.59132294 Ry
     estimated scf accuracy    <       0.02507792 Ry

     total magnetization       =     5.78 Bohr mag/cell
     absolute magnetization    =     5.99 Bohr mag/cell

     iteration #  3     ecut=    30.00 Ry     beta= 0.50
     Davidson diagonalization with overlap
     ethr =  8.94E-05,  avg # of iterations =  1.8

     total cpu time spent up to now is       46.4 secs

     total energy              =    -111.59254503 Ry
     estimated scf accuracy    <       0.00566336 Ry

     total magnetization       =     5.78 Bohr mag/cell
     absolute magnetization    =     5.98 Bohr mag/cell

     iteration #  4     ecut=    30.00 Ry     beta= 0.50
     Davidson diagonalization with overlap
     ethr =  3.54E-05,  avg # of iterations =  1.4

     total cpu time spent up to now is       47.1 secs

     total energy              =    -111.59096519 Ry
     estimated scf accuracy    <       0.00359716 Ry

     total magnetization       =     5.78 Bohr mag/cell
     absolute magnetization    =     5.98 Bohr mag/cell

     iteration #  5     ecut=    30.00 Ry     beta= 0.50
     Davidson diagonalization with overlap
     ethr =  2.25E-05,  avg # of iterations =  2.8

     total cpu time spent up to now is       47.8 secs

     total energy              =    -111.59180032 Ry
     estimated scf accuracy    <       0.00000305 Ry

     total magnetization       =     5.78 Bohr mag/cell
     absolute magnetization    =     5.98 Bohr mag/cell

     iteration #  6     ecut=    30.00 Ry     beta= 0.50
     Davidson diagonalization with overlap
     ethr =  1.90E-08,  avg # of iterations =  6.1

     total cpu time spent up to now is       49.2 secs

     total energy              =    -111.59182685 Ry
     estimated scf accuracy    <       0.00018778 Ry

     total magnetization       =     5.78 Bohr mag/cell
     absolute magnetization    =     5.98 Bohr mag/cell

     iteration #  7     ecut=    30.00 Ry     beta= 0.50
     Davidson diagonalization with overlap
     ethr =  1.90E-08,  avg # of iterations =  4.6

     total cpu time spent up to now is       51.0 secs

     total energy              =    -111.59183879 Ry
     estimated scf accuracy    <       0.00001631 Ry

     total magnetization       =     5.78 Bohr mag/cell
     absolute magnetization    =     5.98 Bohr mag/cell

     iteration #  8     ecut=    30.00 Ry     beta= 0.50
     Davidson diagonalization with overlap
     ethr =  1.90E-08,  avg # of iterations =  3.4

     total cpu time spent up to now is       53.3 secs

     total energy              =    -111.59184018 Ry
     estimated scf accuracy    <       0.00000102 Ry

     total magnetization       =     5.78 Bohr mag/cell
     absolute magnetization    =     5.98 Bohr mag/cell

     iteration #  9     ecut=    30.00 Ry     beta= 0.50
     Davidson diagonalization with overlap
     ethr =  6.36E-09,  avg # of iterations =  2.7

     total cpu time spent up to now is       53.9 secs

     total energy              =    -111.59184054 Ry
     estimated scf accuracy    <       0.00000006 Ry

     total magnetization       =     5.78 Bohr mag/cell
     absolute magnetization    =     5.98 Bohr mag/cell

     iteration # 10     ecut=    30.00 Ry     beta= 0.50
     Davidson diagonalization with overlap
     ethr =  3.44E-10,  avg # of iterations =  3.2

     total cpu time spent up to now is       55.6 secs

     total energy              =    -111.59184056 Ry
     estimated scf accuracy    <          1.6E-09 Ry

     total magnetization       =     5.78 Bohr mag/cell
     absolute magnetization    =     5.98 Bohr mag/cell

     iteration # 11     ecut=    30.00 Ry     beta= 0.50
     Davidson diagonalization with overlap
     ethr =  9.75E-12,  avg # of iterations =  6.4

     Magnetic moment per site  (integrated on atomic sphere of radius R)
     atom   1 (R=0.412)  charge=  6.4311  magn=  2.9106
     atom   2 (R=0.412)  charge=  6.4311  magn=  2.9106

     total cpu time spent up to now is       58.0 secs

     End of self-consistent calculation

 ------ SPIN UP ------------


          k = 0.0000 0.0000 0.0000 (   391 PWs)   bands (ev):

     3.9016   7.2308   9.3620   9.3620   9.4342   9.6034   9.6034  10.0186
    10.0186  10.8879  10.8880  11.7284

          k = 0.0000 0.0000 0.1918 (   398 PWs)   bands (ev):

     4.8295   6.7484   9.2716   9.2901   9.2902   9.4361   9.4361   9.6997
    10.3752  10.3752  10.7859  10.7859

          k = 0.0000 0.3718 0.0000 (   419 PWs)   bands (ev):

     6.7957   7.8144   8.0592   9.0811   9.4538   9.5127   9.5787  10.6696
    10.7780  10.9513  11.0178  17.5492

          k = 0.0000 0.3718 0.1918 (   413 PWs)   bands (ev):

     7.0223   7.6415   8.3066   8.6570   9.7525   9.7564  10.3574  10.4101
    10.7579  10.9189  10.9290  13.3903

          k = 0.3219 0.5576 0.0000 (   420 PWs)   bands (ev):

     7.8847   8.4141   8.4141   8.5369   9.0956   9.0956   9.8819  10.7733
    10.9922  10.9922  16.3059  17.0034

          k = 0.3219 0.5576 0.1918 (   420 PWs)   bands (ev):

     8.1875   8.3572   8.3572   8.5391   9.1133   9.1133   9.8417  10.2178
    11.1449  11.1449  17.2660  17.2660

          k = 0.3219-0.1859 0.0000 (   419 PWs)   bands (ev):

     6.7957   7.8144   8.0592   9.0811   9.4538   9.5127   9.5787  10.6696
    10.7780  10.9513  11.0178  17.5491

          k = 0.3219-0.1859 0.1918 (   413 PWs)   bands (ev):

     7.0223   7.6415   8.3066   8.6570   9.7525   9.7564  10.3574  10.4101
    10.7579  10.9189  10.9290  13.3903

 ------ SPIN DOWN ----------


          k = 0.0000 0.0000 0.0000 (   391 PWs)   bands (ev):

     4.1659   8.7963  11.8337  11.9664  12.4303  12.4303  12.7538  12.7538
    13.4587  13.4587  14.5089  14.5089

          k = 0.0000 0.0000 0.1918 (   398 PWs)   bands (ev):

     5.1183   7.4703  11.2834  11.6590  12.3695  12.3695  12.5515  12.5515
    13.8760  13.8760  14.3838  14.3838

          k = 0.0000 0.3718 0.0000 (   419 PWs)   bands (ev):

     7.3800  10.0799  10.3153  11.1858  12.1271  12.4847  12.7146  13.7124
    14.0175  14.1542  14.6887  19.0403

          k = 0.0000 0.3718 0.1918 (   413 PWs)   bands (ev):

     7.9895   9.3436  10.6533  11.2599  11.9220  12.4479  13.0564  13.7911
    14.0055  14.1575  14.4506  15.5869

          k = 0.3219 0.5576 0.0000 (   420 PWs)   bands (ev):

    10.3159  10.3159  10.4705  10.4869  11.9861  11.9861  12.8522  14.0229
    14.0229  14.3748  17.9492  18.5553

          k = 0.3219 0.5576 0.1918 (   420 PWs)   bands (ev):

    10.5959  10.6042  10.6110  10.6110  11.5677  11.5677  12.9196  13.6103
    14.2347  14.2347  18.6961  18.6961

          k = 0.3219-0.1859 0.0000 (   419 PWs)   bands (ev):

     7.3800  10.0799  10.3153  11.1858  12.1271  12.4847  12.7146  13.7124
    14.0175  14.1542  14.6887  19.0403

          k = 0.3219-0.1859 0.1918 (   413 PWs)   bands (ev):

     7.9895   9.3436  10.6533  11.2599  11.9220  12.4479  13.0564  13.7911
    14.0055  14.1575  14.4506  15.5869

     the Fermi energy is    12.2390 ev

!    total energy              =    -111.59184057 Ry
     estimated scf accuracy    <          7.7E-10 Ry
     smearing contrib. (-TS)   =       0.00097861 Ry
     internal energy E=F+TS    =    -111.59281918 Ry

     The total energy is F=E-TS. E is the sum of the following terms:
     one-electron contribution =      11.21913144 Ry
     hartree contribution      =      14.13817099 Ry
     xc contribution           =     -52.89885002 Ry
     ewald contribution        =     -84.05127159 Ry

     total magnetization       =     5.78 Bohr mag/cell
     absolute magnetization    =     5.98 Bohr mag/cell

     convergence has been achieved in  11 iterations

     Forces acting on atoms (cartesian axes, Ry/au):

     atom    1 type  1   force =     0.00000000    0.00000019    0.00000000
     atom    2 type  1   force =    -0.00000000   -0.00000019    0.00000000
     The non-local contrib.  to forces
     atom    1 type  1   force =    -0.00000000   -0.00000063    0.00000000
     atom    2 type  1   force =     0.00000000    0.00000053    0.00000000
     The ionic contribution  to forces
     atom    1 type  1   force =    -0.00000000   -0.00000538   -0.00002541
     atom    2 type  1   force =     0.00000000    0.00000538    0.00002541
     The local contribution  to forces
     atom    1 type  1   force =     0.00000000    0.00000569    0.00000000
     atom    2 type  1   force =    -0.00000000   -0.00000564    0.00008436
     The core correction contribution to forces
     atom    1 type  1   force =    -0.00000000    0.00000011    0.00000002
     atom    2 type  1   force =    -0.00000000   -0.00000013    0.00001355
     The Hubbard contrib.    to forces
     atom    1 type  1   force =     0.00000000    0.00000000    0.00000000
     atom    2 type  1   force =     0.00000000    0.00000000    0.00000000
     The SCF correction term to forces
     atom    1 type  1   force =     0.00000000    0.00000033    0.00000000
     atom    2 type  1   force =     0.00000000   -0.00000038   -0.00000000

     Total force =     0.000000     Total SCF correction =     0.000001
     SCF correction compared to forces is large: reduce conv_thr to get better values


     Computing stress (Cartesian axis) and pressure

          total   stress  (Ry/bohr**3)                   (kbar)     P=       -5.88
  -0.00010447  -0.00000000   0.00000000          -15.37       -0.00        0.00
  -0.00000000  -0.00010445   0.00000000           -0.00      -15.36        0.00
   0.00000000   0.00000000   0.00008910            0.00        0.00       13.11

     Energy error            =      5.4E-04 Ry
     Gradient error          =      1.9E-07 Ry/Bohr
     Cell gradient error     =      1.5E+01 kbar

     number of scf cycles    =   3
     number of bfgs steps    =   2

     enthalpy           old  =    -111.5913041583 Ry
     enthalpy           new  =    -111.5918405661 Ry

     CASE: enthalpy          _new < enthalpy          _old

     new trust radius        =       0.0111348132 bohr
     new conv_thr            =       0.0000000010 Ry

     new unit-cell volume =    169.38357 a.u.^3 (    25.10006 Ang^3 )
     density =      7.38905 g/cm^3

CELL_PARAMETERS (angstrom)
   2.577374685  -0.000000000   0.000000000
  -1.288687343   2.232071447   0.000000000
   0.000000000   0.000000000   4.363038293

ATOMIC_POSITIONS (angstrom)
Fe            0.0000000000        0.0000050226        0.0000000000
Fe            0.0000000000        1.4880470700        2.1815175943



     Writing config-only to output data dir /home/gridsan/epan1/labutil/lab3_samples/problem1/Lab3/Fe_hcp_a_2.5_ecut_30_nk_3/pwscf.save/
     NEW-OLD atomic charge density approx. for the potential

     Check: negative core charge=   -0.000007
     extrapolated charge   15.92999, renormalised to   16.00000
     Generating pointlists ...

     total cpu time spent up to now is       59.9 secs

     Self-consistent Calculation

     iteration #  1     ecut=    30.00 Ry     beta= 0.50
     Davidson diagonalization with overlap
     ethr =  1.00E-06,  avg # of iterations =  5.1

     total cpu time spent up to now is       61.7 secs

     total energy              =    -111.59028865 Ry
     estimated scf accuracy    <       0.00170776 Ry

     total magnetization       =     5.78 Bohr mag/cell
     absolute magnetization    =     5.97 Bohr mag/cell

     iteration #  2     ecut=    30.00 Ry     beta= 0.50
     Davidson diagonalization with overlap
     ethr =  1.07E-05,  avg # of iterations =  4.3

     total cpu time spent up to now is       63.5 secs

     total energy              =    -111.59188294 Ry
     estimated scf accuracy    <       0.00296216 Ry

     total magnetization       =     5.78 Bohr mag/cell
     absolute magnetization    =     5.98 Bohr mag/cell

     iteration #  3     ecut=    30.00 Ry     beta= 0.50
     Davidson diagonalization with overlap
     ethr =  1.07E-05,  avg # of iterations =  1.8

     total cpu time spent up to now is       64.6 secs

     total energy              =    -111.59189723 Ry
     estimated scf accuracy    <       0.00062500 Ry

     total magnetization       =     5.78 Bohr mag/cell
     absolute magnetization    =     5.98 Bohr mag/cell

     iteration #  4     ecut=    30.00 Ry     beta= 0.50
     Davidson diagonalization with overlap
     ethr =  3.91E-06,  avg # of iterations =  1.9

     total cpu time spent up to now is       65.4 secs

     total energy              =    -111.59188188 Ry
     estimated scf accuracy    <       0.00016367 Ry

     total magnetization       =     5.78 Bohr mag/cell
     absolute magnetization    =     5.98 Bohr mag/cell

     iteration #  5     ecut=    30.00 Ry     beta= 0.50
     Davidson diagonalization with overlap
     ethr =  1.02E-06,  avg # of iterations =  3.6

     total cpu time spent up to now is       66.1 secs

     total energy              =    -111.59197514 Ry
     estimated scf accuracy    <       0.00008918 Ry

     total magnetization       =     5.78 Bohr mag/cell
     absolute magnetization    =     5.97 Bohr mag/cell

     iteration #  6     ecut=    30.00 Ry     beta= 0.50
     Davidson diagonalization with overlap
     ethr =  5.57E-07,  avg # of iterations =  1.0

     total cpu time spent up to now is       67.4 secs

     total energy              =    -111.59193627 Ry
     estimated scf accuracy    <       0.00009510 Ry

     total magnetization       =     5.78 Bohr mag/cell
     absolute magnetization    =     5.97 Bohr mag/cell

     iteration #  7     ecut=    30.00 Ry     beta= 0.50
     Davidson diagonalization with overlap
     ethr =  5.57E-07,  avg # of iterations =  2.0

     total cpu time spent up to now is       68.3 secs

     total energy              =    -111.59194726 Ry
     estimated scf accuracy    <       0.00000514 Ry

     total magnetization       =     5.78 Bohr mag/cell
     absolute magnetization    =     5.97 Bohr mag/cell

     iteration #  8     ecut=    30.00 Ry     beta= 0.50
     Davidson diagonalization with overlap
     ethr =  3.21E-08,  avg # of iterations =  3.2

     total cpu time spent up to now is       70.1 secs

     total energy              =    -111.59194908 Ry
     estimated scf accuracy    <       0.00000009 Ry

     total magnetization       =     5.78 Bohr mag/cell
     absolute magnetization    =     5.97 Bohr mag/cell

     iteration #  9     ecut=    30.00 Ry     beta= 0.50
     Davidson diagonalization with overlap
     ethr =  5.43E-10,  avg # of iterations =  4.1

     total cpu time spent up to now is       73.3 secs

     total energy              =    -111.59194915 Ry
     estimated scf accuracy    <          7.2E-09 Ry

     total magnetization       =     5.78 Bohr mag/cell
     absolute magnetization    =     5.97 Bohr mag/cell

     iteration # 10     ecut=    30.00 Ry     beta= 0.50
     Davidson diagonalization with overlap
     ethr =  4.53E-11,  avg # of iterations =  5.6

     total cpu time spent up to now is       75.1 secs

     total energy              =    -111.59194914 Ry
     estimated scf accuracy    <       0.00000006 Ry

     total magnetization       =     5.78 Bohr mag/cell
     absolute magnetization    =     5.97 Bohr mag/cell

     iteration # 11     ecut=    30.00 Ry     beta= 0.50
     Davidson diagonalization with overlap
     ethr =  4.53E-11,  avg # of iterations =  4.2

     Magnetic moment per site  (integrated on atomic sphere of radius R)
     atom   1 (R=0.412)  charge=  6.4363  magn=  2.9092
     atom   2 (R=0.412)  charge=  6.4363  magn=  2.9092

     total cpu time spent up to now is       76.1 secs

     End of self-consistent calculation

 ------ SPIN UP ------------


          k = 0.0000 0.0000 0.0000 (   391 PWs)   bands (ev):

     3.9466   7.2681   9.4306   9.4306   9.4594   9.6660   9.6660  10.1134
    10.1135  10.9610  10.9610  11.7173

          k = 0.0000 0.0000 0.1910 (   398 PWs)   bands (ev):

     4.8658   6.7736   9.3035   9.3662   9.3662   9.5067   9.5068   9.7297
    10.4553  10.4553  10.8574  10.8574

          k = 0.0000 0.3733 0.0000 (   419 PWs)   bands (ev):

     6.8581   7.8663   8.1054   9.1505   9.5467   9.5638   9.6323  10.7608
    10.8655  11.0158  11.0817  17.5913

          k = 0.0000 0.3733 0.1910 (   413 PWs)   bands (ev):

     7.0769   7.6853   8.3566   8.7031   9.8274   9.8424  10.4270  10.4940
    10.8455  10.9804  11.0059  13.4458

          k = 0.3233 0.5600 0.0000 (   420 PWs)   bands (ev):

     7.9521   8.4892   8.4892   8.6026   9.1535   9.1535   9.9335  10.8165
    11.0581  11.0581  16.4523  17.1631

          k = 0.3233 0.5600 0.1910 (   420 PWs)   bands (ev):

     8.2510   8.4234   8.4234   8.6008   9.1738   9.1738   9.8985  10.2737
    11.2179  11.2179  17.4111  17.4111

          k = 0.3233-0.1867 0.0000 (   419 PWs)   bands (ev):

     6.8581   7.8663   8.1054   9.1505   9.5467   9.5638   9.6323  10.7608
    10.8655  11.0158  11.0817  17.5913

          k = 0.3233-0.1867 0.1910 (   413 PWs)   bands (ev):

     7.0769   7.6853   8.3566   8.7031   9.8274   9.8424  10.4270  10.4940
    10.8455  10.9804  11.0059  13.4458

 ------ SPIN DOWN ----------


          k = 0.0000 0.0000 0.0000 (   391 PWs)   bands (ev):

     4.2149   8.8270  11.8224  11.9782  12.4996  12.4996  12.8145  12.8145
    13.5618  13.5618  14.5866  14.5866

          k = 0.0000 0.0000 0.1910 (   398 PWs)   bands (ev):

     5.1590   7.4940  11.3066  11.6778  12.4463  12.4463  12.6221  12.6221
    13.9624  13.9624  14.4592  14.4592

          k = 0.0000 0.3733 0.0000 (   419 PWs)   bands (ev):

     7.4532  10.1334  10.3500  11.2648  12.1581  12.5392  12.8156  13.7649
    14.1087  14.2413  14.7548  19.0918

          k = 0.0000 0.3733 0.1910 (   413 PWs)   bands (ev):

     8.0521   9.3859  10.7043  11.3126  11.9815  12.5085  13.1547  13.8822
    14.0619  14.2442  14.5247  15.6448

          k = 0.3233 0.5600 0.0000 (   420 PWs)   bands (ev):

    10.3976  10.3976  10.5380  10.5583  12.0438  12.0438  12.8924  14.0779
    14.0779  14.4153  18.0941  18.7140

          k = 0.3233 0.5600 0.1910 (   420 PWs)   bands (ev):

    10.6627  10.6690  10.6821  10.6821  11.6266  11.6266  12.9690  13.6641
    14.3045  14.3045  18.8406  18.8406

          k = 0.3233-0.1867 0.0000 (   419 PWs)   bands (ev):

     7.4532  10.1334  10.3500  11.2648  12.1581  12.5392  12.8156  13.7649
    14.1087  14.2413  14.7548  19.0918

          k = 0.3233-0.1867 0.1910 (   413 PWs)   bands (ev):

     8.0521   9.3859  10.7043  11.3126  11.9815  12.5085  13.1547  13.8822
    14.0619  14.2442  14.5247  15.6448

     the Fermi energy is    12.2926 ev

!    total energy              =    -111.59194915 Ry
     estimated scf accuracy    <          8.5E-10 Ry
     smearing contrib. (-TS)   =       0.00113756 Ry
     internal energy E=F+TS    =    -111.59308671 Ry

     The total energy is F=E-TS. E is the sum of the following terms:
     one-electron contribution =      11.38221840 Ry
     hartree contribution      =      14.09678633 Ry
     xc contribution           =     -52.90478394 Ry
     ewald contribution        =     -84.16730750 Ry

     total magnetization       =     5.78 Bohr mag/cell
     absolute magnetization    =     5.97 Bohr mag/cell

     convergence has been achieved in  11 iterations

     Forces acting on atoms (cartesian axes, Ry/au):

     atom    1 type  1   force =    -0.00000000   -0.00000049    0.00000000
     atom    2 type  1   force =     0.00000000    0.00000049    0.00000000
     The non-local contrib.  to forces
     atom    1 type  1   force =    -0.00000000   -0.00000023    0.00000000
     atom    2 type  1   force =     0.00000000    0.00000031    0.00000000
     The ionic contribution  to forces
     atom    1 type  1   force =    -0.00000000   -0.00000419   -0.00002572
     atom    2 type  1   force =     0.00000000    0.00000419    0.00002572
     The local contribution  to forces
     atom    1 type  1   force =     0.00000000    0.00000475   -0.00000000
     atom    2 type  1   force =    -0.00000000   -0.00000480    0.00008486
     The core correction contribution to forces
     atom    1 type  1   force =    -0.00000000    0.00000010    0.00000002
     atom    2 type  1   force =    -0.00000000   -0.00000012    0.00001361
     The Hubbard contrib.    to forces
     atom    1 type  1   force =     0.00000000    0.00000000    0.00000000
     atom    2 type  1   force =     0.00000000    0.00000000    0.00000000
     The SCF correction term to forces
     atom    1 type  1   force =     0.00000000   -0.00000088    0.00000000
     atom    2 type  1   force =     0.00000000    0.00000094   -0.00000000

     Total force =     0.000001     Total SCF correction =     0.000001
     SCF correction compared to forces is large: reduce conv_thr to get better values


     Computing stress (Cartesian axis) and pressure

          total   stress  (Ry/bohr**3)                   (kbar)     P=        1.61
   0.00000957   0.00000000   0.00000000            1.41        0.00        0.00
   0.00000000   0.00000961   0.00000000            0.00        1.41        0.00
   0.00000000   0.00000000   0.00001367            0.00        0.00        2.01

     Energy error            =      1.1E-04 Ry
     Gradient error          =      4.9E-07 Ry/Bohr
     Cell gradient error     =      2.0E+00 kbar

     number of scf cycles    =   4
     number of bfgs steps    =   3

     enthalpy           old  =    -111.5918405661 Ry
     enthalpy           new  =    -111.5919491505 Ry

     CASE: enthalpy          _new < enthalpy          _old

     new trust radius        =       0.0008004267 bohr
     new conv_thr            =       0.0000000010 Ry

     new unit-cell volume =    169.50773 a.u.^3 (    25.11845 Ang^3 )
     density =      7.38364 g/cm^3

CELL_PARAMETERS (angstrom)
   2.577921621  -0.000000000   0.000000000
  -1.288960810   2.232547116   0.000000000
   0.000000000   0.000000000   4.364379961

ATOMIC_POSITIONS (angstrom)
Fe            0.0000000000        0.0000047312        0.0000000000
Fe            0.0000000000        1.4883644749        2.1821884277



     Writing config-only to output data dir /home/gridsan/epan1/labutil/lab3_samples/problem1/Lab3/Fe_hcp_a_2.5_ecut_30_nk_3/pwscf.save/
     NEW-OLD atomic charge density approx. for the potential

     Check: negative core charge=   -0.000007
     extrapolated charge   16.01172, renormalised to   16.00000
     Generating pointlists ...

     total cpu time spent up to now is       77.6 secs

     Self-consistent Calculation

     iteration #  1     ecut=    30.00 Ry     beta= 0.50
     Davidson diagonalization with overlap
     ethr =  1.00E-06,  avg # of iterations =  2.0

     total cpu time spent up to now is       78.8 secs

     total energy              =    -111.59191722 Ry
     estimated scf accuracy    <       0.00003524 Ry

     total magnetization       =     5.78 Bohr mag/cell
     absolute magnetization    =     5.97 Bohr mag/cell

     iteration #  2     ecut=    30.00 Ry     beta= 0.50
     Davidson diagonalization with overlap
     ethr =  2.20E-07,  avg # of iterations =  3.9

     total cpu time spent up to now is       80.2 secs

     total energy              =    -111.59195025 Ry
     estimated scf accuracy    <       0.00006135 Ry

     total magnetization       =     5.78 Bohr mag/cell
     absolute magnetization    =     5.97 Bohr mag/cell

     iteration #  3     ecut=    30.00 Ry     beta= 0.50
     Davidson diagonalization with overlap
     ethr =  2.20E-07,  avg # of iterations =  1.8

     total cpu time spent up to now is       80.8 secs

     total energy              =    -111.59195253 Ry
     estimated scf accuracy    <       0.00001308 Ry

     total magnetization       =     5.78 Bohr mag/cell
     absolute magnetization    =     5.97 Bohr mag/cell

     iteration #  4     ecut=    30.00 Ry     beta= 0.50
     Davidson diagonalization with overlap
     ethr =  8.18E-08,  avg # of iterations =  1.6

     total cpu time spent up to now is       81.5 secs

     total energy              =    -111.59194909 Ry
     estimated scf accuracy    <       0.00000659 Ry

     total magnetization       =     5.78 Bohr mag/cell
     absolute magnetization    =     5.97 Bohr mag/cell

     iteration #  5     ecut=    30.00 Ry     beta= 0.50
     Davidson diagonalization with overlap
     ethr =  4.12E-08,  avg # of iterations =  3.6

     total cpu time spent up to now is       82.5 secs

     total energy              =    -111.59195263 Ry
     estimated scf accuracy    <       0.00000184 Ry

     total magnetization       =     5.78 Bohr mag/cell
     absolute magnetization    =     5.97 Bohr mag/cell

     iteration #  6     ecut=    30.00 Ry     beta= 0.50
     Davidson diagonalization with overlap
     ethr =  1.15E-08,  avg # of iterations =  1.5

     total cpu time spent up to now is       83.1 secs

     total energy              =    -111.59195148 Ry
     estimated scf accuracy    <       0.00000339 Ry

     total magnetization       =     5.78 Bohr mag/cell
     absolute magnetization    =     5.97 Bohr mag/cell

     iteration #  7     ecut=    30.00 Ry     beta= 0.50
     Davidson diagonalization with overlap
     ethr =  1.15E-08,  avg # of iterations =  2.0

     total cpu time spent up to now is       83.5 secs

     total energy              =    -111.59195162 Ry
     estimated scf accuracy    <       0.00000042 Ry

     total magnetization       =     5.78 Bohr mag/cell
     absolute magnetization    =     5.97 Bohr mag/cell

     iteration #  8     ecut=    30.00 Ry     beta= 0.50
     Davidson diagonalization with overlap
     ethr =  2.63E-09,  avg # of iterations =  2.5

     total cpu time spent up to now is       84.4 secs

     total energy              =    -111.59195170 Ry
     estimated scf accuracy    <       0.00000002 Ry

     total magnetization       =     5.78 Bohr mag/cell
     absolute magnetization    =     5.97 Bohr mag/cell

     iteration #  9     ecut=    30.00 Ry     beta= 0.50
     Davidson diagonalization with overlap
     ethr =  1.21E-10,  avg # of iterations =  3.3

     total cpu time spent up to now is       86.1 secs

     total energy              =    -111.59195171 Ry
     estimated scf accuracy    <          8.6E-09 Ry

     total magnetization       =     5.78 Bohr mag/cell
     absolute magnetization    =     5.97 Bohr mag/cell

     iteration # 10     ecut=    30.00 Ry     beta= 0.50
     Davidson diagonalization with overlap
     ethr =  5.40E-11,  avg # of iterations =  1.0

     total cpu time spent up to now is       87.0 secs

     total energy              =    -111.59195171 Ry
     estimated scf accuracy    <          9.3E-09 Ry

     total magnetization       =     5.78 Bohr mag/cell
     absolute magnetization    =     5.97 Bohr mag/cell

     iteration # 11     ecut=    30.00 Ry     beta= 0.50
     Davidson diagonalization with overlap
     ethr =  5.40E-11,  avg # of iterations =  2.0

     Magnetic moment per site  (integrated on atomic sphere of radius R)
     atom   1 (R=0.412)  charge=  6.4355  magn=  2.9094
     atom   2 (R=0.412)  charge=  6.4355  magn=  2.9094

     total cpu time spent up to now is       89.6 secs

     End of self-consistent calculation

 ------ SPIN UP ------------


          k = 0.0000 0.0000 0.0000 (   391 PWs)   bands (ev):

     3.9390   7.2595   9.4199   9.4199   9.4485   9.6549   9.6549  10.1021
    10.1021  10.9484  10.9484  11.7056

          k = 0.0000 0.0000 0.1909 (   398 PWs)   bands (ev):

     4.8576   6.7647   9.2929   9.3556   9.3556   9.4960   9.4960   9.7190
    10.4434  10.4434  10.8449  10.8449

          k = 0.0000 0.3733 0.0000 (   419 PWs)   bands (ev):

     6.8494   7.8574   8.0962   9.1404   9.5360   9.5527   9.6215  10.7487
    10.8533  11.0035  11.0687  17.5755

          k = 0.0000 0.3733 0.1909 (   413 PWs)   bands (ev):

     7.0683   7.6764   8.3471   8.6932   9.8167   9.8314  10.4156  10.4822
    10.8333  10.9679  10.9934  13.4318

          k = 0.3233 0.5599 0.0000 (   420 PWs)   bands (ev):

     7.9433   8.4799   8.4799   8.5932   9.1430   9.1431   9.9221  10.8037
    11.0456  11.0456  16.4383  17.1477

          k = 0.3233 0.5599 0.1909 (   420 PWs)   bands (ev):

     8.2419   8.4140   8.4140   8.5913   9.1634   9.1634   9.8871  10.2618
    11.2053  11.2053  17.3960  17.3960

          k = 0.3233-0.1866 0.0000 (   419 PWs)   bands (ev):

     6.8494   7.8574   8.0962   9.1404   9.5360   9.5528   9.6215  10.7487
    10.8533  11.0035  11.0687  17.5755

          k = 0.3233-0.1866 0.1909 (   413 PWs)   bands (ev):

     7.0683   7.6764   8.3471   8.6932   9.8167   9.8314  10.4156  10.4822
    10.8333  10.9679  10.9934  13.4318

 ------ SPIN DOWN ----------


          k = 0.0000 0.0000 0.0000 (   391 PWs)   bands (ev):

     4.2068   8.8180  11.8101  11.9672  12.4890  12.4890  12.8035  12.8035
    13.5507  13.5507  14.5740  14.5741

          k = 0.0000 0.0000 0.1909 (   398 PWs)   bands (ev):

     5.1503   7.4843  11.2961  11.6672  12.4358  12.4358  12.6114  12.6114
    13.9506  13.9506  14.4468  14.4468

          k = 0.0000 0.3733 0.0000 (   419 PWs)   bands (ev):

     7.4439  10.1246  10.3409  11.2550  12.1471  12.5284  12.8052  13.7525
    14.0966  14.2290  14.7419  19.0753

          k = 0.0000 0.3733 0.1909 (   413 PWs)   bands (ev):

     8.0428   9.3767  10.6952  11.3028  11.9709  12.4973  13.1439  13.8705
    14.0494  14.2320  14.5121  15.6306

          k = 0.3233 0.5599 0.0000 (   420 PWs)   bands (ev):

    10.3883  10.3883  10.5296  10.5489  12.0336  12.0336  12.8810  14.0653
    14.0653  14.4025  18.0794  18.6982

          k = 0.3233 0.5599 0.1909 (   420 PWs)   bands (ev):

    10.6534  10.6601  10.6728  10.6728  11.6164  11.6164  12.9576  13.6522
    14.2919  14.2919  18.8249  18.8249

          k = 0.3233-0.1866 0.0000 (   419 PWs)   bands (ev):

     7.4439  10.1246  10.3409  11.2550  12.1471  12.5285  12.8052  13.7525
    14.0966  14.2290  14.7419  19.0753

          k = 0.3233-0.1866 0.1909 (   413 PWs)   bands (ev):

     8.0428   9.3767  10.6952  11.3028  11.9709  12.4973  13.1439  13.8705
    14.0494  14.2320  14.5121  15.6306

     the Fermi energy is    12.2818 ev

!    total energy              =    -111.59195171 Ry
     estimated scf accuracy    <          3.6E-10 Ry
     smearing contrib. (-TS)   =       0.00113619 Ry
     internal energy E=F+TS    =    -111.59308789 Ry

     The total energy is F=E-TS. E is the sum of the following terms:
     one-electron contribution =      11.35281880 Ry
     hartree contribution      =      14.10456778 Ry
     xc contribution           =     -52.90380401 Ry
     ewald contribution        =     -84.14667046 Ry

     total magnetization       =     5.78 Bohr mag/cell
     absolute magnetization    =     5.97 Bohr mag/cell

     convergence has been achieved in  11 iterations

     Forces acting on atoms (cartesian axes, Ry/au):

     atom    1 type  1   force =     0.00000000    0.00000033    0.00000000
     atom    2 type  1   force =    -0.00000000   -0.00000033    0.00000000
     The non-local contrib.  to forces
     atom    1 type  1   force =     0.00000000    0.00000051    0.00000000
     atom    2 type  1   force =    -0.00000000   -0.00000054    0.00000000
     The ionic contribution  to forces
     atom    1 type  1   force =    -0.00000000   -0.00000239   -0.00002571
     atom    2 type  1   force =     0.00000000    0.00000239    0.00002571
     The local contribution  to forces
     atom    1 type  1   force =    -0.00000000    0.00000209    0.00000000
     atom    2 type  1   force =    -0.00000000   -0.00000208    0.00008490
     The core correction contribution to forces
     atom    1 type  1   force =     0.00000000    0.00000000    0.00000002
     atom    2 type  1   force =    -0.00000000   -0.00000001    0.00001362
     The Hubbard contrib.    to forces
     atom    1 type  1   force =     0.00000000    0.00000000    0.00000000
     atom    2 type  1   force =     0.00000000    0.00000000    0.00000000
     The SCF correction term to forces
     atom    1 type  1   force =    -0.00000000    0.00000010   -0.00000000
     atom    2 type  1   force =    -0.00000000   -0.00000010    0.00000000

     Total force =     0.000000     Total SCF correction =     0.000000
     SCF correction compared to forces is large: reduce conv_thr to get better values


     Computing stress (Cartesian axis) and pressure

          total   stress  (Ry/bohr**3)                   (kbar)     P=       -0.22
  -0.00000225  -0.00000000   0.00000000           -0.33       -0.00        0.00
   0.00000000  -0.00000225   0.00000000            0.00       -0.33        0.00
   0.00000000   0.00000000  -0.00000007            0.00        0.00       -0.01

     Energy error            =      2.6E-06 Ry
     Gradient error          =      3.3E-07 Ry/Bohr
     Cell gradient error     =      3.3E-01 kbar

     bfgs converged in   5 scf cycles and   4 bfgs steps
     (criteria: energy <  1.0E-04 Ry, force <  1.0E-03 Ry/Bohr, cell <  5.0E-01 kbar)

     End of BFGS Geometry Optimization

     Final enthalpy           =    -111.5919517066 Ry

     File /home/gridsan/epan1/labutil/lab3_samples/problem1/Lab3/Fe_hcp_a_2.5_ecut_30_nk_3/pwscf.bfgs deleted, as requested
Begin final coordinates
     new unit-cell volume =    169.50773 a.u.^3 (    25.11845 Ang^3 )
     density =      7.38364 g/cm^3

CELL_PARAMETERS (angstrom)
   2.577921621  -0.000000000   0.000000000
  -1.288960810   2.232547116   0.000000000
   0.000000000   0.000000000   4.364379961

ATOMIC_POSITIONS (angstrom)
Fe            0.0000000000        0.0000047312        0.0000000000
Fe            0.0000000000        1.4883644749        2.1821884277
End final coordinates



     Writing config-only to output data dir /home/gridsan/epan1/labutil/lab3_samples/problem1/Lab3/Fe_hcp_a_2.5_ecut_30_nk_3/pwscf.save/

     Final scf calculation at the relaxed structure.
     The G-vectors are recalculated for the final unit cell
     Results may differ from those at the preceding step.

     Parallelization info
     --------------------
     sticks:   dense  smooth     PW     G-vecs:    dense   smooth      PW
     Min          47      24      7                 1327      470      87
     Max          49      25      8                 1334      475      92
     Sum         385     199     61                10637     3791     713

     Using Slab Decomposition



     bravais-lattice index     =            0
     lattice parameter (alat)  =       4.7243  a.u.
     unit-cell volume          =     169.5077 (a.u.)^3
     number of atoms/cell      =            2
     number of atomic types    =            1
     number of electrons       =        16.00
     number of Kohn-Sham states=           12
     kinetic-energy cutoff     =      30.0000  Ry
     charge density cutoff     =     240.0000  Ry
     scf convergence threshold =      1.0E-09
     mixing beta               =       0.5000
     number of iterations used =            8  plain     mixing
     press convergence thresh. =      5.0E-01
     Exchange-correlation=  SLA  PW   PBE  PBE
                           (   1   4   3   4   0   0   0)

     celldm(1)=   4.724315  celldm(2)=   0.000000  celldm(3)=   0.000000
     celldm(4)=   0.000000  celldm(5)=   0.000000  celldm(6)=   0.000000

     crystal axes: (cart. coord. in units of alat)
               a(1) = (   1.031169  -0.000000   0.000000 )  
               a(2) = (  -0.515584   0.893019   0.000000 )  
               a(3) = (   0.000000   0.000000   1.745752 )  

     reciprocal axes: (cart. coord. in units 2 pi/alat)
               b(1) = (  0.969773  0.559899 -0.000000 )  
               b(2) = (  0.000000  1.119797 -0.000000 )  
               b(3) = ( -0.000000 -0.000000  0.572819 )  


     PseudoPot. # 1 for Fe read from file:
     /home/gridsan/epan1/labutil/lab3_samples/pseudopotentials/Fe.pbe-nd-rrkjus.UPF
     MD5 check sum: 398036227a04b607635f6f5e8dfd8242
     Pseudo is Ultrasoft + core correction, Zval =  8.0
     Generated by new atomic code, or converted to UPF format
     Using radial grid of  957 points,  6 beta functions with: 
                l(1) =   0
                l(2) =   0
                l(3) =   1
                l(4) =   1
                l(5) =   2
                l(6) =   2
     Q(r) pseudized with 0 coefficients 


     atomic species   valence    mass     pseudopotential
        Fe             8.00    55.84500     Fe( 1.00)

     Starting magnetic structure 
     atomic species   magnetization
        Fe           0.452

      4 Sym. Ops. (no inversion) found



   Cartesian axes

     site n.     atom                  positions (alat units)
         1           Fe  tau(   1) = (   0.0000000   0.0000019   0.0000000  )
         2           Fe  tau(   2) = (   0.0000000   0.5953458   0.8728754  )

     number of k points=     8  Methfessel-Paxton smearing, width (Ry)=  0.0200
                       cart. coord. in units 2pi/alat
        k(    1) = (   0.0000000   0.0000000   0.0000000), wk =   0.0370370
        k(    2) = (   0.0000000   0.0000000   0.1909397), wk =   0.0740741
        k(    3) = (   0.0000000   0.3732657   0.0000000), wk =   0.0740741
        k(    4) = (   0.0000000   0.3732657   0.1909397), wk =   0.1481481
        k(    5) = (   0.3232578   0.5598986   0.0000000), wk =   0.0740741
        k(    6) = (   0.3232578   0.5598986   0.1909397), wk =   0.1481481
        k(    7) = (   0.3232578  -0.1866329   0.0000000), wk =   0.1481481
        k(    8) = (   0.3232578  -0.1866329   0.1909397), wk =   0.2962963

     Dense  grid:    10637 G-vectors     FFT dimensions: (  25,  25,  45)

     Smooth grid:     3791 G-vectors     FFT dimensions: (  18,  18,  30)

     Estimated max dynamical RAM per process >       8.16 MB

     Estimated total dynamical RAM >      65.28 MB
     Generating pointlists ...

     Initial potential from superposition of free atoms

     starting charge      15.9987, renormalised to      16.0000
     Starting wfcs are   12 randomized atomic wfcs

     total cpu time spent up to now is       92.3 secs

     Self-consistent Calculation

     iteration #  1     ecut=    30.00 Ry     beta= 0.50
     Davidson diagonalization with overlap
     c_bands:  1 eigenvalues not converged
     c_bands:  1 eigenvalues not converged
     c_bands:  1 eigenvalues not converged
     c_bands:  1 eigenvalues not converged
     c_bands:  1 eigenvalues not converged
     c_bands:  1 eigenvalues not converged
     ethr =  1.00E-06,  avg # of iterations = 17.1

     total cpu time spent up to now is       97.2 secs

     total energy              =    -111.34489557 Ry
     estimated scf accuracy    <       0.66480201 Ry

     total magnetization       =     5.80 Bohr mag/cell
     absolute magnetization    =     5.80 Bohr mag/cell

     iteration #  2     ecut=    30.00 Ry     beta= 0.50
     Davidson diagonalization with overlap
     ethr =  4.16E-03,  avg # of iterations =  2.7

     total cpu time spent up to now is       98.2 secs

     total energy              =    -111.56368203 Ry
     estimated scf accuracy    <       0.10638286 Ry

     total magnetization       =     5.78 Bohr mag/cell
     absolute magnetization    =     5.78 Bohr mag/cell

     iteration #  3     ecut=    30.00 Ry     beta= 0.50
     Davidson diagonalization with overlap
     ethr =  6.65E-04,  avg # of iterations =  1.9

     total cpu time spent up to now is       99.3 secs

     total energy              =    -111.58450883 Ry
     estimated scf accuracy    <       0.00801974 Ry

     total magnetization       =     5.78 Bohr mag/cell
     absolute magnetization    =     5.81 Bohr mag/cell

     iteration #  4     ecut=    30.00 Ry     beta= 0.50
     Davidson diagonalization with overlap
     ethr =  5.01E-05,  avg # of iterations =  3.9

     total cpu time spent up to now is      100.0 secs

     total energy              =    -111.58781076 Ry
     estimated scf accuracy    <       0.01360205 Ry

     total magnetization       =     5.78 Bohr mag/cell
     absolute magnetization    =     5.93 Bohr mag/cell

     iteration #  5     ecut=    30.00 Ry     beta= 0.50
     Davidson diagonalization with overlap
     ethr =  5.01E-05,  avg # of iterations =  3.3

     total cpu time spent up to now is      101.0 secs

     total energy              =    -111.59213532 Ry
     estimated scf accuracy    <       0.00177816 Ry

     total magnetization       =     5.78 Bohr mag/cell
     absolute magnetization    =     5.94 Bohr mag/cell

     iteration #  6     ecut=    30.00 Ry     beta= 0.50
     Davidson diagonalization with overlap
     ethr =  1.11E-05,  avg # of iterations =  1.6

     total cpu time spent up to now is      101.7 secs

     total energy              =    -111.59200651 Ry
     estimated scf accuracy    <       0.00276194 Ry

     total magnetization       =     5.78 Bohr mag/cell
     absolute magnetization    =     5.95 Bohr mag/cell

     iteration #  7     ecut=    30.00 Ry     beta= 0.50
     Davidson diagonalization with overlap
     ethr =  1.11E-05,  avg # of iterations =  1.5

     total cpu time spent up to now is      102.2 secs

     total energy              =    -111.59209541 Ry
     estimated scf accuracy    <       0.00029524 Ry

     total magnetization       =     5.78 Bohr mag/cell
     absolute magnetization    =     5.97 Bohr mag/cell

     iteration #  8     ecut=    30.00 Ry     beta= 0.50
     Davidson diagonalization with overlap
     ethr =  1.85E-06,  avg # of iterations =  3.0

     total cpu time spent up to now is      103.8 secs

     total energy              =    -111.59217397 Ry
     estimated scf accuracy    <       0.00000241 Ry

     total magnetization       =     5.78 Bohr mag/cell
     absolute magnetization    =     5.97 Bohr mag/cell

     iteration #  9     ecut=    30.00 Ry     beta= 0.50
     Davidson diagonalization with overlap
     ethr =  1.51E-08,  avg # of iterations =  8.6

     total cpu time spent up to now is      106.2 secs

     total energy              =    -111.59218469 Ry
     estimated scf accuracy    <       0.00000308 Ry

     total magnetization       =     5.78 Bohr mag/cell
     absolute magnetization    =     5.98 Bohr mag/cell

     iteration # 10     ecut=    30.00 Ry     beta= 0.50
     Davidson diagonalization with overlap
     ethr =  1.51E-08,  avg # of iterations =  3.3

     total cpu time spent up to now is      107.3 secs

     total energy              =    -111.59218579 Ry
     estimated scf accuracy    <       0.00000127 Ry

     total magnetization       =     5.78 Bohr mag/cell
     absolute magnetization    =     5.97 Bohr mag/cell

     iteration # 11     ecut=    30.00 Ry     beta= 0.50
     Davidson diagonalization with overlap
     ethr =  7.94E-09,  avg # of iterations =  1.6

     total cpu time spent up to now is      109.1 secs

     total energy              =    -111.59218574 Ry
     estimated scf accuracy    <       0.00000027 Ry

     total magnetization       =     5.78 Bohr mag/cell
     absolute magnetization    =     5.97 Bohr mag/cell

     iteration # 12     ecut=    30.00 Ry     beta= 0.50
     Davidson diagonalization with overlap
     ethr =  1.71E-09,  avg # of iterations =  3.6

     total cpu time spent up to now is      110.5 secs

     total energy              =    -111.59218588 Ry
     estimated scf accuracy    <       0.00000017 Ry

     total magnetization       =     5.78 Bohr mag/cell
     absolute magnetization    =     5.98 Bohr mag/cell

     iteration # 13     ecut=    30.00 Ry     beta= 0.50
     Davidson diagonalization with overlap
     ethr =  1.09E-09,  avg # of iterations =  1.9

     total cpu time spent up to now is      111.6 secs

     total energy              =    -111.59218590 Ry
     estimated scf accuracy    <          8.5E-09 Ry

     total magnetization       =     5.78 Bohr mag/cell
     absolute magnetization    =     5.98 Bohr mag/cell

     iteration # 14     ecut=    30.00 Ry     beta= 0.50
     Davidson diagonalization with overlap
     ethr =  5.33E-11,  avg # of iterations =  5.5

     total cpu time spent up to now is      112.2 secs

     total energy              =    -111.59218591 Ry
     estimated scf accuracy    <       0.00000001 Ry

     total magnetization       =     5.78 Bohr mag/cell
     absolute magnetization    =     5.98 Bohr mag/cell

     iteration # 15     ecut=    30.00 Ry     beta= 0.50
     Davidson diagonalization with overlap
     ethr =  5.33E-11,  avg # of iterations =  2.4

     Magnetic moment per site  (integrated on atomic sphere of radius R)
     atom   1 (R=0.412)  charge=  6.4362  magn=  2.9094
     atom   2 (R=0.412)  charge=  6.4358  magn=  2.9094

     total cpu time spent up to now is      113.6 secs

     End of self-consistent calculation

 ------ SPIN UP ------------


          k = 0.0000 0.0000 0.0000 (   477 PWs)   bands (ev):

     3.9386   7.2574   9.4167   9.4167   9.4450   9.6506   9.6506  10.0987
    10.0987  10.9454  10.9454  11.7047

          k = 0.0000 0.0000 0.1909 (   482 PWs)   bands (ev):

     4.8572   6.7637   9.2893   9.3524   9.3524   9.4919   9.4919   9.7172
    10.4401  10.4401  10.8420  10.8420

          k = 0.0000 0.3733 0.0000 (   468 PWs)   bands (ev):

     6.8486   7.8548   8.0938   9.1378   9.5329   9.5502   9.6189  10.7457
    10.8504  11.0008  11.0659  17.5739

          k = 0.0000 0.3733 0.1909 (   465 PWs)   bands (ev):

     7.0670   7.6743   8.3449   8.6903   9.8144   9.8285  10.4137  10.4791
    10.8300  10.9654  10.9903  13.4303

          k = 0.3233 0.5599 0.0000 (   480 PWs)   bands (ev):

     7.9404   8.4774   8.4774   8.5904   9.1402   9.1402   9.9192  10.8006
    11.0427  11.0427  16.4364  17.1465

          k = 0.3233 0.5599 0.1909 (   468 PWs)   bands (ev):

     8.2396   8.4116   8.4116   8.5889   9.1610   9.1610   9.8841  10.2589
    11.2024  11.2024  17.3949  17.3949

          k = 0.3233-0.1866 0.0000 (   468 PWs)   bands (ev):

     6.8486   7.8548   8.0938   9.1378   9.5329   9.5502   9.6189  10.7457
    10.8504  11.0008  11.0659  17.5739

          k = 0.3233-0.1866 0.1909 (   465 PWs)   bands (ev):

     7.0670   7.6743   8.3449   8.6903   9.8144   9.8285  10.4137  10.4791
    10.8300  10.9654  10.9903  13.4303

 ------ SPIN DOWN ----------


          k = 0.0000 0.0000 0.0000 (   477 PWs)   bands (ev):

     4.2061   8.8160  11.8084  11.9629  12.4855  12.4855  12.7982  12.7982
    13.5467  13.5467  14.5708  14.5708

          k = 0.0000 0.0000 0.1909 (   482 PWs)   bands (ev):

     5.1496   7.4833  11.2937  11.6628  12.4322  12.4322  12.6064  12.6064
    13.9468  13.9468  14.4437  14.4437

          k = 0.0000 0.3733 0.0000 (   468 PWs)   bands (ev):

     7.4430  10.1219  10.3381  11.2522  12.1439  12.5258  12.8013  13.7495
    14.0934  14.2259  14.7389  19.0728

          k = 0.0000 0.3733 0.1909 (   465 PWs)   bands (ev):

     8.0416   9.3746  10.6926  11.2998  11.9681  12.4947  13.1405  13.8671
    14.0465  14.2283  14.5088  15.6279

          k = 0.3233 0.5599 0.0000 (   480 PWs)   bands (ev):

    10.3859  10.3860  10.5260  10.5459  12.0304  12.0304  12.8780  14.0620
    14.0620  14.3989  18.0764  18.6962

          k = 0.3233 0.5599 0.1909 (   468 PWs)   bands (ev):

    10.6509  10.6575  10.6702  10.6702  11.6141  11.6141  12.9542  13.6490
    14.2885  14.2885  18.8228  18.8228

          k = 0.3233-0.1866 0.0000 (   468 PWs)   bands (ev):

     7.4430  10.1219  10.3381  11.2522  12.1439  12.5258  12.8013  13.7495
    14.0934  14.2259  14.7389  19.0728

          k = 0.3233-0.1866 0.1909 (   465 PWs)   bands (ev):

     8.0416   9.3746  10.6926  11.2998  11.9681  12.4947  13.1405  13.8671
    14.0465  14.2283  14.5088  15.6279

     the Fermi energy is    12.2787 ev

!    total energy              =    -111.59218591 Ry
     estimated scf accuracy    <          7.7E-11 Ry
     smearing contrib. (-TS)   =       0.00114076 Ry
     internal energy E=F+TS    =    -111.59332667 Ry

     The total energy is F=E-TS. E is the sum of the following terms:
     one-electron contribution =      11.35217858 Ry
     hartree contribution      =      14.10278246 Ry
     xc contribution           =     -52.90161733 Ry
     ewald contribution        =     -84.14667039 Ry

     total magnetization       =     5.78 Bohr mag/cell
     absolute magnetization    =     5.98 Bohr mag/cell

     convergence has been achieved in  15 iterations

     Forces acting on atoms (cartesian axes, Ry/au):

     atom    1 type  1   force =    -0.00000000   -0.00000043    0.00000000
     atom    2 type  1   force =     0.00000000    0.00000043    0.00000000
     The non-local contrib.  to forces
     atom    1 type  1   force =     0.00000000    0.00000029    0.00000000
     atom    2 type  1   force =    -0.00000000   -0.00000078    0.00000000
     The ionic contribution  to forces
     atom    1 type  1   force =    -0.00000000   -0.00000239   -0.00002571
     atom    2 type  1   force =    -0.00000000    0.00000239    0.00002571
     The local contribution  to forces
     atom    1 type  1   force =     0.00000000    0.00000191    0.00000000
     atom    2 type  1   force =    -0.00000000   -0.00000156    0.00008487
     The core correction contribution to forces
     atom    1 type  1   force =     0.00000000   -0.00000004   -0.00000000
     atom    2 type  1   force =     0.00000000    0.00000008    0.00001361
     The Hubbard contrib.    to forces
     atom    1 type  1   force =     0.00000000    0.00000000    0.00000000
     atom    2 type  1   force =     0.00000000    0.00000000    0.00000000
     The SCF correction term to forces
     atom    1 type  1   force =    -0.00000000   -0.00000045   -0.00000000
     atom    2 type  1   force =    -0.00000000    0.00000006    0.00000000

     Total force =     0.000001     Total SCF correction =     0.000000
     SCF correction compared to forces is large: reduce conv_thr to get better values


     Computing stress (Cartesian axis) and pressure

          total   stress  (Ry/bohr**3)                   (kbar)     P=       -7.95
  -0.00004814  -0.00000000   0.00000000           -7.08       -0.00        0.00
  -0.00000000  -0.00004813   0.00000000           -0.00       -7.08        0.00
   0.00000000   0.00000000  -0.00006578            0.00        0.00       -9.68


     init_run     :      1.63s CPU      2.56s WALL (       2 calls)
     electrons    :     68.20s CPU    102.42s WALL (       6 calls)
     update_pot   :      0.82s CPU      1.47s WALL (       4 calls)
     forces       :      0.82s CPU      1.68s WALL (       6 calls)
     stress       :      2.41s CPU      4.76s WALL (       6 calls)

     Called by init_run:
     wfcinit      :      0.32s CPU      0.50s WALL (       2 calls)
     potinit      :      0.37s CPU      0.49s WALL (       2 calls)
     hinit0       :      0.75s CPU      1.12s WALL (       2 calls)

     Called by electrons:
     c_bands      :     55.75s CPU     83.55s WALL (      74 calls)
     sum_band     :      6.50s CPU      9.39s WALL (      74 calls)
     v_of_rho     :      2.07s CPU      3.08s WALL (      80 calls)
     newd         :      1.14s CPU      1.61s WALL (      80 calls)
     mix_rho      :      1.88s CPU      2.85s WALL (      74 calls)

     Called by c_bands:
     init_us_2    :      0.12s CPU      0.19s WALL (    2592 calls)
     init_us_2:cp :      0.11s CPU      0.17s WALL (    2592 calls)
     cegterg      :     47.27s CPU     70.54s WALL (    1184 calls)

     Called by *egterg:
     cdiaghg      :      4.48s CPU     12.97s WALL (    5153 calls)
     h_psi        :     26.67s CPU     35.77s WALL (    5249 calls)
     s_psi        :      0.12s CPU      0.15s WALL (    5249 calls)
     g_psi        :      0.02s CPU      0.02s WALL (    4033 calls)

     Called by h_psi:
     h_psi:calbec :      2.11s CPU      2.86s WALL (    5249 calls)
     vloc_psi     :     24.43s CPU     32.69s WALL (    5249 calls)
     add_vuspsi   :      0.11s CPU      0.15s WALL (    5249 calls)

     General routines
     calbec       :      3.22s CPU      4.61s WALL (    6913 calls)
     fft          :      3.00s CPU      4.13s WALL (    2232 calls)
     ffts         :      0.32s CPU      0.45s WALL (     308 calls)
     fftw         :     27.70s CPU     37.15s WALL (  101502 calls)
     interpolate  :      0.38s CPU      0.50s WALL (     160 calls)

     Parallel routines

     PWSCF        :   1m14.76s CPU   1m54.97s WALL


   This run was terminated on:  17:46: 4   1Nov2023            

=------------------------------------------------------------------------------=
   JOB DONE.
=------------------------------------------------------------------------------=
