LAMMPS (29 Oct 2020)
Reading data file ...
  orthogonal box = (0.0000000 0.0000000 0.0000000) to (24.540000 24.540000 24.540000)
  1 by 1 by 1 MPI processor grid
  reading atoms ...
  863 atoms
  read_data CPU = 0.001 seconds
Reading eam potential file /home/gridsan/epan1/3320_atomistic_shared/lammps/potentials/Ag_u3.eam with DATE: 2007-06-11
WARNING: No fixes defined, atoms won't move (../verlet.cpp:54)
Neighbor list info ...
  update every 1 steps, delay 10 steps, check yes
  max neighbors/atom: 2000, page size: 100000
  master list distance cutoff = 7.55
  ghost atom cutoff = 7.55
  binsize = 3.775, bins = 7 7 7
  1 neighbor lists, perpetual/occasional/extra = 1 0 0
  (1) pair eam, perpetual
      attributes: half, newton on
      pair build: half/bin/atomonly/newton
      stencil: half/bin/3d/newton
      bin: standard
Setting up Verlet run ...
  Unit style    : metal
  Current step  : 0
  Time step     : 0.001
Per MPI rank memory allocation (min/avg/max) = 3.422 | 3.422 | 3.422 Mbytes
Step PotEng Lx Ly Lz Press Pxx Pyy Pzz 
       0   -2458.5758        24.54        24.54        24.54   -173.75782   -173.75782   -173.75782   -173.75782 
Loop time of 0 on 1 procs for 0 steps with 863 atoms

0.0% CPU use with 1 MPI tasks x no OpenMP threads

MPI task timing breakdown:
Section |  min time  |  avg time  |  max time  |%varavg| %total
---------------------------------------------------------------
Pair    | 0          | 0          | 0          |   0.0 |  0.00
Neigh   | 0          | 0          | 0          |   0.0 |  0.00
Comm    | 0          | 0          | 0          |   0.0 |  0.00
Output  | 0          | 0          | 0          |   0.0 |  0.00
Modify  | 0          | 0          | 0          |   0.0 |  0.00
Other   |            | 0          |            |       |  0.00

Nlocal:        863.000 ave         863 max         863 min
Histogram: 1 0 0 0 0 0 0 0 0 0
Nghost:        2558.00 ave        2558 max        2558 min
Histogram: 1 0 0 0 0 0 0 0 0 0
Neighs:        37066.0 ave       37066 max       37066 min
Histogram: 1 0 0 0 0 0 0 0 0 0

Total # of neighbors = 37066
Ave neighs/atom = 42.950174
Neighbor list builds = 0
Dangerous builds = 0
WARNING: Using 'neigh_modify every 1 delay 0 check yes' setting during minimization (../min.cpp:187)
Setting up cg style minimization ...
  Unit style    : metal
  Current step  : 0
WARNING: Energy due to 1 extra global DOFs will be included in minimizer energies
Per MPI rank memory allocation (min/avg/max) = 4.547 | 4.547 | 4.547 Mbytes
Step PotEng Lx Ly Lz Press Pxx Pyy Pzz 
       0   -2458.5758        24.54        24.54        24.54   -173.75782   -173.75782   -173.75782   -173.75782 
      13   -2458.5836    24.538357    24.538357    24.538357    2.4676026    2.4676026    2.4676026    2.4676026 
Loop time of 0.0267899 on 1 procs for 13 steps with 863 atoms

100.0% CPU use with 1 MPI tasks x no OpenMP threads

Minimization stats:
  Stopping criterion = energy tolerance
  Energy initial, next-to-last, final = 
     -2458.57577122219  -2458.58359589782  -2458.58359606906
  Force two-norm initial, final = 4.8136108 0.10703229
  Force max component initial, final = 4.8081602 0.068273418
  Final line search alpha, max atom move = 0.0098032658 0.00066930246
  Iterations, force evaluations = 13 26

MPI task timing breakdown:
Section |  min time  |  avg time  |  max time  |%varavg| %total
---------------------------------------------------------------
Pair    | 0.025224   | 0.025224   | 0.025224   |   0.0 | 94.15
Neigh   | 0          | 0          | 0          |   0.0 |  0.00
Comm    | 0.00024247 | 0.00024247 | 0.00024247 |   0.0 |  0.91
Output  | 0          | 0          | 0          |   0.0 |  0.00
Modify  | 0          | 0          | 0          |   0.0 |  0.00
Other   |            | 0.001324   |            |       |  4.94

Nlocal:        863.000 ave         863 max         863 min
Histogram: 1 0 0 0 0 0 0 0 0 0
Nghost:        2558.00 ave        2558 max        2558 min
Histogram: 1 0 0 0 0 0 0 0 0 0
Neighs:        37066.0 ave       37066 max       37066 min
Histogram: 1 0 0 0 0 0 0 0 0 0

Total # of neighbors = 37066
Ave neighs/atom = 42.950174
Neighbor list builds = 0
Dangerous builds = 0
Total energy (eV) = -2458.58359606906
Number of atoms = 863
Lattice constant (Angstoms) = 24.5383572286299
Total wall time: 0:00:00
