Header of the LAMMPS data file 

4 atoms 
1 atom types

0.0 4.168686868686868  xlo xhi
0.0 4.168686868686868  ylo yhi
0.0 4.168686868686868  zlo zhi

Masses 

1  107.8682

Atoms # atomic 

1 1 0.00000 0.00000 0.00000 
2 1 0.00000 2.08434 2.08434 
3 1 2.08434 0.00000 2.08434 
4 1 2.08434 2.08434 0.00000 
