
     Program PWSCF v.7.2 starts on 31Oct2023 at 10:22:27 

     This program is part of the open-source Quantum ESPRESSO suite
     for quantum simulation of materials; please cite
         "P. Giannozzi et al., J. Phys.:Condens. Matter 21 395502 (2009);
         "P. Giannozzi et al., J. Phys.:Condens. Matter 29 465901 (2017);
         "P. Giannozzi et al., J. Chem. Phys. 152 154105 (2020);
          URL http://www.quantum-espresso.org", 
     in publications or presentations arising from this work. More details at
     http://www.quantum-espresso.org/quote

     Parallel version (MPI), running on     8 processors

     MPI processes distributed on     8 nodes
     186350 MiB available memory on the printing compute node when the environment starts

     Waiting for input...
     Reading input from standard input

     Current dimensions of program PWSCF are:
     Max number of different atomic species (ntypx) = 10
     Max number of k-points (npk) =  40000
     Max angular momentum in pseudopotentials (lmaxx) =  4
     file Fe.pbe-nd-rrkjus.UPF: wavefunction(s)  4S renormalized
     Message from routine find_sym:
     Not a group! Trying with lower acceptance parameter...
     Message from routine find_sym:
     Symmetry operations form a group
     Message from routine setup:
     using ibrav=0 with symmetry is DISCOURAGED, use correct ibrav instead

     R & G space division:  proc/nbgrp/npool/nimage =       8
     Subspace diagonalization in iterative solution of the eigenvalue problem:
     a serial algorithm will be used


     Parallelization info
     --------------------
     sticks:   dense  smooth     PW     G-vecs:    dense   smooth      PW
     Min          45      23      5                 1167      417      48
     Max          46      24      6                 1174      422      50
     Sum         367     187     43                 9369     3357     391

     Using Slab Decomposition



     bravais-lattice index     =            0
     lattice parameter (alat)  =       4.7243  a.u.
     unit-cell volume          =     149.1185 (a.u.)^3
     number of atoms/cell      =            2
     number of atomic types    =            1
     number of electrons       =        16.00
     number of Kohn-Sham states=           12
     kinetic-energy cutoff     =      30.0000  Ry
     charge density cutoff     =     240.0000  Ry
     scf convergence threshold =      1.0E-07
     mixing beta               =       0.5000
     number of iterations used =            8  plain     mixing
     energy convergence thresh.=      1.0E-04
     force convergence thresh. =      1.0E-03
     press convergence thresh. =      5.0E-01
     Exchange-correlation=  SLA  PW   PBE  PBE
                           (   1   4   3   4   0   0   0)
     nstep                     =           50


     celldm(1)=   4.724315  celldm(2)=   0.000000  celldm(3)=   0.000000
     celldm(4)=   0.000000  celldm(5)=   0.000000  celldm(6)=   0.000000

     crystal axes: (cart. coord. in units of alat)
               a(1) = (   1.000000   0.000000   0.000000 )  
               a(2) = (  -0.500000   0.866025   0.000000 )  
               a(3) = (   0.000000   0.000000   1.632993 )  

     reciprocal axes: (cart. coord. in units 2 pi/alat)
               b(1) = (  1.000000  0.577350 -0.000000 )  
               b(2) = (  0.000000  1.154701  0.000000 )  
               b(3) = (  0.000000 -0.000000  0.612372 )  


     PseudoPot. # 1 for Fe read from file:
     /home/gridsan/epan1/labutil/lab3_samples/pseudopotentials/Fe.pbe-nd-rrkjus.UPF
     MD5 check sum: 398036227a04b607635f6f5e8dfd8242
     Pseudo is Ultrasoft + core correction, Zval =  8.0
     Generated by new atomic code, or converted to UPF format
     Using radial grid of  957 points,  6 beta functions with: 
                l(1) =   0
                l(2) =   0
                l(3) =   1
                l(4) =   1
                l(5) =   2
                l(6) =   2
     Q(r) pseudized with 0 coefficients 


     atomic species   valence    mass     pseudopotential
        Fe             8.00    55.84500     Fe( 1.00)

     Starting magnetic structure 
     atomic species   magnetization
        Fe           0.700

      4 Sym. Ops. (no inversion) found



   Cartesian axes

     site n.     atom                  positions (alat units)
         1           Fe  tau(   1) = (   0.0000000   0.0000000   0.0000000  )
         2           Fe  tau(   2) = (  -0.0000000   0.5773520   0.8164960  )

     number of k points=     1  Methfessel-Paxton smearing, width (Ry)=  0.0200
                       cart. coord. in units 2pi/alat
        k(    1) = (   0.0000000   0.0000000   0.0000000), wk =   1.0000000

     Dense  grid:     9369 G-vectors     FFT dimensions: (  24,  24,  40)

     Smooth grid:     3357 G-vectors     FFT dimensions: (  18,  18,  27)

     Estimated max dynamical RAM per process >       7.31 MB

     Estimated total dynamical RAM >      58.50 MB
     Generating pointlists ...
     new r_m :   0.4125 (alat units)  1.9488 (a.u.) for type    1

     Initial potential from superposition of free atoms

     starting charge      15.9987, renormalised to      16.0000
     Starting wfcs are   12 randomized atomic wfcs

     total cpu time spent up to now is        0.5 secs

     Self-consistent Calculation

     iteration #  1     ecut=    30.00 Ry     beta= 0.50
     Davidson diagonalization with overlap
     ethr =  1.00E-02,  avg # of iterations =  2.0

     total cpu time spent up to now is        0.5 secs

     total energy              =    -111.78624849 Ry
     estimated scf accuracy    <       0.33071593 Ry

     total magnetization       =     6.00 Bohr mag/cell
     absolute magnetization    =     6.00 Bohr mag/cell

     iteration #  2     ecut=    30.00 Ry     beta= 0.50
     Davidson diagonalization with overlap
     ethr =  2.07E-03,  avg # of iterations =  1.0

     total cpu time spent up to now is        0.5 secs

     total energy              =    -111.84221384 Ry
     estimated scf accuracy    <       0.08174919 Ry

     total magnetization       =     6.00 Bohr mag/cell
     absolute magnetization    =     6.01 Bohr mag/cell

     iteration #  3     ecut=    30.00 Ry     beta= 0.50
     Davidson diagonalization with overlap
     ethr =  5.11E-04,  avg # of iterations =  7.0

     total cpu time spent up to now is        0.6 secs

     total energy              =    -112.17554066 Ry
     estimated scf accuracy    <       0.65413651 Ry

     total magnetization       =     8.17 Bohr mag/cell
     absolute magnetization    =     8.18 Bohr mag/cell

     iteration #  4     ecut=    30.00 Ry     beta= 0.50
     Davidson diagonalization with overlap
     ethr =  5.11E-04,  avg # of iterations =  1.0
     Minimization algorithm failed to find Fermi energy: reverting to bisection
     Possible cause: smearing is larger than the electronic band-gap.

     total cpu time spent up to now is        0.6 secs

     total energy              =    -112.05920566 Ry
     estimated scf accuracy    <       0.50929104 Ry

     total magnetization       =     8.07 Bohr mag/cell
     absolute magnetization    =     8.09 Bohr mag/cell

     iteration #  5     ecut=    30.00 Ry     beta= 0.50
     Davidson diagonalization with overlap
     ethr =  5.11E-04,  avg # of iterations =  3.0

     total cpu time spent up to now is        0.6 secs

     total energy              =    -112.03859165 Ry
     estimated scf accuracy    <       0.22178718 Ry

     total magnetization       =     8.00 Bohr mag/cell
     absolute magnetization    =     8.02 Bohr mag/cell

     iteration #  6     ecut=    30.00 Ry     beta= 0.50
     Davidson diagonalization with overlap
     ethr =  5.11E-04,  avg # of iterations =  1.0

     total cpu time spent up to now is        0.7 secs

     total energy              =    -112.03623015 Ry
     estimated scf accuracy    <       0.03972034 Ry

     total magnetization       =     8.00 Bohr mag/cell
     absolute magnetization    =     8.00 Bohr mag/cell

     iteration #  7     ecut=    30.00 Ry     beta= 0.50
     Davidson diagonalization with overlap
     ethr =  2.48E-04,  avg # of iterations =  2.5

     negative rho (up, down):  0.000E+00 3.057E-05

     total cpu time spent up to now is        0.7 secs

     total energy              =    -112.11296930 Ry
     estimated scf accuracy    <       0.29045597 Ry

     total magnetization       =     7.53 Bohr mag/cell
     absolute magnetization    =     7.54 Bohr mag/cell

     iteration #  8     ecut=    30.00 Ry     beta= 0.50
     Davidson diagonalization with overlap
     ethr =  2.48E-04,  avg # of iterations =  2.0

     total cpu time spent up to now is        0.7 secs

     total energy              =    -112.08278111 Ry
     estimated scf accuracy    <       2.07489585 Ry

     total magnetization       =     5.93 Bohr mag/cell
     absolute magnetization    =     6.06 Bohr mag/cell

     iteration #  9     ecut=    30.00 Ry     beta= 0.50
     Davidson diagonalization with overlap
     ethr =  2.48E-04,  avg # of iterations =  1.5

     total cpu time spent up to now is        0.7 secs

     total energy              =    -112.08567530 Ry
     estimated scf accuracy    <       0.54164618 Ry

     total magnetization       =     7.77 Bohr mag/cell
     absolute magnetization    =     7.77 Bohr mag/cell

     iteration # 10     ecut=    30.00 Ry     beta= 0.50
     Davidson diagonalization with overlap
     ethr =  2.48E-04,  avg # of iterations =  2.0

     total cpu time spent up to now is        0.8 secs

     total energy              =    -112.08665493 Ry
     estimated scf accuracy    <       0.41205659 Ry

     total magnetization       =     8.00 Bohr mag/cell
     absolute magnetization    =     8.01 Bohr mag/cell

     iteration # 11     ecut=    30.00 Ry     beta= 0.50
     Davidson diagonalization with overlap
     ethr =  2.48E-04,  avg # of iterations =  1.0

     total cpu time spent up to now is        0.8 secs

     total energy              =    -112.05541720 Ry
     estimated scf accuracy    <       0.37204306 Ry

     total magnetization       =     8.00 Bohr mag/cell
     absolute magnetization    =     8.01 Bohr mag/cell

     iteration # 12     ecut=    30.00 Ry     beta= 0.50
     Davidson diagonalization with overlap
     ethr =  2.48E-04,  avg # of iterations =  1.5

     total cpu time spent up to now is        0.8 secs

     total energy              =    -112.06206513 Ry
     estimated scf accuracy    <       0.04953693 Ry

     total magnetization       =     8.00 Bohr mag/cell
     absolute magnetization    =     8.01 Bohr mag/cell

     iteration # 13     ecut=    30.00 Ry     beta= 0.50
     Davidson diagonalization with overlap
     ethr =  2.48E-04,  avg # of iterations =  1.0

     total cpu time spent up to now is        0.8 secs

     total energy              =    -112.06782226 Ry
     estimated scf accuracy    <       0.21389673 Ry

     total magnetization       =     8.00 Bohr mag/cell
     absolute magnetization    =     8.01 Bohr mag/cell

     iteration # 14     ecut=    30.00 Ry     beta= 0.50
     Davidson diagonalization with overlap
     ethr =  2.48E-04,  avg # of iterations =  1.0

     total cpu time spent up to now is        0.9 secs

     total energy              =    -112.06013786 Ry
     estimated scf accuracy    <       0.22852731 Ry

     total magnetization       =     8.00 Bohr mag/cell
     absolute magnetization    =     8.01 Bohr mag/cell

     iteration # 15     ecut=    30.00 Ry     beta= 0.50
     Davidson diagonalization with overlap
     ethr =  2.48E-04,  avg # of iterations =  1.0

     total cpu time spent up to now is        0.9 secs

     total energy              =    -112.06336767 Ry
     estimated scf accuracy    <       0.17893895 Ry

     total magnetization       =     8.00 Bohr mag/cell
     absolute magnetization    =     8.01 Bohr mag/cell

     iteration # 16     ecut=    30.00 Ry     beta= 0.50
     Davidson diagonalization with overlap
     ethr =  2.48E-04,  avg # of iterations =  1.0

     total cpu time spent up to now is        0.9 secs

     total energy              =    -112.05208347 Ry
     estimated scf accuracy    <       0.13739857 Ry

     total magnetization       =     8.00 Bohr mag/cell
     absolute magnetization    =     8.01 Bohr mag/cell

     iteration # 17     ecut=    30.00 Ry     beta= 0.50
     Davidson diagonalization with overlap
     ethr =  2.48E-04,  avg # of iterations =  1.0

     total cpu time spent up to now is        1.0 secs

     total energy              =    -112.05298559 Ry
     estimated scf accuracy    <       0.07371475 Ry

     total magnetization       =     8.00 Bohr mag/cell
     absolute magnetization    =     8.01 Bohr mag/cell

     iteration # 18     ecut=    30.00 Ry     beta= 0.50
     Davidson diagonalization with overlap
     ethr =  2.48E-04,  avg # of iterations =  1.0

     total cpu time spent up to now is        1.0 secs

     total energy              =    -112.05848955 Ry
     estimated scf accuracy    <       0.11279675 Ry

     total magnetization       =     8.00 Bohr mag/cell
     absolute magnetization    =     8.01 Bohr mag/cell

     iteration # 19     ecut=    30.00 Ry     beta= 0.50
     Davidson diagonalization with overlap
     ethr =  2.48E-04,  avg # of iterations =  1.0

     total cpu time spent up to now is        1.0 secs

     total energy              =    -112.05922511 Ry
     estimated scf accuracy    <       0.01824114 Ry

     total magnetization       =     8.00 Bohr mag/cell
     absolute magnetization    =     8.01 Bohr mag/cell

     iteration # 20     ecut=    30.00 Ry     beta= 0.50
     Davidson diagonalization with overlap
     ethr =  1.14E-04,  avg # of iterations =  1.0

     total cpu time spent up to now is        1.0 secs

     total energy              =    -112.05932162 Ry
     estimated scf accuracy    <       0.00434030 Ry

     total magnetization       =     8.00 Bohr mag/cell
     absolute magnetization    =     8.01 Bohr mag/cell

     iteration # 21     ecut=    30.00 Ry     beta= 0.50
     Davidson diagonalization with overlap
     ethr =  2.71E-05,  avg # of iterations =  1.0

     total cpu time spent up to now is        1.1 secs

     total energy              =    -112.05930102 Ry
     estimated scf accuracy    <       0.00205290 Ry

     total magnetization       =     8.00 Bohr mag/cell
     absolute magnetization    =     8.01 Bohr mag/cell

     iteration # 22     ecut=    30.00 Ry     beta= 0.50
     Davidson diagonalization with overlap
     ethr =  1.28E-05,  avg # of iterations =  1.0

     total cpu time spent up to now is        1.1 secs

     total energy              =    -112.05933313 Ry
     estimated scf accuracy    <       0.00042315 Ry

     total magnetization       =     8.00 Bohr mag/cell
     absolute magnetization    =     8.01 Bohr mag/cell

     iteration # 23     ecut=    30.00 Ry     beta= 0.50
     Davidson diagonalization with overlap
     ethr =  2.64E-06,  avg # of iterations =  1.0

     total cpu time spent up to now is        1.1 secs

     total energy              =    -112.05926327 Ry
     estimated scf accuracy    <       0.00096251 Ry

     total magnetization       =     8.00 Bohr mag/cell
     absolute magnetization    =     8.01 Bohr mag/cell

     iteration # 24     ecut=    30.00 Ry     beta= 0.50
     Davidson diagonalization with overlap
     ethr =  2.64E-06,  avg # of iterations =  1.0

     total cpu time spent up to now is        1.1 secs

     total energy              =    -112.05932626 Ry
     estimated scf accuracy    <       0.00070029 Ry

     total magnetization       =     8.00 Bohr mag/cell
     absolute magnetization    =     8.01 Bohr mag/cell

     iteration # 25     ecut=    30.00 Ry     beta= 0.50
     Davidson diagonalization with overlap
     ethr =  2.64E-06,  avg # of iterations =  1.0

     total cpu time spent up to now is        1.2 secs

     total energy              =    -112.05929424 Ry
     estimated scf accuracy    <       0.00115607 Ry

     total magnetization       =     8.00 Bohr mag/cell
     absolute magnetization    =     8.01 Bohr mag/cell

     iteration # 26     ecut=    30.00 Ry     beta= 0.50
     Davidson diagonalization with overlap
     ethr =  2.64E-06,  avg # of iterations =  1.0

     total cpu time spent up to now is        1.2 secs

     total energy              =    -112.05931438 Ry
     estimated scf accuracy    <       0.00002082 Ry

     total magnetization       =     8.00 Bohr mag/cell
     absolute magnetization    =     8.01 Bohr mag/cell

     iteration # 27     ecut=    30.00 Ry     beta= 0.50
     Davidson diagonalization with overlap
     ethr =  1.30E-07,  avg # of iterations =  1.5

     total cpu time spent up to now is        1.2 secs

     total energy              =    -112.05931669 Ry
     estimated scf accuracy    <       0.00000154 Ry

     total magnetization       =     8.00 Bohr mag/cell
     absolute magnetization    =     8.01 Bohr mag/cell

     iteration # 28     ecut=    30.00 Ry     beta= 0.50
     Davidson diagonalization with overlap
     ethr =  9.66E-09,  avg # of iterations =  4.5

     total cpu time spent up to now is        1.3 secs

     total energy              =    -112.05931756 Ry
     estimated scf accuracy    <       0.00000273 Ry

     total magnetization       =     8.00 Bohr mag/cell
     absolute magnetization    =     8.01 Bohr mag/cell

     iteration # 29     ecut=    30.00 Ry     beta= 0.50
     Davidson diagonalization with overlap
     ethr =  9.66E-09,  avg # of iterations =  1.0

     total cpu time spent up to now is        1.3 secs

     total energy              =    -112.05931768 Ry
     estimated scf accuracy    <       0.00000079 Ry

     total magnetization       =     8.00 Bohr mag/cell
     absolute magnetization    =     8.01 Bohr mag/cell

     iteration # 30     ecut=    30.00 Ry     beta= 0.50
     Davidson diagonalization with overlap
     ethr =  4.97E-09,  avg # of iterations =  1.5

     total cpu time spent up to now is        1.3 secs

     total energy              =    -112.05931773 Ry
     estimated scf accuracy    <       0.00000028 Ry

     total magnetization       =     8.00 Bohr mag/cell
     absolute magnetization    =     8.01 Bohr mag/cell

     iteration # 31     ecut=    30.00 Ry     beta= 0.50
     Davidson diagonalization with overlap
     ethr =  1.74E-09,  avg # of iterations =  2.5

     total cpu time spent up to now is        1.3 secs

     total energy              =    -112.05931779 Ry
     estimated scf accuracy    <       0.00000019 Ry

     total magnetization       =     8.00 Bohr mag/cell
     absolute magnetization    =     8.01 Bohr mag/cell

     iteration # 32     ecut=    30.00 Ry     beta= 0.50
     Davidson diagonalization with overlap
     ethr =  1.20E-09,  avg # of iterations =  1.0

     total cpu time spent up to now is        1.4 secs

     total energy              =    -112.05931777 Ry
     estimated scf accuracy    <       0.00000016 Ry

     total magnetization       =     8.00 Bohr mag/cell
     absolute magnetization    =     8.01 Bohr mag/cell

     iteration # 33     ecut=    30.00 Ry     beta= 0.50
     Davidson diagonalization with overlap
     ethr =  1.01E-09,  avg # of iterations =  1.0

     Magnetic moment per site  (integrated on atomic sphere of radius R)
     atom   1 (R=0.412)  charge=  6.6305  magn=  3.5747
     atom   2 (R=0.412)  charge=  6.6302  magn=  3.5750

     total cpu time spent up to now is        1.4 secs

     End of self-consistent calculation

 ------ SPIN UP ------------


          k = 0.0000 0.0000 0.0000 (   391 PWs)   bands (ev):

     4.7672   9.1238  11.6765  11.6768  11.7065  11.7065  11.8528  12.0449
    12.0452  12.9345  12.9345  13.0562

 ------ SPIN DOWN ----------


          k = 0.0000 0.0000 0.0000 (   391 PWs)   bands (ev):

     6.6155  10.6999  14.0226  15.1906  15.1909  15.5402  15.6154  15.6157
    16.5725  16.5725  17.9462  17.9462

     the Fermi energy is    15.2053 ev

!    total energy              =    -112.05931775 Ry
     estimated scf accuracy    <       0.00000007 Ry
     smearing contrib. (-TS)   =      -0.00227493 Ry
     internal energy E=F+TS    =    -112.05704281 Ry

     The total energy is F=E-TS. E is the sum of the following terms:
     one-electron contribution =      16.20290670 Ry
     hartree contribution      =      12.98752250 Ry
     xc contribution           =     -53.41296576 Ry
     ewald contribution        =     -87.83450626 Ry

     total magnetization       =     8.00 Bohr mag/cell
     absolute magnetization    =     8.01 Bohr mag/cell

     convergence has been achieved in  33 iterations

     Forces acting on atoms (cartesian axes, Ry/au):

     atom    1 type  1   force =     0.00000000    0.00003423    0.00000000
     atom    2 type  1   force =     0.00000000   -0.00003423    0.00000000
     The non-local contrib.  to forces
     atom    1 type  1   force =     0.00000000    0.00009046    0.00000000
     atom    2 type  1   force =     0.00000000   -0.00004403    0.00000000
     The ionic contribution  to forces
     atom    1 type  1   force =    -0.00000000    0.00000403   -0.00002690
     atom    2 type  1   force =     0.00000000   -0.00000403    0.00002690
     The local contribution  to forces
     atom    1 type  1   force =    -0.00000000   -0.00008604   -0.00000000
     atom    2 type  1   force =    -0.00000000    0.00001581    0.00007901
     The core correction contribution to forces
     atom    1 type  1   force =    -0.00000000   -0.00001057    0.00000000
     atom    2 type  1   force =     0.00000000    0.00000356    0.00001251
     The Hubbard contrib.    to forces
     atom    1 type  1   force =     0.00000000    0.00000000    0.00000000
     atom    2 type  1   force =     0.00000000    0.00000000    0.00000000
     The SCF correction term to forces
     atom    1 type  1   force =    -0.00000000    0.00010941    0.00000000
     atom    2 type  1   force =     0.00000000    0.00006751    0.00000000

     Total force =     0.000048     Total SCF correction =     0.000129
     SCF correction compared to forces is large: reduce conv_thr to get better values


     Computing stress (Cartesian axis) and pressure

          total   stress  (Ry/bohr**3)                   (kbar)     P=      423.71
  -0.00114776   0.00000000   0.00000000         -168.84        0.00        0.00
   0.00000000  -0.00114183   0.00000000            0.00     -167.97        0.00
   0.00000000   0.00000000   0.01093064            0.00        0.00     1607.95


     BFGS Geometry Optimization
     Energy error            =      0.0E+00 Ry
     Gradient error          =      3.4E-05 Ry/Bohr
     Cell gradient error     =      1.6E+03 kbar

     number of scf cycles    =   1
     number of bfgs steps    =   0

     enthalpy           new  =    -112.0593177497 Ry

     new trust radius        =       0.5000000000 bohr
     new conv_thr            =       0.0000001000 Ry

     new unit-cell volume =    172.02582 a.u.^3 (    25.49160 Ang^3 )
     density =      7.27556 g/cm^3

CELL_PARAMETERS (angstrom)
   2.446257047  -0.000000000   0.000000000
  -1.223128524   2.118761546   0.000000000
   0.000000000   0.000000000   4.918275600

ATOMIC_POSITIONS (angstrom)
Fe            0.0000000000        0.0000132810        0.0000000000
Fe            0.0000000000        1.4124986511        2.4591360502



     Writing config-only to output data dir /home/gridsan/epan1/labutil/lab3_samples/problem1/Lab3/Fe_hcp_a_2.5_ecut_30_nk_1/pwscf.save/
     NEW-OLD atomic charge density approx. for the potential

     Check: negative core charge=   -0.000016
     extrapolated charge   18.13042, renormalised to   16.00000
     Generating pointlists ...
     new r_m :   0.4036 (alat units)  1.9069 (a.u.) for type    1

     total cpu time spent up to now is        1.6 secs

     Self-consistent Calculation

     iteration #  1     ecut=    30.00 Ry     beta= 0.50
     Davidson diagonalization with overlap
     ethr =  1.00E-06,  avg # of iterations = 11.0

     total cpu time spent up to now is        1.7 secs

     total energy              =    -111.49830561 Ry
     estimated scf accuracy    <       1.08003321 Ry

     total magnetization       =     8.00 Bohr mag/cell
     absolute magnetization    =     8.02 Bohr mag/cell

     iteration #  2     ecut=    30.00 Ry     beta= 0.50
     Davidson diagonalization with overlap
     ethr =  6.75E-03,  avg # of iterations =  5.0

     total cpu time spent up to now is        1.7 secs

     total energy              =    -112.16756682 Ry
     estimated scf accuracy    <       1.71571019 Ry

     total magnetization       =     6.00 Bohr mag/cell
     absolute magnetization    =     6.03 Bohr mag/cell

     iteration #  3     ecut=    30.00 Ry     beta= 0.50
     Davidson diagonalization with overlap
     ethr =  6.75E-03,  avg # of iterations =  1.5

     total cpu time spent up to now is        1.8 secs

     total energy              =    -112.31418692 Ry
     estimated scf accuracy    <       0.14411432 Ry

     total magnetization       =     8.00 Bohr mag/cell
     absolute magnetization    =     8.01 Bohr mag/cell

     iteration #  4     ecut=    30.00 Ry     beta= 0.50
     Davidson diagonalization with overlap
     ethr =  9.01E-04,  avg # of iterations =  2.0

     total cpu time spent up to now is        1.8 secs

     total energy              =    -112.32678349 Ry
     estimated scf accuracy    <       0.16244676 Ry

     total magnetization       =     8.00 Bohr mag/cell
     absolute magnetization    =     8.01 Bohr mag/cell

     iteration #  5     ecut=    30.00 Ry     beta= 0.50
     Davidson diagonalization with overlap
     ethr =  9.01E-04,  avg # of iterations =  1.0

     total cpu time spent up to now is        1.8 secs

     total energy              =    -112.32347278 Ry
     estimated scf accuracy    <       0.05432201 Ry

     total magnetization       =     8.00 Bohr mag/cell
     absolute magnetization    =     8.01 Bohr mag/cell

     iteration #  6     ecut=    30.00 Ry     beta= 0.50
     Davidson diagonalization with overlap
     ethr =  3.40E-04,  avg # of iterations =  1.0

     negative rho (up, down):  0.000E+00 1.074E-02

     total cpu time spent up to now is        1.8 secs

     total energy              =    -112.32661055 Ry
     estimated scf accuracy    <       0.10326674 Ry

     total magnetization       =     8.00 Bohr mag/cell
     absolute magnetization    =     8.03 Bohr mag/cell

     iteration #  7     ecut=    30.00 Ry     beta= 0.50
     Davidson diagonalization with overlap
     ethr =  3.40E-04,  avg # of iterations =  2.5

     negative rho (up, down):  0.000E+00 2.729E-04

     total cpu time spent up to now is        1.9 secs

     total energy              =    -112.24205668 Ry
     estimated scf accuracy    <       2.78023198 Ry

     total magnetization       =     5.96 Bohr mag/cell
     absolute magnetization    =     6.11 Bohr mag/cell

     iteration #  8     ecut=    30.00 Ry     beta= 0.50
     Davidson diagonalization with overlap
     ethr =  3.40E-04,  avg # of iterations =  2.0

     total cpu time spent up to now is        1.9 secs

     total energy              =    -112.34404330 Ry
     estimated scf accuracy    <       0.00269098 Ry

     total magnetization       =     8.06 Bohr mag/cell
     absolute magnetization    =     8.10 Bohr mag/cell

     iteration #  9     ecut=    30.00 Ry     beta= 0.50
     Davidson diagonalization with overlap
     ethr =  1.68E-05,  avg # of iterations =  2.0

     total cpu time spent up to now is        1.9 secs

     total energy              =    -112.34643673 Ry
     estimated scf accuracy    <       0.02188673 Ry

     total magnetization       =     8.05 Bohr mag/cell
     absolute magnetization    =     8.06 Bohr mag/cell

     iteration # 10     ecut=    30.00 Ry     beta= 0.50
     Davidson diagonalization with overlap
     ethr =  1.68E-05,  avg # of iterations =  1.0

     total cpu time spent up to now is        2.0 secs

     total energy              =    -112.34478982 Ry
     estimated scf accuracy    <       0.02592555 Ry

     total magnetization       =     8.00 Bohr mag/cell
     absolute magnetization    =     8.01 Bohr mag/cell

     iteration # 11     ecut=    30.00 Ry     beta= 0.50
     Davidson diagonalization with overlap
     ethr =  1.68E-05,  avg # of iterations =  2.0

     total cpu time spent up to now is        2.0 secs

     total energy              =    -112.34664144 Ry
     estimated scf accuracy    <       0.00510866 Ry

     total magnetization       =     8.01 Bohr mag/cell
     absolute magnetization    =     8.03 Bohr mag/cell

     iteration # 12     ecut=    30.00 Ry     beta= 0.50
     Davidson diagonalization with overlap
     ethr =  1.68E-05,  avg # of iterations =  1.0

     total cpu time spent up to now is        2.0 secs

     total energy              =    -112.34428123 Ry
     estimated scf accuracy    <       0.00430091 Ry

     total magnetization       =     8.02 Bohr mag/cell
     absolute magnetization    =     8.04 Bohr mag/cell

     iteration # 13     ecut=    30.00 Ry     beta= 0.50
     Davidson diagonalization with overlap
     ethr =  1.68E-05,  avg # of iterations =  3.5

     total cpu time spent up to now is        2.1 secs

     total energy              =    -112.34681156 Ry
     estimated scf accuracy    <       0.01252766 Ry

     total magnetization       =     8.00 Bohr mag/cell
     absolute magnetization    =     8.03 Bohr mag/cell

     iteration # 14     ecut=    30.00 Ry     beta= 0.50
     Davidson diagonalization with overlap
     ethr =  1.68E-05,  avg # of iterations =  1.0

     total cpu time spent up to now is        2.1 secs

     total energy              =    -112.34636020 Ry
     estimated scf accuracy    <       0.01170987 Ry

     total magnetization       =     8.00 Bohr mag/cell
     absolute magnetization    =     8.03 Bohr mag/cell

     iteration # 15     ecut=    30.00 Ry     beta= 0.50
     Davidson diagonalization with overlap
     ethr =  1.68E-05,  avg # of iterations =  1.5

     total cpu time spent up to now is        2.1 secs

     total energy              =    -112.34647401 Ry
     estimated scf accuracy    <       0.00515107 Ry

     total magnetization       =     8.00 Bohr mag/cell
     absolute magnetization    =     8.04 Bohr mag/cell

     iteration # 16     ecut=    30.00 Ry     beta= 0.50
     Davidson diagonalization with overlap
     ethr =  1.68E-05,  avg # of iterations =  1.0

     total cpu time spent up to now is        2.2 secs

     total energy              =    -112.34646648 Ry
     estimated scf accuracy    <       0.00255412 Ry

     total magnetization       =     8.01 Bohr mag/cell
     absolute magnetization    =     8.04 Bohr mag/cell

     iteration # 17     ecut=    30.00 Ry     beta= 0.50
     Davidson diagonalization with overlap
     ethr =  1.60E-05,  avg # of iterations =  1.0

     total cpu time spent up to now is        2.2 secs

     total energy              =    -112.34639385 Ry
     estimated scf accuracy    <       0.00154436 Ry

     total magnetization       =     8.00 Bohr mag/cell
     absolute magnetization    =     8.04 Bohr mag/cell

     iteration # 18     ecut=    30.00 Ry     beta= 0.50
     Davidson diagonalization with overlap
     ethr =  9.65E-06,  avg # of iterations =  1.0

     total cpu time spent up to now is        2.2 secs

     total energy              =    -112.34641696 Ry
     estimated scf accuracy    <       0.00028613 Ry

     total magnetization       =     8.00 Bohr mag/cell
     absolute magnetization    =     8.03 Bohr mag/cell

     iteration # 19     ecut=    30.00 Ry     beta= 0.50
     Davidson diagonalization with overlap
     ethr =  1.79E-06,  avg # of iterations =  1.0

     total cpu time spent up to now is        2.2 secs

     total energy              =    -112.34640808 Ry
     estimated scf accuracy    <       0.00024741 Ry

     total magnetization       =     8.00 Bohr mag/cell
     absolute magnetization    =     8.03 Bohr mag/cell

     iteration # 20     ecut=    30.00 Ry     beta= 0.50
     Davidson diagonalization with overlap
     ethr =  1.55E-06,  avg # of iterations =  1.0

     total cpu time spent up to now is        2.3 secs

     total energy              =    -112.34641749 Ry
     estimated scf accuracy    <       0.00000807 Ry

     total magnetization       =     8.00 Bohr mag/cell
     absolute magnetization    =     8.03 Bohr mag/cell

     iteration # 21     ecut=    30.00 Ry     beta= 0.50
     Davidson diagonalization with overlap
     ethr =  5.04E-08,  avg # of iterations =  3.0

     total cpu time spent up to now is        2.3 secs

     total energy              =    -112.34642782 Ry
     estimated scf accuracy    <       0.00006335 Ry

     total magnetization       =     8.00 Bohr mag/cell
     absolute magnetization    =     8.03 Bohr mag/cell

     iteration # 22     ecut=    30.00 Ry     beta= 0.50
     Davidson diagonalization with overlap
     ethr =  5.04E-08,  avg # of iterations =  1.0

     total cpu time spent up to now is        2.3 secs

     total energy              =    -112.34642843 Ry
     estimated scf accuracy    <       0.00008823 Ry

     total magnetization       =     8.00 Bohr mag/cell
     absolute magnetization    =     8.03 Bohr mag/cell

     iteration # 23     ecut=    30.00 Ry     beta= 0.50
     Davidson diagonalization with overlap
     ethr =  5.04E-08,  avg # of iterations =  1.0

     total cpu time spent up to now is        2.4 secs

     total energy              =    -112.34642293 Ry
     estimated scf accuracy    <       0.00010553 Ry

     total magnetization       =     8.00 Bohr mag/cell
     absolute magnetization    =     8.03 Bohr mag/cell

     iteration # 24     ecut=    30.00 Ry     beta= 0.50
     Davidson diagonalization with overlap
     ethr =  5.04E-08,  avg # of iterations =  1.0

     total cpu time spent up to now is        2.4 secs

     total energy              =    -112.34642494 Ry
     estimated scf accuracy    <       0.00002511 Ry

     total magnetization       =     8.00 Bohr mag/cell
     absolute magnetization    =     8.03 Bohr mag/cell

     iteration # 25     ecut=    30.00 Ry     beta= 0.50
     Davidson diagonalization with overlap
     ethr =  5.04E-08,  avg # of iterations =  1.0

     total cpu time spent up to now is        2.4 secs

     total energy              =    -112.34642473 Ry
     estimated scf accuracy    <       0.00003098 Ry

     total magnetization       =     8.00 Bohr mag/cell
     absolute magnetization    =     8.03 Bohr mag/cell

     iteration # 26     ecut=    30.00 Ry     beta= 0.50
     Davidson diagonalization with overlap
     ethr =  5.04E-08,  avg # of iterations =  1.0

     total cpu time spent up to now is        2.5 secs

     total energy              =    -112.34641300 Ry
     estimated scf accuracy    <       0.00001386 Ry

     total magnetization       =     8.00 Bohr mag/cell
     absolute magnetization    =     8.03 Bohr mag/cell

     iteration # 27     ecut=    30.00 Ry     beta= 0.50
     Davidson diagonalization with overlap
     ethr =  5.04E-08,  avg # of iterations =  1.0

     total cpu time spent up to now is        2.5 secs

     total energy              =    -112.34641987 Ry
     estimated scf accuracy    <       0.00000358 Ry

     total magnetization       =     8.00 Bohr mag/cell
     absolute magnetization    =     8.03 Bohr mag/cell

     iteration # 28     ecut=    30.00 Ry     beta= 0.50
     Davidson diagonalization with overlap
     ethr =  2.24E-08,  avg # of iterations =  1.0

     total cpu time spent up to now is        2.5 secs

     total energy              =    -112.34641867 Ry
     estimated scf accuracy    <       0.00000322 Ry

     total magnetization       =     8.00 Bohr mag/cell
     absolute magnetization    =     8.03 Bohr mag/cell

     iteration # 29     ecut=    30.00 Ry     beta= 0.50
     Davidson diagonalization with overlap
     ethr =  2.01E-08,  avg # of iterations =  1.5

     total cpu time spent up to now is        2.5 secs

     total energy              =    -112.34641777 Ry
     estimated scf accuracy    <       0.00000441 Ry

     total magnetization       =     8.00 Bohr mag/cell
     absolute magnetization    =     8.03 Bohr mag/cell

     iteration # 30     ecut=    30.00 Ry     beta= 0.50
     Davidson diagonalization with overlap
     ethr =  2.01E-08,  avg # of iterations =  2.0

     total cpu time spent up to now is        2.6 secs

     total energy              =    -112.34641621 Ry
     estimated scf accuracy    <       0.00000506 Ry

     total magnetization       =     8.00 Bohr mag/cell
     absolute magnetization    =     8.03 Bohr mag/cell

     iteration # 31     ecut=    30.00 Ry     beta= 0.50
     Davidson diagonalization with overlap
     ethr =  2.01E-08,  avg # of iterations =  2.0

     total cpu time spent up to now is        2.6 secs

     total energy              =    -112.34641574 Ry
     estimated scf accuracy    <       0.00001465 Ry

     total magnetization       =     8.00 Bohr mag/cell
     absolute magnetization    =     8.03 Bohr mag/cell

     iteration # 32     ecut=    30.00 Ry     beta= 0.50
     Davidson diagonalization with overlap
     ethr =  2.01E-08,  avg # of iterations =  1.0

     total cpu time spent up to now is        2.6 secs

     total energy              =    -112.34641609 Ry
     estimated scf accuracy    <       0.00000193 Ry

     total magnetization       =     8.00 Bohr mag/cell
     absolute magnetization    =     8.03 Bohr mag/cell

     iteration # 33     ecut=    30.00 Ry     beta= 0.50
     Davidson diagonalization with overlap
     ethr =  1.21E-08,  avg # of iterations =  1.5

     total cpu time spent up to now is        2.7 secs

     total energy              =    -112.34641700 Ry
     estimated scf accuracy    <       0.00000040 Ry

     total magnetization       =     8.00 Bohr mag/cell
     absolute magnetization    =     8.03 Bohr mag/cell

     iteration # 34     ecut=    30.00 Ry     beta= 0.50
     Davidson diagonalization with overlap
     ethr =  2.53E-09,  avg # of iterations =  1.0

     total cpu time spent up to now is        2.7 secs

     total energy              =    -112.34641719 Ry
     estimated scf accuracy    <       0.00000017 Ry

     total magnetization       =     8.00 Bohr mag/cell
     absolute magnetization    =     8.03 Bohr mag/cell

     iteration # 35     ecut=    30.00 Ry     beta= 0.50
     Davidson diagonalization with overlap
     ethr =  1.04E-09,  avg # of iterations =  1.5

     Magnetic moment per site  (integrated on atomic sphere of radius R)
     atom   1 (R=0.404)  charge=  6.1234  magn=  3.8762
     atom   2 (R=0.404)  charge=  6.1233  magn=  3.8763

     total cpu time spent up to now is        2.7 secs

     End of self-consistent calculation

 ------ SPIN UP ------------


          k = 0.0000 0.0000 0.0000 (   391 PWs)   bands (ev):

     3.4223   5.2090   6.5675   6.5727   6.6469   6.6522   6.9012   7.7036
     7.7037   8.0122   8.0123  10.2895

 ------ SPIN DOWN ----------


          k = 0.0000 0.0000 0.0000 (   391 PWs)   bands (ev):

     4.2393   7.1592   9.2701  10.7678  11.1138  11.1179  11.2307  11.2349
    13.0874  13.0878  13.5138  13.5140

     the Fermi energy is    10.9412 ev

!    total energy              =    -112.34641725 Ry
     estimated scf accuracy    <       0.00000008 Ry
     smearing contrib. (-TS)   =       0.00140516 Ry
     internal energy E=F+TS    =    -112.34782241 Ry

     The total energy is F=E-TS. E is the sum of the following terms:
     one-electron contribution =      10.34645221 Ry
     hartree contribution      =      13.11595215 Ry
     xc contribution           =     -52.69278899 Ry
     ewald contribution        =     -83.11743778 Ry

     total magnetization       =     8.00 Bohr mag/cell
     absolute magnetization    =     8.03 Bohr mag/cell

     convergence has been achieved in  35 iterations

     Forces acting on atoms (cartesian axes, Ry/au):

     atom    1 type  1   force =    -0.00000000   -0.00001105    0.00000000
     atom    2 type  1   force =     0.00000000    0.00001105    0.00000000
     The non-local contrib.  to forces
     atom    1 type  1   force =    -0.00000000   -0.00007255    0.00000000
     atom    2 type  1   force =     0.00000000    0.00006217    0.00000000
     The ionic contribution  to forces
     atom    1 type  1   force =     0.00000000    0.00006652   -0.00003001
     atom    2 type  1   force =     0.00000000   -0.00006652    0.00003001
     The local contribution  to forces
     atom    1 type  1   force =    -0.00000000   -0.00002152    0.00000000
     atom    2 type  1   force =    -0.00000000    0.00002826    0.00009674
     The core correction contribution to forces
     atom    1 type  1   force =    -0.00000000    0.00000694    0.00000001
     atom    2 type  1   force =    -0.00000000   -0.00000575    0.00001396
     The Hubbard contrib.    to forces
     atom    1 type  1   force =     0.00000000    0.00000000    0.00000000
     atom    2 type  1   force =     0.00000000    0.00000000    0.00000000
     The SCF correction term to forces
     atom    1 type  1   force =    -0.00000000    0.00000717    0.00000000
     atom    2 type  1   force =    -0.00000000   -0.00000950   -0.00000000

     Total force =     0.000016     Total SCF correction =     0.000012
     SCF correction compared to forces is large: reduce conv_thr to get better values


     Computing stress (Cartesian axis) and pressure

          total   stress  (Ry/bohr**3)                   (kbar)     P=     -151.81
  -0.00335627  -0.00000000   0.00000000         -493.72       -0.00        0.00
  -0.00000000  -0.00339831   0.00000000           -0.00     -499.91        0.00
   0.00000000   0.00000000   0.00365857            0.00        0.00      538.19

     Energy error            =      2.9E-01 Ry
     Gradient error          =      1.1E-05 Ry/Bohr
     Cell gradient error     =      5.4E+02 kbar

     number of scf cycles    =   2
     number of bfgs steps    =   1

     enthalpy           old  =    -112.0593177497 Ry
     enthalpy           new  =    -112.3464172504 Ry

     CASE: enthalpy          _new < enthalpy          _old

     new trust radius        =       0.5500302926 bohr
     new conv_thr            =       0.0000000010 Ry

     new unit-cell volume =    140.60888 a.u.^3 (    20.83609 Ang^3 )
     density =      8.90117 g/cm^3

CELL_PARAMETERS (angstrom)
   2.013244370  -0.000000000   0.000000000
  -1.006622185   1.739545578   0.000000000
   0.000000000   0.000000000   5.949546247

ATOMIC_POSITIONS (angstrom)
Fe            0.0000000000        0.0000092167        0.0000000000
Fe            0.0000000000        1.1596913116        2.9747710072



     Writing config-only to output data dir /home/gridsan/epan1/labutil/lab3_samples/problem1/Lab3/Fe_hcp_a_2.5_ecut_30_nk_1/pwscf.save/
     NEW-OLD atomic charge density approx. for the potential

     Check: negative core charge=   -0.000038

     negative rho (up, down):  0.000E+00 2.950E-01
     extrapolated charge   12.42532, renormalised to   16.00000
     Generating pointlists ...
     new r_m :   0.3316 (alat units)  1.5667 (a.u.) for type    1

     total cpu time spent up to now is        3.0 secs

     Self-consistent Calculation

     iteration #  1     ecut=    30.00 Ry     beta= 0.50
     Davidson diagonalization with overlap
     ethr =  1.00E-06,  avg # of iterations = 13.5

     total cpu time spent up to now is        3.0 secs

     total energy              =    -107.38616171 Ry
     estimated scf accuracy    <       6.91335052 Ry

     total magnetization       =     4.00 Bohr mag/cell
     absolute magnetization    =     4.26 Bohr mag/cell

     iteration #  2     ecut=    30.00 Ry     beta= 0.50
     Davidson diagonalization with overlap
     ethr =  1.00E-02,  avg # of iterations =  3.0

     total cpu time spent up to now is        3.1 secs

     total energy              =    -111.63902194 Ry
     estimated scf accuracy    <       1.54057129 Ry

     total magnetization       =     8.00 Bohr mag/cell
     absolute magnetization    =     8.05 Bohr mag/cell

     iteration #  3     ecut=    30.00 Ry     beta= 0.50
     Davidson diagonalization with overlap
     ethr =  9.63E-03,  avg # of iterations =  1.0

     total cpu time spent up to now is        3.1 secs

     total energy              =    -111.37149995 Ry
     estimated scf accuracy    <       0.47643576 Ry

     total magnetization       =     8.00 Bohr mag/cell
     absolute magnetization    =     8.04 Bohr mag/cell

     iteration #  4     ecut=    30.00 Ry     beta= 0.50
     Davidson diagonalization with overlap
     ethr =  2.98E-03,  avg # of iterations =  2.0

     total cpu time spent up to now is        3.1 secs

     total energy              =    -111.50960941 Ry
     estimated scf accuracy    <       0.36442961 Ry

     total magnetization       =     6.87 Bohr mag/cell
     absolute magnetization    =     6.90 Bohr mag/cell

     iteration #  5     ecut=    30.00 Ry     beta= 0.50
     Davidson diagonalization with overlap
     ethr =  2.28E-03,  avg # of iterations =  1.0

     total cpu time spent up to now is        3.2 secs

     total energy              =    -111.54115513 Ry
     estimated scf accuracy    <       0.07997417 Ry

     total magnetization       =     8.00 Bohr mag/cell
     absolute magnetization    =     8.02 Bohr mag/cell

     iteration #  6     ecut=    30.00 Ry     beta= 0.50
     Davidson diagonalization with overlap
     ethr =  5.00E-04,  avg # of iterations =  1.0

     total cpu time spent up to now is        3.2 secs

     total energy              =    -111.54062092 Ry
     estimated scf accuracy    <       0.15070298 Ry

     total magnetization       =     8.00 Bohr mag/cell
     absolute magnetization    =     8.02 Bohr mag/cell

     iteration #  7     ecut=    30.00 Ry     beta= 0.50
     Davidson diagonalization with overlap
     ethr =  5.00E-04,  avg # of iterations =  1.0

     total cpu time spent up to now is        3.2 secs

     total energy              =    -111.53796623 Ry
     estimated scf accuracy    <       0.07715198 Ry

     total magnetization       =     8.00 Bohr mag/cell
     absolute magnetization    =     8.02 Bohr mag/cell

     iteration #  8     ecut=    30.00 Ry     beta= 0.50
     Davidson diagonalization with overlap
     ethr =  4.82E-04,  avg # of iterations =  1.0

     total cpu time spent up to now is        3.2 secs

     total energy              =    -111.54131831 Ry
     estimated scf accuracy    <       0.07101979 Ry

     total magnetization       =     8.00 Bohr mag/cell
     absolute magnetization    =     8.02 Bohr mag/cell

     iteration #  9     ecut=    30.00 Ry     beta= 0.50
     Davidson diagonalization with overlap
     ethr =  4.44E-04,  avg # of iterations =  1.0

     total cpu time spent up to now is        3.3 secs

     total energy              =    -111.52586047 Ry
     estimated scf accuracy    <       0.06160061 Ry

     total magnetization       =     8.00 Bohr mag/cell
     absolute magnetization    =     8.02 Bohr mag/cell

     iteration # 10     ecut=    30.00 Ry     beta= 0.50
     Davidson diagonalization with overlap
     ethr =  3.85E-04,  avg # of iterations =  1.5

     total cpu time spent up to now is        3.3 secs

     total energy              =    -111.52793058 Ry
     estimated scf accuracy    <       0.00734161 Ry

     total magnetization       =     8.00 Bohr mag/cell
     absolute magnetization    =     8.04 Bohr mag/cell

     iteration # 11     ecut=    30.00 Ry     beta= 0.50
     Davidson diagonalization with overlap
     ethr =  4.59E-05,  avg # of iterations =  1.5

     total cpu time spent up to now is        3.3 secs

     total energy              =    -111.52797629 Ry
     estimated scf accuracy    <       0.00395294 Ry

     total magnetization       =     8.00 Bohr mag/cell
     absolute magnetization    =     8.04 Bohr mag/cell

     iteration # 12     ecut=    30.00 Ry     beta= 0.50
     Davidson diagonalization with overlap
     ethr =  2.47E-05,  avg # of iterations =  1.0

     total cpu time spent up to now is        3.4 secs

     total energy              =    -111.52746154 Ry
     estimated scf accuracy    <       0.00303403 Ry

     total magnetization       =     8.00 Bohr mag/cell
     absolute magnetization    =     8.04 Bohr mag/cell

     iteration # 13     ecut=    30.00 Ry     beta= 0.50
     Davidson diagonalization with overlap
     ethr =  1.90E-05,  avg # of iterations =  4.5

     total cpu time spent up to now is        3.4 secs

     total energy              =    -111.94348037 Ry
     estimated scf accuracy    <       0.31116257 Ry

     total magnetization       =     8.00 Bohr mag/cell
     absolute magnetization    =     9.12 Bohr mag/cell

     iteration # 14     ecut=    30.00 Ry     beta= 0.50
     Davidson diagonalization with overlap
     ethr =  1.90E-05,  avg # of iterations =  2.0

     total cpu time spent up to now is        3.4 secs

     total energy              =    -111.93077828 Ry
     estimated scf accuracy    <       0.35131124 Ry

     total magnetization       =     8.00 Bohr mag/cell
     absolute magnetization    =     9.12 Bohr mag/cell

     iteration # 15     ecut=    30.00 Ry     beta= 0.50
     Davidson diagonalization with overlap
     ethr =  1.90E-05,  avg # of iterations =  1.0

     total cpu time spent up to now is        3.5 secs

     total energy              =    -111.93011843 Ry
     estimated scf accuracy    <       0.32530799 Ry

     total magnetization       =     8.00 Bohr mag/cell
     absolute magnetization    =     9.12 Bohr mag/cell

     iteration # 16     ecut=    30.00 Ry     beta= 0.50
     Davidson diagonalization with overlap
     ethr =  1.90E-05,  avg # of iterations =  1.0

     total cpu time spent up to now is        3.5 secs

     total energy              =    -111.93273243 Ry
     estimated scf accuracy    <       0.32236867 Ry

     total magnetization       =     8.00 Bohr mag/cell
     absolute magnetization    =     9.12 Bohr mag/cell

     iteration # 17     ecut=    30.00 Ry     beta= 0.50
     Davidson diagonalization with overlap
     ethr =  1.90E-05,  avg # of iterations =  1.0

     total cpu time spent up to now is        3.5 secs

     total energy              =    -111.93293032 Ry
     estimated scf accuracy    <       0.32526156 Ry

     total magnetization       =     8.00 Bohr mag/cell
     absolute magnetization    =     9.12 Bohr mag/cell

     iteration # 18     ecut=    30.00 Ry     beta= 0.50
     Davidson diagonalization with overlap
     ethr =  1.90E-05,  avg # of iterations =  1.0

     total cpu time spent up to now is        3.5 secs

     total energy              =    -111.93221558 Ry
     estimated scf accuracy    <       0.32535344 Ry

     total magnetization       =     8.00 Bohr mag/cell
     absolute magnetization    =     9.12 Bohr mag/cell

     iteration # 19     ecut=    30.00 Ry     beta= 0.50
     Davidson diagonalization with overlap
     ethr =  1.90E-05,  avg # of iterations =  1.0

     total cpu time spent up to now is        3.6 secs

     total energy              =    -111.92948739 Ry
     estimated scf accuracy    <       0.32322674 Ry

     total magnetization       =     8.00 Bohr mag/cell
     absolute magnetization    =     9.12 Bohr mag/cell

     iteration # 20     ecut=    30.00 Ry     beta= 0.50
     Davidson diagonalization with overlap
     ethr =  1.90E-05,  avg # of iterations =  1.0

     total cpu time spent up to now is        3.6 secs

     total energy              =    -111.93824683 Ry
     estimated scf accuracy    <       0.31805996 Ry

     total magnetization       =     8.00 Bohr mag/cell
     absolute magnetization    =     9.12 Bohr mag/cell

     iteration # 21     ecut=    30.00 Ry     beta= 0.50
     Davidson diagonalization with overlap
     ethr =  1.90E-05,  avg # of iterations =  1.0

     total cpu time spent up to now is        3.6 secs

     total energy              =    -111.74795031 Ry
     estimated scf accuracy    <       0.33559479 Ry

     total magnetization       =     8.00 Bohr mag/cell
     absolute magnetization    =     9.12 Bohr mag/cell

     iteration # 22     ecut=    30.00 Ry     beta= 0.50
     Davidson diagonalization with overlap
     ethr =  1.90E-05,  avg # of iterations =  6.5

     total cpu time spent up to now is        3.7 secs

     total energy              =    -111.71803413 Ry
     estimated scf accuracy    <       0.54874433 Ry

     total magnetization       =     6.47 Bohr mag/cell
     absolute magnetization    =     7.94 Bohr mag/cell

     iteration # 23     ecut=    30.00 Ry     beta= 0.50
     Davidson diagonalization with overlap
     ethr =  1.90E-05,  avg # of iterations =  3.0

     negative rho (up, down):  0.000E+00 1.051E-03

     total cpu time spent up to now is        3.7 secs

     total energy              =    -112.07657750 Ry
     estimated scf accuracy    <       8.66021559 Ry

     total magnetization       =     4.00 Bohr mag/cell
     absolute magnetization    =     5.60 Bohr mag/cell

     iteration # 24     ecut=    30.00 Ry     beta= 0.50
     Davidson diagonalization with overlap
     ethr =  1.90E-05,  avg # of iterations =  2.5

     negative rho (up, down):  1.262E-04 0.000E+00

     total cpu time spent up to now is        3.7 secs

     total energy              =    -111.97882516 Ry
     estimated scf accuracy    <       9.33081619 Ry

     total magnetization       =     4.00 Bohr mag/cell
     absolute magnetization    =     5.56 Bohr mag/cell

     iteration # 25     ecut=    30.00 Ry     beta= 0.50
     Davidson diagonalization with overlap
     ethr =  1.90E-05,  avg # of iterations =  2.0

     negative rho (up, down):  3.555E-04 0.000E+00

     total cpu time spent up to now is        3.8 secs

     total energy              =    -111.66542934 Ry
     estimated scf accuracy    <       8.44172692 Ry

     total magnetization       =     4.00 Bohr mag/cell
     absolute magnetization    =     5.63 Bohr mag/cell

     iteration # 26     ecut=    30.00 Ry     beta= 0.50
     Davidson diagonalization with overlap
     ethr =  1.90E-05,  avg # of iterations =  3.0

     total cpu time spent up to now is        3.8 secs

     total energy              =    -111.80635497 Ry
     estimated scf accuracy    <       0.09401408 Ry

     total magnetization       =     8.07 Bohr mag/cell
     absolute magnetization    =     9.21 Bohr mag/cell

     iteration # 27     ecut=    30.00 Ry     beta= 0.50
     Davidson diagonalization with overlap
     ethr =  1.90E-05,  avg # of iterations =  2.0

     total cpu time spent up to now is        3.8 secs

     total energy              =    -111.81353746 Ry
     estimated scf accuracy    <       0.06044149 Ry

     total magnetization       =     8.01 Bohr mag/cell
     absolute magnetization    =     9.18 Bohr mag/cell

     iteration # 28     ecut=    30.00 Ry     beta= 0.50
     Davidson diagonalization with overlap
     ethr =  1.90E-05,  avg # of iterations =  2.0

     total cpu time spent up to now is        3.9 secs

     total energy              =    -111.81636383 Ry
     estimated scf accuracy    <       0.12028657 Ry

     total magnetization       =     7.29 Bohr mag/cell
     absolute magnetization    =     8.60 Bohr mag/cell

     iteration # 29     ecut=    30.00 Ry     beta= 0.50
     Davidson diagonalization with overlap
     ethr =  1.90E-05,  avg # of iterations =  1.0

     total cpu time spent up to now is        3.9 secs

     total energy              =    -111.81737083 Ry
     estimated scf accuracy    <       0.06058896 Ry

     total magnetization       =     7.62 Bohr mag/cell
     absolute magnetization    =     8.87 Bohr mag/cell

     iteration # 30     ecut=    30.00 Ry     beta= 0.50
     Davidson diagonalization with overlap
     ethr =  1.90E-05,  avg # of iterations =  1.0

     total cpu time spent up to now is        3.9 secs

     total energy              =    -111.81416972 Ry
     estimated scf accuracy    <       0.07812103 Ry

     total magnetization       =     7.49 Bohr mag/cell
     absolute magnetization    =     8.76 Bohr mag/cell

     iteration # 31     ecut=    30.00 Ry     beta= 0.50
     Davidson diagonalization with overlap
     ethr =  1.90E-05,  avg # of iterations =  1.0

     total cpu time spent up to now is        4.0 secs

     total energy              =    -111.80443744 Ry
     estimated scf accuracy    <       0.07927254 Ry

     total magnetization       =     7.45 Bohr mag/cell
     absolute magnetization    =     8.73 Bohr mag/cell

     iteration # 32     ecut=    30.00 Ry     beta= 0.50
     Davidson diagonalization with overlap
     ethr =  1.90E-05,  avg # of iterations =  2.0

     total cpu time spent up to now is        4.0 secs

     total energy              =    -111.80883304 Ry
     estimated scf accuracy    <       0.16434556 Ry

     total magnetization       =     7.17 Bohr mag/cell
     absolute magnetization    =     8.52 Bohr mag/cell

     iteration # 33     ecut=    30.00 Ry     beta= 0.50
     Davidson diagonalization with overlap
     ethr =  1.90E-05,  avg # of iterations =  1.0

     total cpu time spent up to now is        4.0 secs

     total energy              =    -111.81102111 Ry
     estimated scf accuracy    <       0.15199167 Ry

     total magnetization       =     7.15 Bohr mag/cell
     absolute magnetization    =     8.50 Bohr mag/cell

     iteration # 34     ecut=    30.00 Ry     beta= 0.50
     Davidson diagonalization with overlap
     ethr =  1.90E-05,  avg # of iterations =  1.0

     total cpu time spent up to now is        4.1 secs

     total energy              =    -111.81163244 Ry
     estimated scf accuracy    <       0.33491553 Ry

     total magnetization       =     6.85 Bohr mag/cell
     absolute magnetization    =     8.27 Bohr mag/cell

     iteration # 35     ecut=    30.00 Ry     beta= 0.50
     Davidson diagonalization with overlap
     ethr =  1.90E-05,  avg # of iterations =  1.5

     total cpu time spent up to now is        4.1 secs

     total energy              =    -111.81665082 Ry
     estimated scf accuracy    <       0.22538994 Ry

     total magnetization       =     7.08 Bohr mag/cell
     absolute magnetization    =     8.45 Bohr mag/cell

     iteration # 36     ecut=    30.00 Ry     beta= 0.50
     Davidson diagonalization with overlap
     ethr =  1.90E-05,  avg # of iterations =  1.0

     total cpu time spent up to now is        4.1 secs

     total energy              =    -111.79779917 Ry
     estimated scf accuracy    <       0.26844326 Ry

     total magnetization       =     6.92 Bohr mag/cell
     absolute magnetization    =     8.33 Bohr mag/cell

     iteration # 37     ecut=    30.00 Ry     beta= 0.50
     Davidson diagonalization with overlap
     ethr =  1.90E-05,  avg # of iterations =  6.5

     total cpu time spent up to now is        4.1 secs

     total energy              =    -111.91775418 Ry
     estimated scf accuracy    <       0.12995479 Ry

     total magnetization       =     8.04 Bohr mag/cell
     absolute magnetization    =     8.28 Bohr mag/cell

     iteration # 38     ecut=    30.00 Ry     beta= 0.50
     Davidson diagonalization with overlap
     ethr =  1.90E-05,  avg # of iterations =  3.0

     total cpu time spent up to now is        4.2 secs

     total energy              =    -111.91551239 Ry
     estimated scf accuracy    <       0.13558619 Ry

     total magnetization       =     8.07 Bohr mag/cell
     absolute magnetization    =     8.31 Bohr mag/cell

     iteration # 39     ecut=    30.00 Ry     beta= 0.50
     Davidson diagonalization with overlap
     ethr =  1.90E-05,  avg # of iterations =  3.0

     total cpu time spent up to now is        4.2 secs

     total energy              =    -111.91466609 Ry
     estimated scf accuracy    <       0.13746218 Ry

     total magnetization       =     8.02 Bohr mag/cell
     absolute magnetization    =     8.26 Bohr mag/cell

     iteration # 40     ecut=    30.00 Ry     beta= 0.50
     Davidson diagonalization with overlap
     ethr =  1.90E-05,  avg # of iterations =  1.0

     negative rho (up, down):  0.000E+00 1.741E-05

     total cpu time spent up to now is        4.2 secs

     total energy              =    -111.90164871 Ry
     estimated scf accuracy    <       0.13793933 Ry

     total magnetization       =     8.01 Bohr mag/cell
     absolute magnetization    =     8.25 Bohr mag/cell

     iteration # 41     ecut=    30.00 Ry     beta= 0.50
     Davidson diagonalization with overlap
     ethr =  1.90E-05,  avg # of iterations =  3.0

     negative rho (up, down):  0.000E+00 1.517E-03

     total cpu time spent up to now is        4.3 secs

     total energy              =    -111.89531152 Ry
     estimated scf accuracy    <       0.11907955 Ry

     total magnetization       =     8.03 Bohr mag/cell
     absolute magnetization    =     8.28 Bohr mag/cell

     iteration # 42     ecut=    30.00 Ry     beta= 0.50
     Davidson diagonalization with overlap
     ethr =  1.90E-05,  avg # of iterations =  2.0

     negative rho (up, down):  0.000E+00 2.337E-02

     total cpu time spent up to now is        4.3 secs

     WARNING: integrated charge=    15.99234505, expected=    16.00000000

     total energy              =    -111.88083175 Ry
     estimated scf accuracy    <       0.12308069 Ry

     total magnetization       =     8.08 Bohr mag/cell
     absolute magnetization    =     8.31 Bohr mag/cell

     iteration # 43     ecut=    30.00 Ry     beta= 0.50
     Davidson diagonalization with overlap
     ethr =  1.90E-05,  avg # of iterations =  4.0

     negative rho (up, down):  0.000E+00 1.736E-02

     total cpu time spent up to now is        4.3 secs

     WARNING: integrated charge=    15.99305374, expected=    16.00000000

     total energy              =    -111.92690429 Ry
     estimated scf accuracy    <       2.07375119 Ry

     total magnetization       =     5.64 Bohr mag/cell
     absolute magnetization    =     7.20 Bohr mag/cell

     iteration # 44     ecut=    30.00 Ry     beta= 0.50
     Davidson diagonalization with overlap
     ethr =  1.90E-05,  avg # of iterations =  2.0

     negative rho (up, down):  0.000E+00 2.320E-05

     total cpu time spent up to now is        4.4 secs

     WARNING: integrated charge=    15.97601083, expected=    16.00000000

 %%%%%%%%%%%%%%%%%%%%%%%%%%%%%%%%%%%%%%%%%%%%%%%%%%%%%%%%%%%%%%%%%%%%%%%%%%%%%%
     Error in routine electrons (1):
     charge is wrong
 %%%%%%%%%%%%%%%%%%%%%%%%%%%%%%%%%%%%%%%%%%%%%%%%%%%%%%%%%%%%%%%%%%%%%%%%%%%%%%

     stopping ...
