
     Program PWSCF v.7.2 starts on  1Nov2023 at 17: 2:42 

     This program is part of the open-source Quantum ESPRESSO suite
     for quantum simulation of materials; please cite
         "P. Giannozzi et al., J. Phys.:Condens. Matter 21 395502 (2009);
         "P. Giannozzi et al., J. Phys.:Condens. Matter 29 465901 (2017);
         "P. Giannozzi et al., J. Chem. Phys. 152 154105 (2020);
          URL http://www.quantum-espresso.org", 
     in publications or presentations arising from this work. More details at
     http://www.quantum-espresso.org/quote

     Parallel version (MPI), running on     8 processors

     MPI processes distributed on     8 nodes
     186320 MiB available memory on the printing compute node when the environment starts

     Waiting for input...
     Reading input from standard input

     Current dimensions of program PWSCF are:
     Max number of different atomic species (ntypx) = 10
     Max number of k-points (npk) =  40000
     Max angular momentum in pseudopotentials (lmaxx) =  4

     File /home/gridsan/epan1/labutil/lab3_samples/problem1/Lab3/Fe_hcp_a_2.5_ecut_30_nk_1/pwscf.update deleted, as requested

     File /home/gridsan/epan1/labutil/lab3_samples/problem1/Lab3/Fe_hcp_a_2.5_ecut_30_nk_1/pwscf.bfgs deleted, as requested
     file Fe.pbe-nd-rrkjus.UPF: wavefunction(s)  4S renormalized
     Message from routine find_sym:
     Not a group! Trying with lower acceptance parameter...
     Message from routine find_sym:
     Symmetry operations form a group
     Message from routine setup:
     using ibrav=0 with symmetry is DISCOURAGED, use correct ibrav instead

     R & G space division:  proc/nbgrp/npool/nimage =       8
     Subspace diagonalization in iterative solution of the eigenvalue problem:
     a serial algorithm will be used


     Parallelization info
     --------------------
     sticks:   dense  smooth     PW     G-vecs:    dense   smooth      PW
     Min          45      23      5                 1167      417      48
     Max          46      24      6                 1174      422      50
     Sum         367     187     43                 9369     3357     391

     Using Slab Decomposition



     bravais-lattice index     =            0
     lattice parameter (alat)  =       4.7243  a.u.
     unit-cell volume          =     149.1185 (a.u.)^3
     number of atoms/cell      =            2
     number of atomic types    =            1
     number of electrons       =        16.00
     number of Kohn-Sham states=           12
     kinetic-energy cutoff     =      30.0000  Ry
     charge density cutoff     =     240.0000  Ry
     scf convergence threshold =      1.0E-07
     mixing beta               =       0.5000
     number of iterations used =            8  plain     mixing
     energy convergence thresh.=      1.0E-04
     force convergence thresh. =      1.0E-03
     press convergence thresh. =      5.0E-01
     Exchange-correlation=  SLA  PW   PBE  PBE
                           (   1   4   3   4   0   0   0)
     nstep                     =           50


     celldm(1)=   4.724315  celldm(2)=   0.000000  celldm(3)=   0.000000
     celldm(4)=   0.000000  celldm(5)=   0.000000  celldm(6)=   0.000000

     crystal axes: (cart. coord. in units of alat)
               a(1) = (   1.000000   0.000000   0.000000 )  
               a(2) = (  -0.500000   0.866025   0.000000 )  
               a(3) = (   0.000000   0.000000   1.632993 )  

     reciprocal axes: (cart. coord. in units 2 pi/alat)
               b(1) = (  1.000000  0.577350 -0.000000 )  
               b(2) = (  0.000000  1.154701  0.000000 )  
               b(3) = (  0.000000 -0.000000  0.612372 )  


     PseudoPot. # 1 for Fe read from file:
     /home/gridsan/epan1/labutil/lab3_samples/pseudopotentials/Fe.pbe-nd-rrkjus.UPF
     MD5 check sum: 398036227a04b607635f6f5e8dfd8242
     Pseudo is Ultrasoft + core correction, Zval =  8.0
     Generated by new atomic code, or converted to UPF format
     Using radial grid of  957 points,  6 beta functions with: 
                l(1) =   0
                l(2) =   0
                l(3) =   1
                l(4) =   1
                l(5) =   2
                l(6) =   2
     Q(r) pseudized with 0 coefficients 


     atomic species   valence    mass     pseudopotential
        Fe             8.00    55.84500     Fe( 1.00)

     Starting magnetic structure 
     atomic species   magnetization
        Fe           0.700

      4 Sym. Ops. (no inversion) found



   Cartesian axes

     site n.     atom                  positions (alat units)
         1           Fe  tau(   1) = (   0.0000000   0.0000000   0.0000000  )
         2           Fe  tau(   2) = (  -0.0000000   0.5773520   0.8164960  )

     number of k points=     1  Methfessel-Paxton smearing, width (Ry)=  0.0200
                       cart. coord. in units 2pi/alat
        k(    1) = (   0.0000000   0.0000000   0.0000000), wk =   1.0000000

     Dense  grid:     9369 G-vectors     FFT dimensions: (  24,  24,  40)

     Smooth grid:     3357 G-vectors     FFT dimensions: (  18,  18,  27)

     Estimated max dynamical RAM per process >       7.31 MB

     Estimated total dynamical RAM >      58.50 MB
     Generating pointlists ...
     new r_m :   0.4125 (alat units)  1.9488 (a.u.) for type    1

     Initial potential from superposition of free atoms

     starting charge      15.9987, renormalised to      16.0000
     Starting wfcs are   12 randomized atomic wfcs

     total cpu time spent up to now is        2.4 secs

     Self-consistent Calculation

     iteration #  1     ecut=    30.00 Ry     beta= 0.50
     Davidson diagonalization with overlap
     ethr =  1.00E-02,  avg # of iterations =  2.0

     total cpu time spent up to now is        2.8 secs

     total energy              =    -111.78624849 Ry
     estimated scf accuracy    <       0.33071593 Ry

     total magnetization       =     6.00 Bohr mag/cell
     absolute magnetization    =     6.00 Bohr mag/cell

     iteration #  2     ecut=    30.00 Ry     beta= 0.50
     Davidson diagonalization with overlap
     ethr =  2.07E-03,  avg # of iterations =  1.0

     total cpu time spent up to now is        3.3 secs

     total energy              =    -111.84221384 Ry
     estimated scf accuracy    <       0.08174919 Ry

     total magnetization       =     6.00 Bohr mag/cell
     absolute magnetization    =     6.01 Bohr mag/cell

     iteration #  3     ecut=    30.00 Ry     beta= 0.50
     Davidson diagonalization with overlap
     ethr =  5.11E-04,  avg # of iterations =  7.0

     total cpu time spent up to now is        3.9 secs

     total energy              =    -112.17554066 Ry
     estimated scf accuracy    <       0.65413651 Ry

     total magnetization       =     8.17 Bohr mag/cell
     absolute magnetization    =     8.18 Bohr mag/cell

     iteration #  4     ecut=    30.00 Ry     beta= 0.50
     Davidson diagonalization with overlap
     ethr =  5.11E-04,  avg # of iterations =  1.0
     Minimization algorithm failed to find Fermi energy: reverting to bisection
     Possible cause: smearing is larger than the electronic band-gap.

     total cpu time spent up to now is        4.5 secs

     total energy              =    -112.05920566 Ry
     estimated scf accuracy    <       0.50929104 Ry

     total magnetization       =     8.07 Bohr mag/cell
     absolute magnetization    =     8.09 Bohr mag/cell

     iteration #  5     ecut=    30.00 Ry     beta= 0.50
     Davidson diagonalization with overlap
     ethr =  5.11E-04,  avg # of iterations =  3.0

     total cpu time spent up to now is        5.2 secs

     total energy              =    -112.03859165 Ry
     estimated scf accuracy    <       0.22178718 Ry

     total magnetization       =     8.00 Bohr mag/cell
     absolute magnetization    =     8.02 Bohr mag/cell

     iteration #  6     ecut=    30.00 Ry     beta= 0.50
     Davidson diagonalization with overlap
     ethr =  5.11E-04,  avg # of iterations =  1.0

     total cpu time spent up to now is        5.3 secs

     total energy              =    -112.03623015 Ry
     estimated scf accuracy    <       0.03972034 Ry

     total magnetization       =     8.00 Bohr mag/cell
     absolute magnetization    =     8.00 Bohr mag/cell

     iteration #  7     ecut=    30.00 Ry     beta= 0.50
     Davidson diagonalization with overlap
     ethr =  2.48E-04,  avg # of iterations =  2.5

     negative rho (up, down):  0.000E+00 3.057E-05

     total cpu time spent up to now is        5.4 secs

     total energy              =    -112.11296930 Ry
     estimated scf accuracy    <       0.29045597 Ry

     total magnetization       =     7.53 Bohr mag/cell
     absolute magnetization    =     7.54 Bohr mag/cell

     iteration #  8     ecut=    30.00 Ry     beta= 0.50
     Davidson diagonalization with overlap
     ethr =  2.48E-04,  avg # of iterations =  2.0

     total cpu time spent up to now is        5.6 secs

     total energy              =    -112.08278111 Ry
     estimated scf accuracy    <       2.07489585 Ry

     total magnetization       =     5.93 Bohr mag/cell
     absolute magnetization    =     6.06 Bohr mag/cell

     iteration #  9     ecut=    30.00 Ry     beta= 0.50
     Davidson diagonalization with overlap
     ethr =  2.48E-04,  avg # of iterations =  1.5

     total cpu time spent up to now is        5.9 secs

     total energy              =    -112.08567530 Ry
     estimated scf accuracy    <       0.54164618 Ry

     total magnetization       =     7.77 Bohr mag/cell
     absolute magnetization    =     7.77 Bohr mag/cell

     iteration # 10     ecut=    30.00 Ry     beta= 0.50
     Davidson diagonalization with overlap
     ethr =  2.48E-04,  avg # of iterations =  2.0

     total cpu time spent up to now is        6.3 secs

     total energy              =    -112.08665493 Ry
     estimated scf accuracy    <       0.41205659 Ry

     total magnetization       =     8.00 Bohr mag/cell
     absolute magnetization    =     8.01 Bohr mag/cell

     iteration # 11     ecut=    30.00 Ry     beta= 0.50
     Davidson diagonalization with overlap
     ethr =  2.48E-04,  avg # of iterations =  1.0

     total cpu time spent up to now is        6.7 secs

     total energy              =    -112.05541720 Ry
     estimated scf accuracy    <       0.37204306 Ry

     total magnetization       =     8.00 Bohr mag/cell
     absolute magnetization    =     8.01 Bohr mag/cell

     iteration # 12     ecut=    30.00 Ry     beta= 0.50
     Davidson diagonalization with overlap
     ethr =  2.48E-04,  avg # of iterations =  1.5

     total cpu time spent up to now is        7.1 secs

     total energy              =    -112.06206513 Ry
     estimated scf accuracy    <       0.04953693 Ry

     total magnetization       =     8.00 Bohr mag/cell
     absolute magnetization    =     8.01 Bohr mag/cell

     iteration # 13     ecut=    30.00 Ry     beta= 0.50
     Davidson diagonalization with overlap
     ethr =  2.48E-04,  avg # of iterations =  1.0

     total cpu time spent up to now is        7.3 secs

     total energy              =    -112.06782226 Ry
     estimated scf accuracy    <       0.21389673 Ry

     total magnetization       =     8.00 Bohr mag/cell
     absolute magnetization    =     8.01 Bohr mag/cell

     iteration # 14     ecut=    30.00 Ry     beta= 0.50
     Davidson diagonalization with overlap
     ethr =  2.48E-04,  avg # of iterations =  1.0

     total cpu time spent up to now is        7.9 secs

     total energy              =    -112.06013786 Ry
     estimated scf accuracy    <       0.22852731 Ry

     total magnetization       =     8.00 Bohr mag/cell
     absolute magnetization    =     8.01 Bohr mag/cell

     iteration # 15     ecut=    30.00 Ry     beta= 0.50
     Davidson diagonalization with overlap
     ethr =  2.48E-04,  avg # of iterations =  1.0

     total cpu time spent up to now is        8.2 secs

     total energy              =    -112.06336767 Ry
     estimated scf accuracy    <       0.17893895 Ry

     total magnetization       =     8.00 Bohr mag/cell
     absolute magnetization    =     8.01 Bohr mag/cell

     iteration # 16     ecut=    30.00 Ry     beta= 0.50
     Davidson diagonalization with overlap
     ethr =  2.48E-04,  avg # of iterations =  1.0

     total cpu time spent up to now is        8.7 secs

     total energy              =    -112.05208347 Ry
     estimated scf accuracy    <       0.13739857 Ry

     total magnetization       =     8.00 Bohr mag/cell
     absolute magnetization    =     8.01 Bohr mag/cell

     iteration # 17     ecut=    30.00 Ry     beta= 0.50
     Davidson diagonalization with overlap
     ethr =  2.48E-04,  avg # of iterations =  1.0

     total cpu time spent up to now is        9.2 secs

     total energy              =    -112.05298559 Ry
     estimated scf accuracy    <       0.07371475 Ry

     total magnetization       =     8.00 Bohr mag/cell
     absolute magnetization    =     8.01 Bohr mag/cell

     iteration # 18     ecut=    30.00 Ry     beta= 0.50
     Davidson diagonalization with overlap
     ethr =  2.48E-04,  avg # of iterations =  1.0

     total cpu time spent up to now is        9.9 secs

     total energy              =    -112.05848955 Ry
     estimated scf accuracy    <       0.11279675 Ry

     total magnetization       =     8.00 Bohr mag/cell
     absolute magnetization    =     8.01 Bohr mag/cell

     iteration # 19     ecut=    30.00 Ry     beta= 0.50
     Davidson diagonalization with overlap
     ethr =  2.48E-04,  avg # of iterations =  1.0

     total cpu time spent up to now is       10.3 secs

     total energy              =    -112.05922511 Ry
     estimated scf accuracy    <       0.01824115 Ry

     total magnetization       =     8.00 Bohr mag/cell
     absolute magnetization    =     8.01 Bohr mag/cell

     iteration # 20     ecut=    30.00 Ry     beta= 0.50
     Davidson diagonalization with overlap
     ethr =  1.14E-04,  avg # of iterations =  1.0

     total cpu time spent up to now is       10.7 secs

     total energy              =    -112.05932162 Ry
     estimated scf accuracy    <       0.00434030 Ry

     total magnetization       =     8.00 Bohr mag/cell
     absolute magnetization    =     8.01 Bohr mag/cell

     iteration # 21     ecut=    30.00 Ry     beta= 0.50
     Davidson diagonalization with overlap
     ethr =  2.71E-05,  avg # of iterations =  1.0

     total cpu time spent up to now is       11.3 secs

     total energy              =    -112.05930102 Ry
     estimated scf accuracy    <       0.00205290 Ry

     total magnetization       =     8.00 Bohr mag/cell
     absolute magnetization    =     8.01 Bohr mag/cell

     iteration # 22     ecut=    30.00 Ry     beta= 0.50
     Davidson diagonalization with overlap
     ethr =  1.28E-05,  avg # of iterations =  1.0

     total cpu time spent up to now is       11.6 secs

     total energy              =    -112.05933313 Ry
     estimated scf accuracy    <       0.00042315 Ry

     total magnetization       =     8.00 Bohr mag/cell
     absolute magnetization    =     8.01 Bohr mag/cell

     iteration # 23     ecut=    30.00 Ry     beta= 0.50
     Davidson diagonalization with overlap
     ethr =  2.64E-06,  avg # of iterations =  1.0

     total cpu time spent up to now is       12.2 secs

     total energy              =    -112.05926327 Ry
     estimated scf accuracy    <       0.00096251 Ry

     total magnetization       =     8.00 Bohr mag/cell
     absolute magnetization    =     8.01 Bohr mag/cell

     iteration # 24     ecut=    30.00 Ry     beta= 0.50
     Davidson diagonalization with overlap
     ethr =  2.64E-06,  avg # of iterations =  1.0

     total cpu time spent up to now is       13.7 secs

     total energy              =    -112.05932626 Ry
     estimated scf accuracy    <       0.00070029 Ry

     total magnetization       =     8.00 Bohr mag/cell
     absolute magnetization    =     8.01 Bohr mag/cell

     iteration # 25     ecut=    30.00 Ry     beta= 0.50
     Davidson diagonalization with overlap
     ethr =  2.64E-06,  avg # of iterations =  1.0

     total cpu time spent up to now is       14.7 secs

     total energy              =    -112.05929424 Ry
     estimated scf accuracy    <       0.00115607 Ry

     total magnetization       =     8.00 Bohr mag/cell
     absolute magnetization    =     8.01 Bohr mag/cell

     iteration # 26     ecut=    30.00 Ry     beta= 0.50
     Davidson diagonalization with overlap
     ethr =  2.64E-06,  avg # of iterations =  1.0

     total cpu time spent up to now is       15.5 secs

     total energy              =    -112.05931438 Ry
     estimated scf accuracy    <       0.00002082 Ry

     total magnetization       =     8.00 Bohr mag/cell
     absolute magnetization    =     8.01 Bohr mag/cell

     iteration # 27     ecut=    30.00 Ry     beta= 0.50
     Davidson diagonalization with overlap
     ethr =  1.30E-07,  avg # of iterations =  1.5

     total cpu time spent up to now is       16.3 secs

     total energy              =    -112.05931669 Ry
     estimated scf accuracy    <       0.00000154 Ry

     total magnetization       =     8.00 Bohr mag/cell
     absolute magnetization    =     8.01 Bohr mag/cell

     iteration # 28     ecut=    30.00 Ry     beta= 0.50
     Davidson diagonalization with overlap
     ethr =  9.66E-09,  avg # of iterations =  4.5

     total cpu time spent up to now is       17.3 secs

     total energy              =    -112.05931756 Ry
     estimated scf accuracy    <       0.00000273 Ry

     total magnetization       =     8.00 Bohr mag/cell
     absolute magnetization    =     8.01 Bohr mag/cell

     iteration # 29     ecut=    30.00 Ry     beta= 0.50
     Davidson diagonalization with overlap
     ethr =  9.66E-09,  avg # of iterations =  1.0

     total cpu time spent up to now is       17.8 secs

     total energy              =    -112.05931768 Ry
     estimated scf accuracy    <       0.00000079 Ry

     total magnetization       =     8.00 Bohr mag/cell
     absolute magnetization    =     8.01 Bohr mag/cell

     iteration # 30     ecut=    30.00 Ry     beta= 0.50
     Davidson diagonalization with overlap
     ethr =  4.97E-09,  avg # of iterations =  1.5

     total cpu time spent up to now is       18.0 secs

     total energy              =    -112.05931773 Ry
     estimated scf accuracy    <       0.00000028 Ry

     total magnetization       =     8.00 Bohr mag/cell
     absolute magnetization    =     8.01 Bohr mag/cell

     iteration # 31     ecut=    30.00 Ry     beta= 0.50
     Davidson diagonalization with overlap
     ethr =  1.74E-09,  avg # of iterations =  2.5

     total cpu time spent up to now is       18.7 secs

     total energy              =    -112.05931779 Ry
     estimated scf accuracy    <       0.00000019 Ry

     total magnetization       =     8.00 Bohr mag/cell
     absolute magnetization    =     8.01 Bohr mag/cell

     iteration # 32     ecut=    30.00 Ry     beta= 0.50
     Davidson diagonalization with overlap
     ethr =  1.20E-09,  avg # of iterations =  1.0

     total cpu time spent up to now is       19.1 secs

     total energy              =    -112.05931777 Ry
     estimated scf accuracy    <       0.00000016 Ry

     total magnetization       =     8.00 Bohr mag/cell
     absolute magnetization    =     8.01 Bohr mag/cell

     iteration # 33     ecut=    30.00 Ry     beta= 0.50
     Davidson diagonalization with overlap
     ethr =  1.01E-09,  avg # of iterations =  1.0

     Magnetic moment per site  (integrated on atomic sphere of radius R)
     atom   1 (R=0.412)  charge=  6.6305  magn=  3.5747
     atom   2 (R=0.412)  charge=  6.6302  magn=  3.5750

     total cpu time spent up to now is       19.5 secs

     End of self-consistent calculation

 ------ SPIN UP ------------


          k = 0.0000 0.0000 0.0000 (   391 PWs)   bands (ev):

     4.7672   9.1238  11.6765  11.6768  11.7065  11.7065  11.8528  12.0449
    12.0452  12.9345  12.9345  13.0562

 ------ SPIN DOWN ----------


          k = 0.0000 0.0000 0.0000 (   391 PWs)   bands (ev):

     6.6155  10.6999  14.0226  15.1906  15.1909  15.5402  15.6154  15.6157
    16.5725  16.5725  17.9462  17.9462

     the Fermi energy is    15.2053 ev

!    total energy              =    -112.05931775 Ry
     estimated scf accuracy    <       0.00000007 Ry
     smearing contrib. (-TS)   =      -0.00227493 Ry
     internal energy E=F+TS    =    -112.05704281 Ry

     The total energy is F=E-TS. E is the sum of the following terms:
     one-electron contribution =      16.20290670 Ry
     hartree contribution      =      12.98752250 Ry
     xc contribution           =     -53.41296576 Ry
     ewald contribution        =     -87.83450626 Ry

     total magnetization       =     8.00 Bohr mag/cell
     absolute magnetization    =     8.01 Bohr mag/cell

     convergence has been achieved in  33 iterations

     Forces acting on atoms (cartesian axes, Ry/au):

     atom    1 type  1   force =     0.00000000    0.00003423    0.00000000
     atom    2 type  1   force =     0.00000000   -0.00003423    0.00000000
     The non-local contrib.  to forces
     atom    1 type  1   force =     0.00000000    0.00009046    0.00000000
     atom    2 type  1   force =     0.00000000   -0.00004403    0.00000000
     The ionic contribution  to forces
     atom    1 type  1   force =    -0.00000000    0.00000403   -0.00002690
     atom    2 type  1   force =     0.00000000   -0.00000403    0.00002690
     The local contribution  to forces
     atom    1 type  1   force =    -0.00000000   -0.00008604    0.00000000
     atom    2 type  1   force =    -0.00000000    0.00001581    0.00007901
     The core correction contribution to forces
     atom    1 type  1   force =    -0.00000000   -0.00001057    0.00000000
     atom    2 type  1   force =     0.00000000    0.00000356    0.00001251
     The Hubbard contrib.    to forces
     atom    1 type  1   force =     0.00000000    0.00000000    0.00000000
     atom    2 type  1   force =     0.00000000    0.00000000    0.00000000
     The SCF correction term to forces
     atom    1 type  1   force =     0.00000000    0.00010941    0.00000000
     atom    2 type  1   force =     0.00000000    0.00006751    0.00000000

     Total force =     0.000048     Total SCF correction =     0.000129
     SCF correction compared to forces is large: reduce conv_thr to get better values


     Computing stress (Cartesian axis) and pressure

          total   stress  (Ry/bohr**3)                   (kbar)     P=      423.71
  -0.00114776   0.00000000   0.00000000         -168.84        0.00        0.00
   0.00000000  -0.00114183   0.00000000            0.00     -167.97        0.00
   0.00000000   0.00000000   0.01093064            0.00        0.00     1607.95


     BFGS Geometry Optimization
     Energy error            =      0.0E+00 Ry
     Gradient error          =      3.4E-05 Ry/Bohr
     Cell gradient error     =      1.6E+03 kbar

     number of scf cycles    =   1
     number of bfgs steps    =   0

     enthalpy           new  =    -112.0593177497 Ry

     new trust radius        =       0.5000000000 bohr
     new conv_thr            =       0.0000001000 Ry

     new unit-cell volume =    172.02582 a.u.^3 (    25.49160 Ang^3 )
     density =      7.27556 g/cm^3

CELL_PARAMETERS (angstrom)
   2.446257046   0.000000000   0.000000000
  -1.223128523   2.118761545   0.000000000
   0.000000000   0.000000000   4.918275600

ATOMIC_POSITIONS (angstrom)
Fe            0.0000000000        0.0000132810        0.0000000000
Fe            0.0000000000        1.4124986503        2.4591360502



     Writing config-only to output data dir /home/gridsan/epan1/labutil/lab3_samples/problem1/Lab3/Fe_hcp_a_2.5_ecut_30_nk_1/pwscf.save/
     NEW-OLD atomic charge density approx. for the potential

     Check: negative core charge=   -0.000016
     extrapolated charge   18.13042, renormalised to   16.00000
     Generating pointlists ...
     new r_m :   0.4036 (alat units)  1.9069 (a.u.) for type    1

     total cpu time spent up to now is       21.4 secs

     Self-consistent Calculation

     iteration #  1     ecut=    30.00 Ry     beta= 0.50
     Davidson diagonalization with overlap
     ethr =  1.00E-06,  avg # of iterations = 11.0

     total cpu time spent up to now is       23.0 secs

     total energy              =    -111.49830562 Ry
     estimated scf accuracy    <       1.08003321 Ry

     total magnetization       =     8.00 Bohr mag/cell
     absolute magnetization    =     8.02 Bohr mag/cell

     iteration #  2     ecut=    30.00 Ry     beta= 0.50
     Davidson diagonalization with overlap
     ethr =  6.75E-03,  avg # of iterations =  5.0

     total cpu time spent up to now is       23.4 secs

     total energy              =    -112.16756682 Ry
     estimated scf accuracy    <       1.71571017 Ry

     total magnetization       =     6.00 Bohr mag/cell
     absolute magnetization    =     6.03 Bohr mag/cell

     iteration #  3     ecut=    30.00 Ry     beta= 0.50
     Davidson diagonalization with overlap
     ethr =  6.75E-03,  avg # of iterations =  1.5

     total cpu time spent up to now is       23.6 secs

     total energy              =    -112.31418693 Ry
     estimated scf accuracy    <       0.14411419 Ry

     total magnetization       =     8.00 Bohr mag/cell
     absolute magnetization    =     8.01 Bohr mag/cell

     iteration #  4     ecut=    30.00 Ry     beta= 0.50
     Davidson diagonalization with overlap
     ethr =  9.01E-04,  avg # of iterations =  2.0

     total cpu time spent up to now is       24.0 secs

     total energy              =    -112.32678349 Ry
     estimated scf accuracy    <       0.16244673 Ry

     total magnetization       =     8.00 Bohr mag/cell
     absolute magnetization    =     8.01 Bohr mag/cell

     iteration #  5     ecut=    30.00 Ry     beta= 0.50
     Davidson diagonalization with overlap
     ethr =  9.01E-04,  avg # of iterations =  1.0

     total cpu time spent up to now is       25.7 secs

     total energy              =    -112.32347279 Ry
     estimated scf accuracy    <       0.05432201 Ry

     total magnetization       =     8.00 Bohr mag/cell
     absolute magnetization    =     8.01 Bohr mag/cell

     iteration #  6     ecut=    30.00 Ry     beta= 0.50
     Davidson diagonalization with overlap
     ethr =  3.40E-04,  avg # of iterations =  1.0

     negative rho (up, down):  0.000E+00 1.074E-02

     total cpu time spent up to now is       27.0 secs

     total energy              =    -112.32661060 Ry
     estimated scf accuracy    <       0.10326667 Ry

     total magnetization       =     8.00 Bohr mag/cell
     absolute magnetization    =     8.03 Bohr mag/cell

     iteration #  7     ecut=    30.00 Ry     beta= 0.50
     Davidson diagonalization with overlap
     ethr =  3.40E-04,  avg # of iterations =  2.5

     negative rho (up, down):  0.000E+00 2.729E-04

     total cpu time spent up to now is       27.9 secs

     total energy              =    -112.24205643 Ry
     estimated scf accuracy    <       2.78022843 Ry

     total magnetization       =     5.96 Bohr mag/cell
     absolute magnetization    =     6.11 Bohr mag/cell

     iteration #  8     ecut=    30.00 Ry     beta= 0.50
     Davidson diagonalization with overlap
     ethr =  3.40E-04,  avg # of iterations =  2.0

     total cpu time spent up to now is       28.6 secs

     total energy              =    -112.34404330 Ry
     estimated scf accuracy    <       0.00269099 Ry

     total magnetization       =     8.06 Bohr mag/cell
     absolute magnetization    =     8.10 Bohr mag/cell

     iteration #  9     ecut=    30.00 Ry     beta= 0.50
     Davidson diagonalization with overlap
     ethr =  1.68E-05,  avg # of iterations =  2.0

     total cpu time spent up to now is       30.0 secs

     total energy              =    -112.34643673 Ry
     estimated scf accuracy    <       0.02188674 Ry

     total magnetization       =     8.05 Bohr mag/cell
     absolute magnetization    =     8.06 Bohr mag/cell

     iteration # 10     ecut=    30.00 Ry     beta= 0.50
     Davidson diagonalization with overlap
     ethr =  1.68E-05,  avg # of iterations =  1.0

     total cpu time spent up to now is       30.8 secs

     total energy              =    -112.34478982 Ry
     estimated scf accuracy    <       0.02592551 Ry

     total magnetization       =     8.00 Bohr mag/cell
     absolute magnetization    =     8.01 Bohr mag/cell

     iteration # 11     ecut=    30.00 Ry     beta= 0.50
     Davidson diagonalization with overlap
     ethr =  1.68E-05,  avg # of iterations =  2.0

     total cpu time spent up to now is       32.4 secs

     total energy              =    -112.34664144 Ry
     estimated scf accuracy    <       0.00510834 Ry

     total magnetization       =     8.01 Bohr mag/cell
     absolute magnetization    =     8.03 Bohr mag/cell

     iteration # 12     ecut=    30.00 Ry     beta= 0.50
     Davidson diagonalization with overlap
     ethr =  1.68E-05,  avg # of iterations =  1.0

     total cpu time spent up to now is       33.3 secs

     total energy              =    -112.34428124 Ry
     estimated scf accuracy    <       0.00430089 Ry

     total magnetization       =     8.02 Bohr mag/cell
     absolute magnetization    =     8.04 Bohr mag/cell

     iteration # 13     ecut=    30.00 Ry     beta= 0.50
     Davidson diagonalization with overlap
     ethr =  1.68E-05,  avg # of iterations =  3.5

     total cpu time spent up to now is       33.8 secs

     total energy              =    -112.34681156 Ry
     estimated scf accuracy    <       0.01252750 Ry

     total magnetization       =     8.00 Bohr mag/cell
     absolute magnetization    =     8.03 Bohr mag/cell

     iteration # 14     ecut=    30.00 Ry     beta= 0.50
     Davidson diagonalization with overlap
     ethr =  1.68E-05,  avg # of iterations =  1.0

     total cpu time spent up to now is       34.5 secs

     total energy              =    -112.34636021 Ry
     estimated scf accuracy    <       0.01170979 Ry

     total magnetization       =     8.00 Bohr mag/cell
     absolute magnetization    =     8.03 Bohr mag/cell

     iteration # 15     ecut=    30.00 Ry     beta= 0.50
     Davidson diagonalization with overlap
     ethr =  1.68E-05,  avg # of iterations =  1.5

     total cpu time spent up to now is       34.9 secs

     total energy              =    -112.34647404 Ry
     estimated scf accuracy    <       0.00515117 Ry

     total magnetization       =     8.00 Bohr mag/cell
     absolute magnetization    =     8.04 Bohr mag/cell

     iteration # 16     ecut=    30.00 Ry     beta= 0.50
     Davidson diagonalization with overlap
     ethr =  1.68E-05,  avg # of iterations =  1.0

     total cpu time spent up to now is       35.3 secs

     total energy              =    -112.34646649 Ry
     estimated scf accuracy    <       0.00255444 Ry

     total magnetization       =     8.01 Bohr mag/cell
     absolute magnetization    =     8.04 Bohr mag/cell

     iteration # 17     ecut=    30.00 Ry     beta= 0.50
     Davidson diagonalization with overlap
     ethr =  1.60E-05,  avg # of iterations =  1.0

     total cpu time spent up to now is       35.9 secs

     total energy              =    -112.34639384 Ry
     estimated scf accuracy    <       0.00154452 Ry

     total magnetization       =     8.00 Bohr mag/cell
     absolute magnetization    =     8.04 Bohr mag/cell

     iteration # 18     ecut=    30.00 Ry     beta= 0.50
     Davidson diagonalization with overlap
     ethr =  9.65E-06,  avg # of iterations =  1.0

     total cpu time spent up to now is       36.2 secs

     total energy              =    -112.34641696 Ry
     estimated scf accuracy    <       0.00028612 Ry

     total magnetization       =     8.00 Bohr mag/cell
     absolute magnetization    =     8.03 Bohr mag/cell

     iteration # 19     ecut=    30.00 Ry     beta= 0.50
     Davidson diagonalization with overlap
     ethr =  1.79E-06,  avg # of iterations =  1.0

     total cpu time spent up to now is       36.7 secs

     total energy              =    -112.34640809 Ry
     estimated scf accuracy    <       0.00024732 Ry

     total magnetization       =     8.00 Bohr mag/cell
     absolute magnetization    =     8.03 Bohr mag/cell

     iteration # 20     ecut=    30.00 Ry     beta= 0.50
     Davidson diagonalization with overlap
     ethr =  1.55E-06,  avg # of iterations =  1.0

     total cpu time spent up to now is       37.7 secs

     total energy              =    -112.34641749 Ry
     estimated scf accuracy    <       0.00000806 Ry

     total magnetization       =     8.00 Bohr mag/cell
     absolute magnetization    =     8.03 Bohr mag/cell

     iteration # 21     ecut=    30.00 Ry     beta= 0.50
     Davidson diagonalization with overlap
     ethr =  5.04E-08,  avg # of iterations =  3.0

     total cpu time spent up to now is       38.5 secs

     total energy              =    -112.34642782 Ry
     estimated scf accuracy    <       0.00006334 Ry

     total magnetization       =     8.00 Bohr mag/cell
     absolute magnetization    =     8.03 Bohr mag/cell

     iteration # 22     ecut=    30.00 Ry     beta= 0.50
     Davidson diagonalization with overlap
     ethr =  5.04E-08,  avg # of iterations =  1.0

     total cpu time spent up to now is       39.2 secs

     total energy              =    -112.34642842 Ry
     estimated scf accuracy    <       0.00008823 Ry

     total magnetization       =     8.00 Bohr mag/cell
     absolute magnetization    =     8.03 Bohr mag/cell

     iteration # 23     ecut=    30.00 Ry     beta= 0.50
     Davidson diagonalization with overlap
     ethr =  5.04E-08,  avg # of iterations =  1.0

     total cpu time spent up to now is       39.6 secs

     total energy              =    -112.34642294 Ry
     estimated scf accuracy    <       0.00010521 Ry

     total magnetization       =     8.00 Bohr mag/cell
     absolute magnetization    =     8.03 Bohr mag/cell

     iteration # 24     ecut=    30.00 Ry     beta= 0.50
     Davidson diagonalization with overlap
     ethr =  5.04E-08,  avg # of iterations =  1.0

     total cpu time spent up to now is       40.2 secs

     total energy              =    -112.34642494 Ry
     estimated scf accuracy    <       0.00002514 Ry

     total magnetization       =     8.00 Bohr mag/cell
     absolute magnetization    =     8.03 Bohr mag/cell

     iteration # 25     ecut=    30.00 Ry     beta= 0.50
     Davidson diagonalization with overlap
     ethr =  5.04E-08,  avg # of iterations =  1.0

     total cpu time spent up to now is       40.8 secs

     total energy              =    -112.34642476 Ry
     estimated scf accuracy    <       0.00003109 Ry

     total magnetization       =     8.00 Bohr mag/cell
     absolute magnetization    =     8.03 Bohr mag/cell

     iteration # 26     ecut=    30.00 Ry     beta= 0.50
     Davidson diagonalization with overlap
     ethr =  5.04E-08,  avg # of iterations =  1.0

     total cpu time spent up to now is       41.2 secs

     total energy              =    -112.34641323 Ry
     estimated scf accuracy    <       0.00001393 Ry

     total magnetization       =     8.00 Bohr mag/cell
     absolute magnetization    =     8.03 Bohr mag/cell

     iteration # 27     ecut=    30.00 Ry     beta= 0.50
     Davidson diagonalization with overlap
     ethr =  5.04E-08,  avg # of iterations =  1.0

     total cpu time spent up to now is       41.7 secs

     total energy              =    -112.34642003 Ry
     estimated scf accuracy    <       0.00000366 Ry

     total magnetization       =     8.00 Bohr mag/cell
     absolute magnetization    =     8.03 Bohr mag/cell

     iteration # 28     ecut=    30.00 Ry     beta= 0.50
     Davidson diagonalization with overlap
     ethr =  2.29E-08,  avg # of iterations =  1.0

     total cpu time spent up to now is       42.5 secs

     total energy              =    -112.34641898 Ry
     estimated scf accuracy    <       0.00000334 Ry

     total magnetization       =     8.00 Bohr mag/cell
     absolute magnetization    =     8.03 Bohr mag/cell

     iteration # 29     ecut=    30.00 Ry     beta= 0.50
     Davidson diagonalization with overlap
     ethr =  2.09E-08,  avg # of iterations =  1.5

     total cpu time spent up to now is       43.4 secs

     total energy              =    -112.34641794 Ry
     estimated scf accuracy    <       0.00000447 Ry

     total magnetization       =     8.00 Bohr mag/cell
     absolute magnetization    =     8.03 Bohr mag/cell

     iteration # 30     ecut=    30.00 Ry     beta= 0.50
     Davidson diagonalization with overlap
     ethr =  2.09E-08,  avg # of iterations =  2.0

     total cpu time spent up to now is       44.1 secs

     total energy              =    -112.34641620 Ry
     estimated scf accuracy    <       0.00000492 Ry

     total magnetization       =     8.00 Bohr mag/cell
     absolute magnetization    =     8.03 Bohr mag/cell

     iteration # 31     ecut=    30.00 Ry     beta= 0.50
     Davidson diagonalization with overlap
     ethr =  2.09E-08,  avg # of iterations =  2.0

     total cpu time spent up to now is       44.9 secs

     total energy              =    -112.34641597 Ry
     estimated scf accuracy    <       0.00001453 Ry

     total magnetization       =     8.00 Bohr mag/cell
     absolute magnetization    =     8.03 Bohr mag/cell

     iteration # 32     ecut=    30.00 Ry     beta= 0.50
     Davidson diagonalization with overlap
     ethr =  2.09E-08,  avg # of iterations =  1.0

     total cpu time spent up to now is       45.5 secs

     total energy              =    -112.34641593 Ry
     estimated scf accuracy    <       0.00000248 Ry

     total magnetization       =     8.00 Bohr mag/cell
     absolute magnetization    =     8.03 Bohr mag/cell

     iteration # 33     ecut=    30.00 Ry     beta= 0.50
     Davidson diagonalization with overlap
     ethr =  1.55E-08,  avg # of iterations =  1.5

     total cpu time spent up to now is       45.9 secs

     total energy              =    -112.34641697 Ry
     estimated scf accuracy    <       0.00000049 Ry

     total magnetization       =     8.00 Bohr mag/cell
     absolute magnetization    =     8.03 Bohr mag/cell

     iteration # 34     ecut=    30.00 Ry     beta= 0.50
     Davidson diagonalization with overlap
     ethr =  3.08E-09,  avg # of iterations =  1.0

     total cpu time spent up to now is       46.6 secs

     total energy              =    -112.34641718 Ry
     estimated scf accuracy    <       0.00000023 Ry

     total magnetization       =     8.00 Bohr mag/cell
     absolute magnetization    =     8.03 Bohr mag/cell

     iteration # 35     ecut=    30.00 Ry     beta= 0.50
     Davidson diagonalization with overlap
     ethr =  1.41E-09,  avg # of iterations =  1.5

     total cpu time spent up to now is       47.3 secs

     total energy              =    -112.34641721 Ry
     estimated scf accuracy    <       0.00000010 Ry

     total magnetization       =     8.00 Bohr mag/cell
     absolute magnetization    =     8.03 Bohr mag/cell

     iteration # 36     ecut=    30.00 Ry     beta= 0.50
     Davidson diagonalization with overlap
     ethr =  6.48E-10,  avg # of iterations =  2.0

     total cpu time spent up to now is       49.0 secs

     total energy              =    -112.34641722 Ry
     estimated scf accuracy    <       0.00000011 Ry

     total magnetization       =     8.00 Bohr mag/cell
     absolute magnetization    =     8.03 Bohr mag/cell

     iteration # 37     ecut=    30.00 Ry     beta= 0.50
     Davidson diagonalization with overlap
     ethr =  6.48E-10,  avg # of iterations =  3.0

     Magnetic moment per site  (integrated on atomic sphere of radius R)
     atom   1 (R=0.404)  charge=  6.1233  magn=  3.8762
     atom   2 (R=0.404)  charge=  6.1233  magn=  3.8762

     total cpu time spent up to now is       49.4 secs

     End of self-consistent calculation

 ------ SPIN UP ------------


          k = 0.0000 0.0000 0.0000 (   391 PWs)   bands (ev):

     3.4221   5.2096   6.5687   6.5733   6.6482   6.6528   6.9019   7.7043
     7.7045   8.0129   8.0130  10.2889

 ------ SPIN DOWN ----------


          k = 0.0000 0.0000 0.0000 (   391 PWs)   bands (ev):

     4.2397   7.1596   9.2702  10.7680  11.1147  11.1178  11.2315  11.2348
    13.0878  13.0882  13.5142  13.5145

     the Fermi energy is    10.9415 ev

!    total energy              =    -112.34641725 Ry
     estimated scf accuracy    <          8.6E-09 Ry
     smearing contrib. (-TS)   =       0.00140638 Ry
     internal energy E=F+TS    =    -112.34782363 Ry

     The total energy is F=E-TS. E is the sum of the following terms:
     one-electron contribution =      10.34676824 Ry
     hartree contribution      =      13.11539929 Ry
     xc contribution           =     -52.69255336 Ry
     ewald contribution        =     -83.11743781 Ry

     total magnetization       =     8.00 Bohr mag/cell
     absolute magnetization    =     8.03 Bohr mag/cell

     convergence has been achieved in  37 iterations

     Forces acting on atoms (cartesian axes, Ry/au):

     atom    1 type  1   force =     0.00000000   -0.00001598    0.00000000
     atom    2 type  1   force =    -0.00000000    0.00001598    0.00000000
     The non-local contrib.  to forces
     atom    1 type  1   force =     0.00000000   -0.00005177    0.00000000
     atom    2 type  1   force =    -0.00000000    0.00005010    0.00000000
     The ionic contribution  to forces
     atom    1 type  1   force =     0.00000000    0.00006652   -0.00003001
     atom    2 type  1   force =     0.00000000   -0.00006652    0.00003001
     The local contribution  to forces
     atom    1 type  1   force =    -0.00000000   -0.00003317    0.00000000
     atom    2 type  1   force =    -0.00000000    0.00003513    0.00009674
     The core correction contribution to forces
     atom    1 type  1   force =    -0.00000000    0.00000485    0.00000001
     atom    2 type  1   force =    -0.00000000   -0.00000461    0.00001396
     The Hubbard contrib.    to forces
     atom    1 type  1   force =     0.00000000    0.00000000    0.00000000
     atom    2 type  1   force =     0.00000000    0.00000000    0.00000000
     The SCF correction term to forces
     atom    1 type  1   force =     0.00000000   -0.00000226    0.00000000
     atom    2 type  1   force =    -0.00000000    0.00000201    0.00000000

     Total force =     0.000023     Total SCF correction =     0.000003
     SCF correction compared to forces is large: reduce conv_thr to get better values


     Computing stress (Cartesian axis) and pressure

          total   stress  (Ry/bohr**3)                   (kbar)     P=     -153.74
  -0.00337379   0.00000000   0.00000000         -496.30        0.00        0.00
  -0.00000000  -0.00340649   0.00000000           -0.00     -501.11        0.00
   0.00000000   0.00000000   0.00364493            0.00        0.00      536.19

     Energy error            =      2.9E-01 Ry
     Gradient error          =      1.6E-05 Ry/Bohr
     Cell gradient error     =      5.4E+02 kbar

     number of scf cycles    =   2
     number of bfgs steps    =   1

     enthalpy           old  =    -112.0593177497 Ry
     enthalpy           new  =    -112.3464172508 Ry

     CASE: enthalpy          _new < enthalpy          _old

     new trust radius        =       0.5508452934 bohr
     new conv_thr            =       0.0000000010 Ry

     new unit-cell volume =    140.47030 a.u.^3 (    20.81555 Ang^3 )
     density =      8.90995 g/cm^3

CELL_PARAMETERS (angstrom)
   2.011428500  -0.000000000   0.000000000
  -1.005714250   1.738953307   0.000000000
   0.000000000   0.000000000   5.951074321

ATOMIC_POSITIONS (angstrom)
Fe            0.0000000000        0.0000059373        0.0000000000
Fe            0.0000000000        1.1592997426        2.9755350434



     Writing config-only to output data dir /home/gridsan/epan1/labutil/lab3_samples/problem1/Lab3/Fe_hcp_a_2.5_ecut_30_nk_1/pwscf.save/
     NEW-OLD atomic charge density approx. for the potential

     Check: negative core charge=   -0.000038

     negative rho (up, down):  0.000E+00 2.982E-01
     extrapolated charge   12.40601, renormalised to   16.00000
     Generating pointlists ...
     new r_m :   0.3315 (alat units)  1.5659 (a.u.) for type    1

     total cpu time spent up to now is       51.2 secs

     Self-consistent Calculation

     iteration #  1     ecut=    30.00 Ry     beta= 0.50
     Davidson diagonalization with overlap
     ethr =  1.00E-06,  avg # of iterations = 13.5

     total cpu time spent up to now is       53.3 secs

     total energy              =    -107.37221833 Ry
     estimated scf accuracy    <       6.93632746 Ry

     total magnetization       =     4.00 Bohr mag/cell
     absolute magnetization    =     4.26 Bohr mag/cell

     iteration #  2     ecut=    30.00 Ry     beta= 0.50
     Davidson diagonalization with overlap
     ethr =  1.00E-02,  avg # of iterations =  3.0

     total cpu time spent up to now is       56.6 secs

     total energy              =    -111.63554677 Ry
     estimated scf accuracy    <       1.54270236 Ry

     total magnetization       =     8.00 Bohr mag/cell
     absolute magnetization    =     8.05 Bohr mag/cell

     iteration #  3     ecut=    30.00 Ry     beta= 0.50
     Davidson diagonalization with overlap
     ethr =  9.64E-03,  avg # of iterations =  1.0

     total cpu time spent up to now is       58.0 secs

     total energy              =    -111.36737347 Ry
     estimated scf accuracy    <       0.47688629 Ry

     total magnetization       =     8.00 Bohr mag/cell
     absolute magnetization    =     8.04 Bohr mag/cell

     iteration #  4     ecut=    30.00 Ry     beta= 0.50
     Davidson diagonalization with overlap
     ethr =  2.98E-03,  avg # of iterations =  2.0

     total cpu time spent up to now is       58.5 secs

     total energy              =    -111.50312920 Ry
     estimated scf accuracy    <       0.37727172 Ry

     total magnetization       =     6.83 Bohr mag/cell
     absolute magnetization    =     6.86 Bohr mag/cell

     iteration #  5     ecut=    30.00 Ry     beta= 0.50
     Davidson diagonalization with overlap
     ethr =  2.36E-03,  avg # of iterations =  1.0

     total cpu time spent up to now is       58.7 secs

     total energy              =    -111.53592742 Ry
     estimated scf accuracy    <       0.07057120 Ry

     total magnetization       =     8.00 Bohr mag/cell
     absolute magnetization    =     8.02 Bohr mag/cell

     iteration #  6     ecut=    30.00 Ry     beta= 0.50
     Davidson diagonalization with overlap
     ethr =  4.41E-04,  avg # of iterations =  1.0

     total cpu time spent up to now is       58.9 secs

     total energy              =    -111.53402879 Ry
     estimated scf accuracy    <       0.07270990 Ry

     total magnetization       =     8.00 Bohr mag/cell
     absolute magnetization    =     8.02 Bohr mag/cell

     iteration #  7     ecut=    30.00 Ry     beta= 0.50
     Davidson diagonalization with overlap
     ethr =  4.41E-04,  avg # of iterations =  1.0

     total cpu time spent up to now is       59.6 secs

     total energy              =    -111.53248615 Ry
     estimated scf accuracy    <       0.10945517 Ry

     total magnetization       =     8.00 Bohr mag/cell
     absolute magnetization    =     8.02 Bohr mag/cell

     iteration #  8     ecut=    30.00 Ry     beta= 0.50
     Davidson diagonalization with overlap
     ethr =  4.41E-04,  avg # of iterations =  1.0

     total cpu time spent up to now is       60.8 secs

     total energy              =    -111.54559888 Ry
     estimated scf accuracy    <       0.06857992 Ry

     total magnetization       =     8.00 Bohr mag/cell
     absolute magnetization    =     8.02 Bohr mag/cell

     iteration #  9     ecut=    30.00 Ry     beta= 0.50
     Davidson diagonalization with overlap
     ethr =  4.29E-04,  avg # of iterations =  1.0

     total cpu time spent up to now is       61.7 secs

     total energy              =    -111.53260890 Ry
     estimated scf accuracy    <       0.08231818 Ry

     total magnetization       =     8.00 Bohr mag/cell
     absolute magnetization    =     8.03 Bohr mag/cell

     iteration # 10     ecut=    30.00 Ry     beta= 0.50
     Davidson diagonalization with overlap
     ethr =  4.29E-04,  avg # of iterations =  1.5

     total cpu time spent up to now is       62.6 secs

     total energy              =    -111.53227522 Ry
     estimated scf accuracy    <       0.03382756 Ry

     total magnetization       =     8.00 Bohr mag/cell
     absolute magnetization    =     8.04 Bohr mag/cell

     iteration # 11     ecut=    30.00 Ry     beta= 0.50
     Davidson diagonalization with overlap
     ethr =  2.11E-04,  avg # of iterations =  1.0

     total cpu time spent up to now is       63.3 secs

     total energy              =    -111.53498085 Ry
     estimated scf accuracy    <       0.02211267 Ry

     total magnetization       =     8.00 Bohr mag/cell
     absolute magnetization    =     8.04 Bohr mag/cell

     iteration # 12     ecut=    30.00 Ry     beta= 0.50
     Davidson diagonalization with overlap
     ethr =  1.38E-04,  avg # of iterations =  1.0

     total cpu time spent up to now is       63.8 secs

     total energy              =    -111.52838294 Ry
     estimated scf accuracy    <       0.02888491 Ry

     total magnetization       =     8.00 Bohr mag/cell
     absolute magnetization    =     8.04 Bohr mag/cell

     iteration # 13     ecut=    30.00 Ry     beta= 0.50
     Davidson diagonalization with overlap
     ethr =  1.38E-04,  avg # of iterations =  1.0

     total cpu time spent up to now is       64.6 secs

     total energy              =    -111.52042053 Ry
     estimated scf accuracy    <       0.01436135 Ry

     total magnetization       =     8.00 Bohr mag/cell
     absolute magnetization    =     8.04 Bohr mag/cell

     iteration # 14     ecut=    30.00 Ry     beta= 0.50
     Davidson diagonalization with overlap
     ethr =  8.98E-05,  avg # of iterations =  2.0

     total cpu time spent up to now is       65.9 secs

     total energy              =    -111.52257387 Ry
     estimated scf accuracy    <       0.00010359 Ry

     total magnetization       =     8.00 Bohr mag/cell
     absolute magnetization    =     8.04 Bohr mag/cell

     iteration # 15     ecut=    30.00 Ry     beta= 0.50
     Davidson diagonalization with overlap
     ethr =  6.47E-07,  avg # of iterations = 13.0

     total cpu time spent up to now is       67.0 secs

     total energy              =    -112.28232782 Ry
     estimated scf accuracy    <       1.33616845 Ry

     total magnetization       =     8.00 Bohr mag/cell
     absolute magnetization    =     8.10 Bohr mag/cell

     iteration # 16     ecut=    30.00 Ry     beta= 0.50
     Davidson diagonalization with overlap
     ethr =  6.47E-07,  avg # of iterations =  2.5

     total cpu time spent up to now is       67.4 secs

     total energy              =    -112.28345256 Ry
     estimated scf accuracy    <       1.29980313 Ry

     total magnetization       =     8.00 Bohr mag/cell
     absolute magnetization    =     8.09 Bohr mag/cell

     iteration # 17     ecut=    30.00 Ry     beta= 0.50
     Davidson diagonalization with overlap
     ethr =  6.47E-07,  avg # of iterations =  2.0

     total cpu time spent up to now is       68.8 secs

     total energy              =    -112.27928460 Ry
     estimated scf accuracy    <       1.30984753 Ry

     total magnetization       =     8.00 Bohr mag/cell
     absolute magnetization    =     8.09 Bohr mag/cell

     iteration # 18     ecut=    30.00 Ry     beta= 0.50
     Davidson diagonalization with overlap
     ethr =  6.47E-07,  avg # of iterations =  2.0

     total cpu time spent up to now is       69.4 secs

     total energy              =    -112.28716043 Ry
     estimated scf accuracy    <       1.30414437 Ry

     total magnetization       =     8.00 Bohr mag/cell
     absolute magnetization    =     8.09 Bohr mag/cell

     iteration # 19     ecut=    30.00 Ry     beta= 0.50
     Davidson diagonalization with overlap
     ethr =  6.47E-07,  avg # of iterations =  1.5

     total cpu time spent up to now is       70.1 secs

     total energy              =    -112.29196628 Ry
     estimated scf accuracy    <       1.32187551 Ry

     total magnetization       =     8.00 Bohr mag/cell
     absolute magnetization    =     8.09 Bohr mag/cell

     iteration # 20     ecut=    30.00 Ry     beta= 0.50
     Davidson diagonalization with overlap
     ethr =  6.47E-07,  avg # of iterations =  4.5

     total cpu time spent up to now is       70.8 secs

     total energy              =    -112.29471288 Ry
     estimated scf accuracy    <       1.82811882 Ry

     total magnetization       =     8.00 Bohr mag/cell
     absolute magnetization    =     8.08 Bohr mag/cell

     iteration # 21     ecut=    30.00 Ry     beta= 0.50
     Davidson diagonalization with overlap
     ethr =  6.47E-07,  avg # of iterations =  2.0

     negative rho (up, down):  1.248E-05 0.000E+00

     total cpu time spent up to now is       73.1 secs

     total energy              =    -112.29633077 Ry
     estimated scf accuracy    <       1.83030266 Ry

     total magnetization       =     8.00 Bohr mag/cell
     absolute magnetization    =     8.08 Bohr mag/cell

     iteration # 22     ecut=    30.00 Ry     beta= 0.50
     Davidson diagonalization with overlap
     ethr =  6.47E-07,  avg # of iterations =  1.5

     negative rho (up, down):  3.205E-05 0.000E+00

     total cpu time spent up to now is       74.1 secs

     total energy              =    -112.30644880 Ry
     estimated scf accuracy    <       1.83429283 Ry

     total magnetization       =     8.00 Bohr mag/cell
     absolute magnetization    =     8.08 Bohr mag/cell

     iteration # 23     ecut=    30.00 Ry     beta= 0.50
     Davidson diagonalization with overlap
     ethr =  6.47E-07,  avg # of iterations =  2.0

     negative rho (up, down):  8.061E-03 2.894E-03

     total cpu time spent up to now is       75.4 secs

     total energy              =    -111.37521665 Ry
     estimated scf accuracy    <       1.85635808 Ry

     total magnetization       =     8.00 Bohr mag/cell
     absolute magnetization    =     8.08 Bohr mag/cell

     iteration # 24     ecut=    30.00 Ry     beta= 0.50
     Davidson diagonalization with overlap
     ethr =  6.47E-07,  avg # of iterations = 10.5

     negative rho (up, down):  5.234E-02 4.054E-03

     total cpu time spent up to now is       76.8 secs

     total energy              =    -112.14902393 Ry
     estimated scf accuracy    <       5.09000117 Ry

     total magnetization       =     6.00 Bohr mag/cell
     absolute magnetization    =     6.20 Bohr mag/cell

     iteration # 25     ecut=    30.00 Ry     beta= 0.50
     Davidson diagonalization with overlap
     ethr =  6.47E-07,  avg # of iterations =  5.0

     negative rho (up, down):  2.525E-02 5.676E-04

     total cpu time spent up to now is       77.7 secs

     total energy              =    -111.86837135 Ry
     estimated scf accuracy    <       2.33932599 Ry

     total magnetization       =     6.00 Bohr mag/cell
     absolute magnetization    =     6.17 Bohr mag/cell

     iteration # 26     ecut=    30.00 Ry     beta= 0.50
     Davidson diagonalization with overlap
     ethr =  6.47E-07,  avg # of iterations =  6.0

     negative rho (up, down):  0.000E+00 2.342E-05

     total cpu time spent up to now is       78.7 secs

     total energy              =    -111.79181942 Ry
     estimated scf accuracy    <       1.35254522 Ry

     total magnetization       =     6.00 Bohr mag/cell
     absolute magnetization    =     6.11 Bohr mag/cell

     iteration # 27     ecut=    30.00 Ry     beta= 0.50
     Davidson diagonalization with overlap
     ethr =  6.47E-07,  avg # of iterations =  5.5

     negative rho (up, down):  0.000E+00 2.801E-04

     total cpu time spent up to now is       79.5 secs

     total energy              =    -111.86794781 Ry
     estimated scf accuracy    <       1.59117659 Ry

     total magnetization       =     6.04 Bohr mag/cell
     absolute magnetization    =     7.20 Bohr mag/cell

     iteration # 28     ecut=    30.00 Ry     beta= 0.50
     Davidson diagonalization with overlap
     ethr =  6.47E-07,  avg # of iterations =  2.5

     negative rho (up, down):  2.802E-02 3.303E-02

     total cpu time spent up to now is       81.1 secs

     total energy              =    -111.62688811 Ry
     estimated scf accuracy    <       1.82791729 Ry

     total magnetization       =     6.09 Bohr mag/cell
     absolute magnetization    =     7.07 Bohr mag/cell

     iteration # 29     ecut=    30.00 Ry     beta= 0.50
     Davidson diagonalization with overlap
     ethr =  6.47E-07,  avg # of iterations = 11.5

     negative rho (up, down):  7.876E-06 1.377E-02

     total cpu time spent up to now is       83.0 secs

     total energy              =    -111.89769562 Ry
     estimated scf accuracy    <      16.04396219 Ry

     total magnetization       =     4.06 Bohr mag/cell
     absolute magnetization    =     4.17 Bohr mag/cell

     iteration # 30     ecut=    30.00 Ry     beta= 0.50
     Davidson diagonalization with overlap
     ethr =  6.47E-07,  avg # of iterations =  6.5

     negative rho (up, down):  4.083E-04 1.398E-02

     total cpu time spent up to now is       85.0 secs

     total energy              =    -112.02526207 Ry
     estimated scf accuracy    <       6.76459784 Ry

     total magnetization       =     6.02 Bohr mag/cell
     absolute magnetization    =     6.08 Bohr mag/cell

     iteration # 31     ecut=    30.00 Ry     beta= 0.50
     Davidson diagonalization with overlap
     ethr =  6.47E-07,  avg # of iterations =  4.0

     negative rho (up, down):  1.125E-03 1.048E-02

     total cpu time spent up to now is       86.0 secs

     total energy              =    -112.12775513 Ry
     estimated scf accuracy    <       5.94798194 Ry

     total magnetization       =     6.02 Bohr mag/cell
     absolute magnetization    =     6.08 Bohr mag/cell

     iteration # 32     ecut=    30.00 Ry     beta= 0.50
     Davidson diagonalization with overlap
     ethr =  6.47E-07,  avg # of iterations =  5.0

     negative rho (up, down):  1.606E-03 0.000E+00

     total cpu time spent up to now is       86.6 secs

     total energy              =    -112.21834394 Ry
     estimated scf accuracy    <       4.21817537 Ry

     total magnetization       =     6.77 Bohr mag/cell
     absolute magnetization    =     6.81 Bohr mag/cell

     iteration # 33     ecut=    30.00 Ry     beta= 0.50
     Davidson diagonalization with overlap
     ethr =  6.47E-07,  avg # of iterations =  5.0

     negative rho (up, down):  6.619E-04 7.786E-05

     total cpu time spent up to now is       87.3 secs

     total energy              =    -112.23630057 Ry
     estimated scf accuracy    <       2.26244120 Ry

     total magnetization       =     7.76 Bohr mag/cell
     absolute magnetization    =     7.80 Bohr mag/cell

     iteration # 34     ecut=    30.00 Ry     beta= 0.50
     Davidson diagonalization with overlap
     ethr =  6.47E-07,  avg # of iterations =  4.0

     negative rho (up, down):  5.902E-03 0.000E+00

     total cpu time spent up to now is       87.8 secs

     total energy              =    -112.31725304 Ry
     estimated scf accuracy    <       1.86729527 Ry

     total magnetization       =     8.04 Bohr mag/cell
     absolute magnetization    =     8.09 Bohr mag/cell

     iteration # 35     ecut=    30.00 Ry     beta= 0.50
     Davidson diagonalization with overlap
     ethr =  6.47E-07,  avg # of iterations =  7.0

     negative rho (up, down):  9.375E-03 0.000E+00

     total cpu time spent up to now is       88.8 secs

     total energy              =    -112.21932748 Ry
     estimated scf accuracy    <       2.44766680 Ry

     total magnetization       =     6.89 Bohr mag/cell
     absolute magnetization    =     6.93 Bohr mag/cell

     iteration # 36     ecut=    30.00 Ry     beta= 0.50
     Davidson diagonalization with overlap
     ethr =  6.47E-07,  avg # of iterations =  4.5

     negative rho (up, down):  7.003E-04 1.737E-03

     total cpu time spent up to now is       89.7 secs

     total energy              =    -112.06084827 Ry
     estimated scf accuracy    <       3.91337361 Ry

     total magnetization       =     7.12 Bohr mag/cell
     absolute magnetization    =     7.17 Bohr mag/cell

     iteration # 37     ecut=    30.00 Ry     beta= 0.50
     Davidson diagonalization with overlap
     ethr =  6.47E-07,  avg # of iterations =  6.0

     negative rho (up, down):  5.287E-04 4.978E-01

     total cpu time spent up to now is       90.8 secs

     total energy              =    -111.20878741 Ry
     estimated scf accuracy    <       6.58339621 Ry

     total magnetization       =     6.07 Bohr mag/cell
     absolute magnetization    =     6.12 Bohr mag/cell

     iteration # 38     ecut=    30.00 Ry     beta= 0.50
     Davidson diagonalization with overlap
     ethr =  6.47E-07,  avg # of iterations = 14.5

     negative rho (up, down):  0.000E+00 1.867E-01

     total cpu time spent up to now is       92.8 secs

     total energy              =    -111.71436161 Ry
     estimated scf accuracy    <       2.07803524 Ry

     total magnetization       =     8.14 Bohr mag/cell
     absolute magnetization    =     8.15 Bohr mag/cell

     iteration # 39     ecut=    30.00 Ry     beta= 0.50
     Davidson diagonalization with overlap
     ethr =  6.47E-07,  avg # of iterations =  7.0

     negative rho (up, down):  0.000E+00 9.986E-02

     total cpu time spent up to now is       93.6 secs

     total energy              =    -111.79898276 Ry
     estimated scf accuracy    <       0.30931526 Ry

     total magnetization       =     8.03 Bohr mag/cell
     absolute magnetization    =     8.04 Bohr mag/cell

     iteration # 40     ecut=    30.00 Ry     beta= 0.50
     Davidson diagonalization with overlap
     ethr =  6.47E-07,  avg # of iterations =  5.5

     negative rho (up, down):  0.000E+00 2.944E-01

     total cpu time spent up to now is       93.9 secs

     total energy              =    -111.76709114 Ry
     estimated scf accuracy    <       0.26848708 Ry

     total magnetization       =     8.18 Bohr mag/cell
     absolute magnetization    =     8.25 Bohr mag/cell

     iteration # 41     ecut=    30.00 Ry     beta= 0.50
     Davidson diagonalization with overlap
     ethr =  6.47E-07,  avg # of iterations =  9.5

     negative rho (up, down):  0.000E+00 3.029E-01

     total cpu time spent up to now is       95.2 secs

     total energy              =    -111.83157000 Ry
     estimated scf accuracy    <       2.22496092 Ry

     total magnetization       =     8.06 Bohr mag/cell
     absolute magnetization    =     8.09 Bohr mag/cell

     iteration # 42     ecut=    30.00 Ry     beta= 0.50
     Davidson diagonalization with overlap
     ethr =  6.47E-07,  avg # of iterations =  3.5

     negative rho (up, down):  0.000E+00 2.253E-01

     total cpu time spent up to now is       95.5 secs

     total energy              =    -111.78336559 Ry
     estimated scf accuracy    <       2.14442081 Ry

     total magnetization       =     8.08 Bohr mag/cell
     absolute magnetization    =     8.11 Bohr mag/cell

     iteration # 43     ecut=    30.00 Ry     beta= 0.50
     Davidson diagonalization with overlap
     ethr =  6.47E-07,  avg # of iterations =  5.0

     negative rho (up, down):  0.000E+00 1.336E-02

     total cpu time spent up to now is       97.0 secs

     total energy              =    -111.71237227 Ry
     estimated scf accuracy    <       1.57862451 Ry

     total magnetization       =     7.88 Bohr mag/cell
     absolute magnetization    =     7.91 Bohr mag/cell

     iteration # 44     ecut=    30.00 Ry     beta= 0.50
     Davidson diagonalization with overlap
     ethr =  6.47E-07,  avg # of iterations = 10.0

     negative rho (up, down):  0.000E+00 4.357E-04

     total cpu time spent up to now is       97.9 secs

     total energy              =    -111.86960980 Ry
     estimated scf accuracy    <       0.07494692 Ry

     total magnetization       =     8.04 Bohr mag/cell
     absolute magnetization    =     8.06 Bohr mag/cell

     iteration # 45     ecut=    30.00 Ry     beta= 0.50
     Davidson diagonalization with overlap
     ethr =  6.47E-07,  avg # of iterations =  5.5

     total cpu time spent up to now is       99.1 secs

     total energy              =    -111.87636821 Ry
     estimated scf accuracy    <       0.01802910 Ry

     total magnetization       =     8.02 Bohr mag/cell
     absolute magnetization    =     8.03 Bohr mag/cell

     iteration # 46     ecut=    30.00 Ry     beta= 0.50
     Davidson diagonalization with overlap
     ethr =  6.47E-07,  avg # of iterations =  4.5

     total cpu time spent up to now is       99.5 secs

     total energy              =    -111.87784921 Ry
     estimated scf accuracy    <       0.02310072 Ry

     total magnetization       =     8.00 Bohr mag/cell
     absolute magnetization    =     8.03 Bohr mag/cell

     iteration # 47     ecut=    30.00 Ry     beta= 0.50
     Davidson diagonalization with overlap
     ethr =  6.47E-07,  avg # of iterations =  4.0

     total cpu time spent up to now is      100.2 secs

     total energy              =    -111.88059651 Ry
     estimated scf accuracy    <       0.06969129 Ry

     total magnetization       =     8.05 Bohr mag/cell
     absolute magnetization    =     8.05 Bohr mag/cell

     iteration # 48     ecut=    30.00 Ry     beta= 0.50
     Davidson diagonalization with overlap
     ethr =  6.47E-07,  avg # of iterations =  3.5

     negative rho (up, down):  0.000E+00 4.188E-05

     total cpu time spent up to now is      101.2 secs

     total energy              =    -111.88154375 Ry
     estimated scf accuracy    <       0.01892690 Ry

     total magnetization       =     8.03 Bohr mag/cell
     absolute magnetization    =     8.03 Bohr mag/cell

     iteration # 49     ecut=    30.00 Ry     beta= 0.50
     Davidson diagonalization with overlap
     ethr =  6.47E-07,  avg # of iterations =  2.5

     negative rho (up, down):  0.000E+00 2.182E-04

     total cpu time spent up to now is      101.7 secs

     total energy              =    -111.88176633 Ry
     estimated scf accuracy    <       0.00688251 Ry

     total magnetization       =     8.01 Bohr mag/cell
     absolute magnetization    =     8.02 Bohr mag/cell

     iteration # 50     ecut=    30.00 Ry     beta= 0.50
     Davidson diagonalization with overlap
     ethr =  6.47E-07,  avg # of iterations =  3.0

     total cpu time spent up to now is      102.5 secs

     total energy              =    -111.88176701 Ry
     estimated scf accuracy    <       0.00761094 Ry

     total magnetization       =     8.00 Bohr mag/cell
     absolute magnetization    =     8.01 Bohr mag/cell

     iteration # 51     ecut=    30.00 Ry     beta= 0.50
     Davidson diagonalization with overlap
     ethr =  6.47E-07,  avg # of iterations =  2.0

     negative rho (up, down):  0.000E+00 1.559E-06

     total cpu time spent up to now is      103.2 secs

     total energy              =    -111.88185381 Ry
     estimated scf accuracy    <       0.00036637 Ry

     total magnetization       =     8.00 Bohr mag/cell
     absolute magnetization    =     8.01 Bohr mag/cell

     iteration # 52     ecut=    30.00 Ry     beta= 0.50
     Davidson diagonalization with overlap
     ethr =  6.47E-07,  avg # of iterations =  1.0

     negative rho (up, down):  0.000E+00 3.043E-05

     total cpu time spent up to now is      103.9 secs

     total energy              =    -111.88188139 Ry
     estimated scf accuracy    <       0.00016391 Ry

     total magnetization       =     8.00 Bohr mag/cell
     absolute magnetization    =     8.01 Bohr mag/cell

     iteration # 53     ecut=    30.00 Ry     beta= 0.50
     Davidson diagonalization with overlap
     ethr =  6.47E-07,  avg # of iterations =  1.0

     negative rho (up, down):  0.000E+00 7.070E-05

     total cpu time spent up to now is      104.1 secs

     total energy              =    -111.88188769 Ry
     estimated scf accuracy    <       0.00008463 Ry

     total magnetization       =     8.00 Bohr mag/cell
     absolute magnetization    =     8.01 Bohr mag/cell

     iteration # 54     ecut=    30.00 Ry     beta= 0.50
     Davidson diagonalization with overlap
     ethr =  5.29E-07,  avg # of iterations =  1.0

     negative rho (up, down):  0.000E+00 6.337E-05

     total cpu time spent up to now is      104.4 secs

     total energy              =    -111.88188860 Ry
     estimated scf accuracy    <       0.00001058 Ry

     total magnetization       =     8.00 Bohr mag/cell
     absolute magnetization    =     8.01 Bohr mag/cell

     iteration # 55     ecut=    30.00 Ry     beta= 0.50
     Davidson diagonalization with overlap
     ethr =  6.61E-08,  avg # of iterations =  1.0

     negative rho (up, down):  0.000E+00 5.689E-05

     total cpu time spent up to now is      104.9 secs

     total energy              =    -111.88188957 Ry
     estimated scf accuracy    <       0.00000832 Ry

     total magnetization       =     8.00 Bohr mag/cell
     absolute magnetization    =     8.01 Bohr mag/cell

     iteration # 56     ecut=    30.00 Ry     beta= 0.50
     Davidson diagonalization with overlap
     ethr =  5.20E-08,  avg # of iterations =  1.0

     negative rho (up, down):  0.000E+00 4.572E-05

     total cpu time spent up to now is      105.3 secs

     total energy              =    -111.88189015 Ry
     estimated scf accuracy    <       0.00000238 Ry

     total magnetization       =     8.00 Bohr mag/cell
     absolute magnetization    =     8.01 Bohr mag/cell

     iteration # 57     ecut=    30.00 Ry     beta= 0.50
     Davidson diagonalization with overlap
     ethr =  1.49E-08,  avg # of iterations =  1.5

     negative rho (up, down):  0.000E+00 4.668E-05

     total cpu time spent up to now is      105.7 secs

     total energy              =    -111.88189012 Ry
     estimated scf accuracy    <       0.00000080 Ry

     total magnetization       =     8.00 Bohr mag/cell
     absolute magnetization    =     8.01 Bohr mag/cell

     iteration # 58     ecut=    30.00 Ry     beta= 0.50
     Davidson diagonalization with overlap
     ethr =  5.03E-09,  avg # of iterations =  1.0

     negative rho (up, down):  0.000E+00 4.652E-05

     total cpu time spent up to now is      108.1 secs

     total energy              =    -111.88189014 Ry
     estimated scf accuracy    <       0.00000031 Ry

     total magnetization       =     8.00 Bohr mag/cell
     absolute magnetization    =     8.01 Bohr mag/cell

     iteration # 59     ecut=    30.00 Ry     beta= 0.50
     Davidson diagonalization with overlap
     ethr =  1.92E-09,  avg # of iterations =  1.5

     negative rho (up, down):  0.000E+00 4.655E-05

     total cpu time spent up to now is      108.9 secs

     total energy              =    -111.88189016 Ry
     estimated scf accuracy    <          9.5E-09 Ry

     total magnetization       =     8.00 Bohr mag/cell
     absolute magnetization    =     8.01 Bohr mag/cell

     iteration # 60     ecut=    30.00 Ry     beta= 0.50
     Davidson diagonalization with overlap
     ethr =  5.94E-11,  avg # of iterations =  5.0

     negative rho (up, down):  0.000E+00 4.667E-05

     total cpu time spent up to now is      109.9 secs

     total energy              =    -111.88189018 Ry
     estimated scf accuracy    <          1.1E-09 Ry

     total magnetization       =     8.00 Bohr mag/cell
     absolute magnetization    =     8.01 Bohr mag/cell

     iteration # 61     ecut=    30.00 Ry     beta= 0.50
     Davidson diagonalization with overlap
     ethr =  6.96E-12,  avg # of iterations =  4.5

     negative rho (up, down):  0.000E+00 4.665E-05

     Magnetic moment per site  (integrated on atomic sphere of radius R)
     atom   1 (R=0.331)  charge=  5.5775  magn=  3.6829
     atom   2 (R=0.331)  charge=  5.5758  magn=  3.6877

     total cpu time spent up to now is      110.8 secs

     End of self-consistent calculation

 ------ SPIN UP ------------


          k = 0.0000 0.0000 0.0000 (   391 PWs)   bands (ev):

     5.0541   5.4444   8.0328   8.2552   8.3550   8.5407   8.5487  11.3839
    11.3905  11.4219  11.4416  12.0393

 ------ SPIN DOWN ----------


          k = 0.0000 0.0000 0.0000 (   391 PWs)   bands (ev):

     6.7008   7.5617   9.6685  12.6468  12.8721  12.8749  13.1286  13.1941
    15.1602  17.1733  17.1815  17.1913

     the Fermi energy is    12.7412 ev

!    total energy              =    -111.88189018 Ry
     estimated scf accuracy    <          4.8E-10 Ry
     smearing contrib. (-TS)   =      -0.00226572 Ry
     internal energy E=F+TS    =    -111.87962447 Ry

     The total energy is F=E-TS. E is the sum of the following terms:
     one-electron contribution =       6.82581883 Ry
     hartree contribution      =      16.53561365 Ry
     xc contribution           =     -53.56881464 Ry
     ewald contribution        =     -81.67224230 Ry

     total magnetization       =     8.00 Bohr mag/cell
     absolute magnetization    =     8.01 Bohr mag/cell

     convergence has been achieved in  61 iterations

     negative rho (up, down):  0.000E+00 4.665E-05

     Forces acting on atoms (cartesian axes, Ry/au):

     atom    1 type  1   force =     0.00000000    0.00001135    0.00000000
     atom    2 type  1   force =    -0.00000000   -0.00001135    0.00000000
     The non-local contrib.  to forces
     atom    1 type  1   force =    -0.00000000   -0.00001720    0.00000000
     atom    2 type  1   force =    -0.00000000   -0.00001099    0.00000000
     The ionic contribution  to forces
     atom    1 type  1   force =    -0.00000000   -0.00007305   -0.00004575
     atom    2 type  1   force =     0.00000000    0.00007305    0.00004575
     The local contribution  to forces
     atom    1 type  1   force =    -0.00000000    0.00008370   -0.00000000
     atom    2 type  1   force =    -0.00000000   -0.00008439    0.00014831
     The core correction contribution to forces
     atom    1 type  1   force =    -0.00000000    0.00001688   -0.00000000
     atom    2 type  1   force =    -0.00000000    0.00000919    0.00001860
     The Hubbard contrib.    to forces
     atom    1 type  1   force =     0.00000000    0.00000000    0.00000000
     atom    2 type  1   force =     0.00000000    0.00000000    0.00000000
     The SCF correction term to forces
     atom    1 type  1   force =     0.00000000   -0.00000104   -0.00000000
     atom    2 type  1   force =    -0.00000000   -0.00000026   -0.00000000

     Total force =     0.000016     Total SCF correction =     0.000001


     Computing stress (Cartesian axis) and pressure


     negative rho (up, down):  0.000E+00 4.665E-05
          total   stress  (Ry/bohr**3)                   (kbar)     P=     1644.51
   0.02270945   0.00000000   0.00000000         3340.68        0.00        0.00
   0.00000000   0.02308116   0.00000000            0.00     3395.36        0.00
   0.00000000   0.00000000  -0.01225326            0.00        0.00    -1802.52

     Energy error            =      4.6E-01 Ry
     Gradient error          =      1.1E-05 Ry/Bohr
     Cell gradient error     =      3.4E+03 kbar

     number of scf cycles    =   3
     number of bfgs steps    =   2

     enthalpy           old  =    -112.3464172508 Ry
     enthalpy           new  =    -111.8818901824 Ry

     CASE: enthalpy          _new > enthalpy          _old

     new trust radius        =       0.1093751385 bohr
     new conv_thr            =       0.0000000010 Ry

     new unit-cell volume =    166.36265 a.u.^3 (    24.65240 Ang^3 )
     density =      7.52323 g/cm^3

CELL_PARAMETERS (angstrom)
   2.354394610   0.000000000   0.000000000
  -1.177197305   2.038522769   0.000000000
   0.000000000   0.000000000   5.136465982

ATOMIC_POSITIONS (angstrom)
Fe            0.0000000000        0.0000115489        0.0000000000
Fe            0.0000000000        1.3590077049        2.5682311639



     Writing config-only to output data dir /home/gridsan/epan1/labutil/lab3_samples/problem1/Lab3/Fe_hcp_a_2.5_ecut_30_nk_1/pwscf.save/
     NEW-OLD atomic charge density approx. for the potential

     Check: negative core charge=   -0.000016
     extrapolated charge   18.49001, renormalised to   16.00000
     Generating pointlists ...

     total cpu time spent up to now is      112.8 secs

     Self-consistent Calculation

     iteration #  1     ecut=    30.00 Ry     beta= 0.50
     Davidson diagonalization with overlap
     ethr =  1.00E-06,  avg # of iterations = 11.0

     total cpu time spent up to now is      113.6 secs

     total energy              =    -111.75929629 Ry
     estimated scf accuracy    <       0.56867336 Ry

     total magnetization       =     8.00 Bohr mag/cell
     absolute magnetization    =     8.01 Bohr mag/cell

     iteration #  2     ecut=    30.00 Ry     beta= 0.50
     Davidson diagonalization with overlap
     ethr =  3.55E-03,  avg # of iterations =  4.0

     total cpu time spent up to now is      113.8 secs

     total energy              =    -112.27158418 Ry
     estimated scf accuracy    <       1.87618042 Ry

     total magnetization       =     6.00 Bohr mag/cell
     absolute magnetization    =     6.04 Bohr mag/cell

     iteration #  3     ecut=    30.00 Ry     beta= 0.50
     Davidson diagonalization with overlap
     ethr =  3.55E-03,  avg # of iterations =  1.5

     total cpu time spent up to now is      114.3 secs

     total energy              =    -112.39825783 Ry
     estimated scf accuracy    <       0.09891837 Ry

     total magnetization       =     8.00 Bohr mag/cell
     absolute magnetization    =     8.03 Bohr mag/cell

     iteration #  4     ecut=    30.00 Ry     beta= 0.50
     Davidson diagonalization with overlap
     ethr =  6.18E-04,  avg # of iterations =  1.5

     total cpu time spent up to now is      114.9 secs

     total energy              =    -112.40001808 Ry
     estimated scf accuracy    <       0.06836916 Ry

     total magnetization       =     8.00 Bohr mag/cell
     absolute magnetization    =     8.05 Bohr mag/cell

     iteration #  5     ecut=    30.00 Ry     beta= 0.50
     Davidson diagonalization with overlap
     ethr =  4.27E-04,  avg # of iterations =  1.0

     total cpu time spent up to now is      115.3 secs

     total energy              =    -112.39081050 Ry
     estimated scf accuracy    <       0.06637739 Ry

     total magnetization       =     8.00 Bohr mag/cell
     absolute magnetization    =     8.04 Bohr mag/cell

     iteration #  6     ecut=    30.00 Ry     beta= 0.50
     Davidson diagonalization with overlap
     ethr =  4.15E-04,  avg # of iterations =  1.5

     total cpu time spent up to now is      115.5 secs

     total energy              =    -112.39055435 Ry
     estimated scf accuracy    <       0.06234417 Ry

     total magnetization       =     8.03 Bohr mag/cell
     absolute magnetization    =     8.05 Bohr mag/cell

     iteration #  7     ecut=    30.00 Ry     beta= 0.50
     Davidson diagonalization with overlap
     ethr =  3.90E-04,  avg # of iterations =  1.0

     negative rho (up, down):  0.000E+00 1.931E-04

     total cpu time spent up to now is      116.3 secs

[...]
     Exchange-correlation=  SLA  PW   PBE  PBE
                           (   1   4   3   4   0   0   0)

     celldm(1)=   4.724315  celldm(2)=   0.000000  celldm(3)=   0.000000
     celldm(4)=   0.000000  celldm(5)=   0.000000  celldm(6)=   0.000000

     crystal axes: (cart. coord. in units of alat)
               a(1) = (   0.935701  -0.000000   0.000000 )  
               a(2) = (  -0.467851   0.797255   0.000000 )  
               a(3) = (   0.000000   0.000000   2.080817 )  

     reciprocal axes: (cart. coord. in units 2 pi/alat)
               b(1) = (  1.068717  0.627152 -0.000000 )  
               b(2) = (  0.000000  1.254304 -0.000000 )  
               b(3) = ( -0.000000 -0.000000  0.480580 )  


     PseudoPot. # 1 for Fe read from file:
     /home/gridsan/epan1/labutil/lab3_samples/pseudopotentials/Fe.pbe-nd-rrkjus.UPF
     MD5 check sum: 398036227a04b607635f6f5e8dfd8242
     Pseudo is Ultrasoft + core correction, Zval =  8.0
     Generated by new atomic code, or converted to UPF format
     Using radial grid of  957 points,  6 beta functions with: 
                l(1) =   0
                l(2) =   0
                l(3) =   1
                l(4) =   1
                l(5) =   2
                l(6) =   2
     Q(r) pseudized with 0 coefficients 


     atomic species   valence    mass     pseudopotential
        Fe             8.00    55.84500     Fe( 1.00)

     Starting magnetic structure 
     atomic species   magnetization
        Fe           0.700

      4 Sym. Ops. (no inversion) found



   Cartesian axes

     site n.     atom                  positions (alat units)
         1           Fe  tau(   1) = (   0.0000000  -0.0002179   0.0000000  )
         2           Fe  tau(   2) = (   0.0000000   0.5317228   1.0404077  )

     number of k points=     1  Methfessel-Paxton smearing, width (Ry)=  0.0200
                       cart. coord. in units 2pi/alat
        k(    1) = (   0.0000000   0.0000000   0.0000000), wk =   1.0000000

     Dense  grid:    10305 G-vectors     FFT dimensions: (  24,  24,  50)

     Smooth grid:     3649 G-vectors     FFT dimensions: (  15,  15,  36)

     Estimated max dynamical RAM per process >       7.90 MB

     Estimated total dynamical RAM >      63.16 MB
     Generating pointlists ...

     Initial potential from superposition of free atoms

     starting charge      15.9987, renormalised to      16.0000
     Starting wfcs are   12 randomized atomic wfcs

     total cpu time spent up to now is      230.2 secs

     Self-consistent Calculation

     iteration #  1     ecut=    30.00 Ry     beta= 0.50
     Davidson diagonalization with overlap
     ethr =  1.00E-06,  avg # of iterations = 17.5

     total cpu time spent up to now is      231.9 secs

     total energy              =    -112.19085013 Ry
     estimated scf accuracy    <       0.98200130 Ry

     total magnetization       =     8.00 Bohr mag/cell
     absolute magnetization    =     8.00 Bohr mag/cell

     iteration #  2     ecut=    30.00 Ry     beta= 0.50
     Davidson diagonalization with overlap
     ethr =  6.14E-03,  avg # of iterations =  2.5

     total cpu time spent up to now is      232.8 secs

     total energy              =    -112.38182687 Ry
     estimated scf accuracy    <       0.04128979 Ry

     total magnetization       =     8.00 Bohr mag/cell
     absolute magnetization    =     8.03 Bohr mag/cell

     iteration #  3     ecut=    30.00 Ry     beta= 0.50
     Davidson diagonalization with overlap
     ethr =  2.58E-04,  avg # of iterations =  3.0

     total cpu time spent up to now is      233.3 secs

     total energy              =    -112.38100002 Ry
     estimated scf accuracy    <       0.06222443 Ry

     total magnetization       =     8.00 Bohr mag/cell
     absolute magnetization    =     8.01 Bohr mag/cell

     iteration #  4     ecut=    30.00 Ry     beta= 0.50
     Davidson diagonalization with overlap
     ethr =  2.58E-04,  avg # of iterations =  1.0

     total cpu time spent up to now is      234.0 secs

     total energy              =    -112.41036557 Ry
     estimated scf accuracy    <       0.02295824 Ry

     total magnetization       =     8.00 Bohr mag/cell
     absolute magnetization    =     8.06 Bohr mag/cell

     iteration #  5     ecut=    30.00 Ry     beta= 0.50
     Davidson diagonalization with overlap
     ethr =  1.43E-04,  avg # of iterations =  2.0

     total cpu time spent up to now is      234.4 secs

     total energy              =    -112.40522000 Ry
     estimated scf accuracy    <       0.02648713 Ry

     total magnetization       =     8.00 Bohr mag/cell
     absolute magnetization    =     8.06 Bohr mag/cell

     iteration #  6     ecut=    30.00 Ry     beta= 0.50
     Davidson diagonalization with overlap
     ethr =  1.43E-04,  avg # of iterations =  1.0

     total cpu time spent up to now is      235.6 secs

     total energy              =    -112.40404140 Ry
     estimated scf accuracy    <       0.01394586 Ry

     total magnetization       =     8.00 Bohr mag/cell
     absolute magnetization    =     8.07 Bohr mag/cell

     iteration #  7     ecut=    30.00 Ry     beta= 0.50
     Davidson diagonalization with overlap
     ethr =  8.72E-05,  avg # of iterations =  1.0

     total cpu time spent up to now is      236.4 secs

     total energy              =    -112.40498518 Ry
     estimated scf accuracy    <       0.01022986 Ry

     total magnetization       =     8.00 Bohr mag/cell
     absolute magnetization    =     8.07 Bohr mag/cell

     iteration #  8     ecut=    30.00 Ry     beta= 0.50
     Davidson diagonalization with overlap
     ethr =  6.39E-05,  avg # of iterations =  1.0
     Minimization algorithm failed to find Fermi energy: reverting to bisection
     Possible cause: smearing is larger than the electronic band-gap.

     total cpu time spent up to now is      236.8 secs

     total energy              =    -112.40494679 Ry
     estimated scf accuracy    <       0.01196191 Ry

     total magnetization       =     8.00 Bohr mag/cell
     absolute magnetization    =     8.07 Bohr mag/cell

     iteration #  9     ecut=    30.00 Ry     beta= 0.50
     Davidson diagonalization with overlap
     ethr =  6.39E-05,  avg # of iterations =  1.0

     total cpu time spent up to now is      237.1 secs

     total energy              =    -112.40484046 Ry
     estimated scf accuracy    <       0.01114078 Ry

     total magnetization       =     8.00 Bohr mag/cell
     absolute magnetization    =     8.07 Bohr mag/cell

     iteration # 10     ecut=    30.00 Ry     beta= 0.50
     Davidson diagonalization with overlap
     ethr =  6.39E-05,  avg # of iterations =  1.0

     total cpu time spent up to now is      237.5 secs

     total energy              =    -112.40446588 Ry
     estimated scf accuracy    <       0.01159470 Ry

     total magnetization       =     8.00 Bohr mag/cell
     absolute magnetization    =     8.07 Bohr mag/cell

     iteration # 11     ecut=    30.00 Ry     beta= 0.50
     Davidson diagonalization with overlap
     ethr =  6.39E-05,  avg # of iterations =  1.0

     total cpu time spent up to now is      238.0 secs

     total energy              =    -112.40262705 Ry
     estimated scf accuracy    <       0.01034497 Ry

     total magnetization       =     8.00 Bohr mag/cell
     absolute magnetization    =     8.07 Bohr mag/cell

     iteration # 12     ecut=    30.00 Ry     beta= 0.50
     Davidson diagonalization with overlap
     ethr =  6.39E-05,  avg # of iterations =  1.0

     total cpu time spent up to now is      238.4 secs

     total energy              =    -112.40249741 Ry
     estimated scf accuracy    <       0.00233539 Ry

     total magnetization       =     8.00 Bohr mag/cell
     absolute magnetization    =     8.06 Bohr mag/cell

     iteration # 13     ecut=    30.00 Ry     beta= 0.50
     Davidson diagonalization with overlap
     ethr =  1.46E-05,  avg # of iterations =  1.5

     total cpu time spent up to now is      238.7 secs

     total energy              =    -112.40265252 Ry
     estimated scf accuracy    <       0.00166964 Ry

     total magnetization       =     8.01 Bohr mag/cell
     absolute magnetization    =     8.03 Bohr mag/cell

     iteration # 14     ecut=    30.00 Ry     beta= 0.50
     Davidson diagonalization with overlap
     ethr =  1.04E-05,  avg # of iterations =  1.0

     total cpu time spent up to now is      238.9 secs

     total energy              =    -112.40289019 Ry
     estimated scf accuracy    <       0.00063122 Ry

     total magnetization       =     8.01 Bohr mag/cell
     absolute magnetization    =     8.04 Bohr mag/cell

     iteration # 15     ecut=    30.00 Ry     beta= 0.50
     Davidson diagonalization with overlap
     ethr =  3.95E-06,  avg # of iterations =  1.5

     total cpu time spent up to now is      239.9 secs

     total energy              =    -112.40300673 Ry
     estimated scf accuracy    <       0.00100032 Ry

     total magnetization       =     8.00 Bohr mag/cell
     absolute magnetization    =     8.04 Bohr mag/cell

     iteration # 16     ecut=    30.00 Ry     beta= 0.50
     Davidson diagonalization with overlap
     ethr =  3.95E-06,  avg # of iterations =  2.0

     total cpu time spent up to now is      241.4 secs

     total energy              =    -112.40295235 Ry
     estimated scf accuracy    <       0.00417245 Ry

     total magnetization       =     8.01 Bohr mag/cell
     absolute magnetization    =     8.04 Bohr mag/cell

     iteration # 17     ecut=    30.00 Ry     beta= 0.50
     Davidson diagonalization with overlap
     ethr =  3.95E-06,  avg # of iterations =  1.0

     total cpu time spent up to now is      241.7 secs

     total energy              =    -112.40291201 Ry
     estimated scf accuracy    <       0.00235664 Ry

     total magnetization       =     8.00 Bohr mag/cell
     absolute magnetization    =     8.04 Bohr mag/cell

     iteration # 18     ecut=    30.00 Ry     beta= 0.50
     Davidson diagonalization with overlap
     ethr =  3.95E-06,  avg # of iterations =  1.0

     total cpu time spent up to now is      242.1 secs

     total energy              =    -112.40287497 Ry
     estimated scf accuracy    <       0.00149226 Ry

     total magnetization       =     8.00 Bohr mag/cell
     absolute magnetization    =     8.05 Bohr mag/cell

     iteration # 19     ecut=    30.00 Ry     beta= 0.50
     Davidson diagonalization with overlap
     ethr =  3.95E-06,  avg # of iterations =  1.5

     total cpu time spent up to now is      243.9 secs

     total energy              =    -112.40285618 Ry
     estimated scf accuracy    <       0.00078638 Ry

     total magnetization       =     8.00 Bohr mag/cell
     absolute magnetization    =     8.05 Bohr mag/cell

     iteration # 20     ecut=    30.00 Ry     beta= 0.50
     Davidson diagonalization with overlap
     ethr =  3.95E-06,  avg # of iterations =  1.0

     total cpu time spent up to now is      244.4 secs

     total energy              =    -112.40282746 Ry
     estimated scf accuracy    <       0.00034666 Ry

     total magnetization       =     8.01 Bohr mag/cell
     absolute magnetization    =     8.05 Bohr mag/cell

     iteration # 21     ecut=    30.00 Ry     beta= 0.50
     Davidson diagonalization with overlap
     ethr =  2.17E-06,  avg # of iterations =  1.0

     total cpu time spent up to now is      244.9 secs

     total energy              =    -112.40284044 Ry
     estimated scf accuracy    <       0.00003076 Ry

     total magnetization       =     8.01 Bohr mag/cell
     absolute magnetization    =     8.04 Bohr mag/cell

     iteration # 22     ecut=    30.00 Ry     beta= 0.50
     Davidson diagonalization with overlap
     ethr =  1.92E-07,  avg # of iterations =  3.0

     total cpu time spent up to now is      246.4 secs

     total energy              =    -112.40284500 Ry
     estimated scf accuracy    <       0.00000233 Ry

     total magnetization       =     8.01 Bohr mag/cell
     absolute magnetization    =     8.04 Bohr mag/cell

     iteration # 23     ecut=    30.00 Ry     beta= 0.50
     Davidson diagonalization with overlap
     ethr =  1.46E-08,  avg # of iterations =  5.0

     total cpu time spent up to now is      247.0 secs

     total energy              =    -112.40284588 Ry
     estimated scf accuracy    <       0.00000028 Ry

     total magnetization       =     8.01 Bohr mag/cell
     absolute magnetization    =     8.04 Bohr mag/cell

     iteration # 24     ecut=    30.00 Ry     beta= 0.50
     Davidson diagonalization with overlap
     ethr =  1.72E-09,  avg # of iterations =  3.5

     total cpu time spent up to now is      247.4 secs

     total energy              =    -112.40284604 Ry
     estimated scf accuracy    <       0.00000007 Ry

     total magnetization       =     8.01 Bohr mag/cell
     absolute magnetization    =     8.04 Bohr mag/cell

     iteration # 25     ecut=    30.00 Ry     beta= 0.50
     Davidson diagonalization with overlap
     ethr =  4.28E-10,  avg # of iterations =  5.5

     total cpu time spent up to now is      248.5 secs

     total energy              =    -112.40284608 Ry
     estimated scf accuracy    <       0.00000039 Ry

     total magnetization       =     8.01 Bohr mag/cell
     absolute magnetization    =     8.04 Bohr mag/cell

     iteration # 26     ecut=    30.00 Ry     beta= 0.50
     Davidson diagonalization with overlap
     ethr =  4.28E-10,  avg # of iterations =  1.5

     total cpu time spent up to now is      249.0 secs

     total energy              =    -112.40284609 Ry
     estimated scf accuracy    <       0.00000004 Ry

     total magnetization       =     8.01 Bohr mag/cell
     absolute magnetization    =     8.04 Bohr mag/cell

     iteration # 27     ecut=    30.00 Ry     beta= 0.50
     Davidson diagonalization with overlap
     ethr =  2.65E-10,  avg # of iterations =  2.0

     total cpu time spent up to now is      249.5 secs

     total energy              =    -112.40284610 Ry
     estimated scf accuracy    <          3.3E-09 Ry

     total magnetization       =     8.01 Bohr mag/cell
     absolute magnetization    =     8.04 Bohr mag/cell

     iteration # 28     ecut=    30.00 Ry     beta= 0.50
     Davidson diagonalization with overlap
     ethr =  2.08E-11,  avg # of iterations =  4.5

     Magnetic moment per site  (integrated on atomic sphere of radius R)
     atom   1 (R=0.331)  charge=  5.2367  magn=  3.6737
     atom   2 (R=0.331)  charge=  5.2367  magn=  3.6738

     total cpu time spent up to now is      250.5 secs

     End of self-consistent calculation

 ------ SPIN UP ------------


          k = 0.0000 0.0000 0.0000 (   461 PWs)   bands (ev):

     3.8234   5.0540   6.7769   6.8227   6.9134   6.9356   6.9793   8.3521
     8.4019   8.5285   8.5737  10.5697

 ------ SPIN DOWN ----------


          k = 0.0000 0.0000 0.0000 (   461 PWs)   bands (ev):

     4.7535   7.0476   9.1541  10.9645  11.3302  11.3971  11.6530  11.7159
    13.8773  13.9447  14.1259  14.1864

     the Fermi energy is    11.1561 ev

!    total energy              =    -112.40284610 Ry
     estimated scf accuracy    <          7.3E-10 Ry
     smearing contrib. (-TS)   =       0.00147763 Ry
     internal energy E=F+TS    =    -112.40432373 Ry

     The total energy is F=E-TS. E is the sum of the following terms:
     one-electron contribution =      10.68062927 Ry
     hartree contribution      =      13.18254965 Ry
     xc contribution           =     -52.78870491 Ry
     ewald contribution        =     -83.47879774 Ry

     total magnetization       =     8.01 Bohr mag/cell
     absolute magnetization    =     8.04 Bohr mag/cell

     convergence has been achieved in  28 iterations

     Forces acting on atoms (cartesian axes, Ry/au):

     atom    1 type  1   force =    -0.00000000   -0.00039095    0.00000000
     atom    2 type  1   force =     0.00000000    0.00039095    0.00000000
     The non-local contrib.  to forces
     atom    1 type  1   force =    -0.00000000   -0.00182758    0.00000000
     atom    2 type  1   force =     0.00000000    0.00183031    0.00000000
     The ionic contribution  to forces
     atom    1 type  1   force =    -0.00000000   -0.00526737   -0.00003388
     atom    2 type  1   force =    -0.00000000    0.00526737    0.00003388
     The local contribution  to forces
     atom    1 type  1   force =    -0.00000000    0.00639132   -0.00000000
     atom    2 type  1   force =    -0.00000000   -0.00639592    0.00010710
     The core correction contribution to forces
     atom    1 type  1   force =     0.00000000    0.00031374    0.00000000
     atom    2 type  1   force =     0.00000000   -0.00031450    0.00001501
     The Hubbard contrib.    to forces
     atom    1 type  1   force =     0.00000000    0.00000000    0.00000000
     atom    2 type  1   force =     0.00000000    0.00000000    0.00000000
     The SCF correction term to forces
     atom    1 type  1   force =     0.00000000    0.00000172   -0.00000000
     atom    2 type  1   force =    -0.00000000    0.00000647    0.00000000

     Total force =     0.000553     Total SCF correction =     0.000007


     Computing stress (Cartesian axis) and pressure

          total   stress  (Ry/bohr**3)                   (kbar)     P=       35.45
   0.00001081  -0.00000000   0.00000000            1.59       -0.00        0.00
   0.00000000   0.00008054   0.00000000            0.00       11.85        0.00
   0.00000000   0.00000000   0.00063162            0.00        0.00       92.91


     init_run     :      1.35s CPU      2.83s WALL (       2 calls)
     electrons    :    125.27s CPU    224.72s WALL (      12 calls)
     update_pot   :      2.42s CPU      4.82s WALL (      10 calls)
     forces       :      2.46s CPU      5.13s WALL (      12 calls)
     stress       :      4.52s CPU      9.21s WALL (      12 calls)

     Called by init_run:
     wfcinit      :      0.19s CPU      0.40s WALL (       2 calls)
     potinit      :      0.35s CPU      0.70s WALL (       2 calls)
     hinit0       :      0.62s CPU      1.27s WALL (       2 calls)

     Called by electrons:
     c_bands      :     56.20s CPU    101.26s WALL (     310 calls)
     sum_band     :     21.06s CPU     35.95s WALL (     310 calls)
     v_of_rho     :     16.31s CPU     28.42s WALL (     320 calls)
     newd         :      7.56s CPU     13.98s WALL (     320 calls)
     mix_rho      :     16.94s CPU     30.52s WALL (     310 calls)

     Called by c_bands:
     init_us_2    :      0.04s CPU      0.05s WALL (    1292 calls)
     init_us_2:cp :      0.04s CPU      0.05s WALL (    1292 calls)
     cegterg      :     47.03s CPU     85.17s WALL (     620 calls)

     Called by *egterg:
     cdiaghg      :      3.34s CPU     10.02s WALL (    2075 calls)
     h_psi        :     29.66s CPU     51.87s WALL (    2103 calls)
     s_psi        :      0.05s CPU      0.08s WALL (    2103 calls)
     g_psi        :      0.01s CPU      0.03s WALL (    1479 calls)

     Called by h_psi:
     h_psi:calbec :      2.67s CPU      4.71s WALL (    2103 calls)
     vloc_psi     :     26.91s CPU     46.97s WALL (    2103 calls)
     add_vuspsi   :      0.06s CPU      0.07s WALL (    2103 calls)

     General routines
     calbec       :      4.26s CPU      7.67s WALL (    2843 calls)
     fft          :     15.75s CPU     28.46s WALL (    8470 calls)
     ffts         :      1.43s CPU      2.59s WALL (    1260 calls)
     fftw         :     35.46s CPU     60.91s WALL (   45488 calls)
     interpolate  :      1.71s CPU      3.01s WALL (     640 calls)

     Parallel routines

     PWSCF        :   2m18.30s CPU   4m11.82s WALL


   This run was terminated on:  17: 6:54   1Nov2023            

=------------------------------------------------------------------------------=
   JOB DONE.
=------------------------------------------------------------------------------=
