Header of the LAMMPS data file 

4 atoms 
1 atom types

0.0 4.027272727272727  xlo xhi
0.0 4.027272727272727  ylo yhi
0.0 4.027272727272727  zlo zhi

Masses 

1  107.8682

Atoms # atomic 

1 1 0.00000 0.00000 0.00000 
2 1 0.00000 2.01364 2.01364 
3 1 2.01364 0.00000 2.01364 
4 1 2.01364 2.01364 0.00000 
