
     Program PWSCF v.7.2 starts on  3Nov2023 at 11: 9:18 

     This program is part of the open-source Quantum ESPRESSO suite
     for quantum simulation of materials; please cite
         "P. Giannozzi et al., J. Phys.:Condens. Matter 21 395502 (2009);
         "P. Giannozzi et al., J. Phys.:Condens. Matter 29 465901 (2017);
         "P. Giannozzi et al., J. Chem. Phys. 152 154105 (2020);
          URL http://www.quantum-espresso.org", 
     in publications or presentations arising from this work. More details at
     http://www.quantum-espresso.org/quote

     Parallel version (MPI), running on     8 processors

     MPI processes distributed on     8 nodes
     185422 MiB available memory on the printing compute node when the environment starts

     Waiting for input...
     Reading input from standard input

     Current dimensions of program PWSCF are:
     Max number of different atomic species (ntypx) = 10
     Max number of k-points (npk) =  40000
     Max angular momentum in pseudopotentials (lmaxx) =  4
     Message from routine setup:
     using ibrav=0 with symmetry is DISCOURAGED, use correct ibrav instead

     R & G space division:  proc/nbgrp/npool/nimage =       8
     Subspace diagonalization in iterative solution of the eigenvalue problem:
     a serial algorithm will be used


     Parallelization info
     --------------------
     sticks:   dense  smooth     PW     G-vecs:    dense   smooth      PW
     Min          79      39     13                 1301      461      90
     Max          80      40     14                 1303      463      91
     Sum         637     313    109                10417     3695     725

     Using Slab Decomposition



     bravais-lattice index     =            0
     lattice parameter (alat)  =       5.3450  a.u.
     unit-cell volume          =     107.9734 (a.u.)^3
     number of atoms/cell      =            1
     number of atomic types    =            1
     number of electrons       =        11.00
     number of Kohn-Sham states=           10
     kinetic-energy cutoff     =      40.0000  Ry
     charge density cutoff     =     320.0000  Ry
     scf convergence threshold =      1.0E-07
     mixing beta               =       0.5000
     number of iterations used =            8  plain     mixing
     energy convergence thresh.=      1.0E-04
     force convergence thresh. =      1.0E-03
     press convergence thresh. =      5.0E-01
     Exchange-correlation=  SLA  PZ   NOGX NOGC
                           (   1   1   0   0   0   0   0)
     nstep                     =           50


     celldm(1)=   5.344953  celldm(2)=   0.000000  celldm(3)=   0.000000
     celldm(4)=   0.000000  celldm(5)=   0.000000  celldm(6)=   0.000000

     crystal axes: (cart. coord. in units of alat)
               a(1) = (   0.000000   0.707107   0.707107 )  
               a(2) = (   0.707107   0.000000   0.707107 )  
               a(3) = (   0.707107   0.707107   0.000000 )  

     reciprocal axes: (cart. coord. in units 2 pi/alat)
               b(1) = ( -0.707107  0.707107  0.707107 )  
               b(2) = (  0.707107 -0.707107  0.707107 )  
               b(3) = (  0.707107  0.707107 -0.707107 )  


     PseudoPot. # 1 for Au read from file:
     /home/gridsan/epan1/labutil/lab3_samples/pseudopotentials/Au.pz-d-rrkjus.UPF
     MD5 check sum: 424ffd4ac9c90487cbadcd287136c95b
     Pseudo is Ultrasoft, Zval = 11.0
     Generated by new atomic code, or converted to UPF format
     Using radial grid of 1279 points,  3 beta functions with: 
                l(1) =   2
                l(2) =   2
                l(3) =   1
     Q(r) pseudized with 0 coefficients 


     atomic species   valence    mass     pseudopotential
        Au            11.00   196.96657     Au( 1.00)

     Starting magnetic structure 
     atomic species   magnetization
        Au           0.700

     48 Sym. Ops., with inversion, found



   Cartesian axes

     site n.     atom                  positions (alat units)
         1           Au  tau(   1) = (   0.0000000   0.0000000   0.0000000  )

     number of k points=    84  Methfessel-Paxton smearing, width (Ry)=  0.0200
                       cart. coord. in units 2pi/alat
        k(    1) = (   0.0000000   0.0000000   0.0000000), wk =   0.0004552
        k(    2) = (   0.0543928   0.0543928  -0.0543928), wk =   0.0036413
        k(    3) = (   0.1087857   0.1087857  -0.1087857), wk =   0.0036413
        k(    4) = (   0.1631785   0.1631785  -0.1631785), wk =   0.0036413
        k(    5) = (   0.2175713   0.2175713  -0.2175713), wk =   0.0036413
        k(    6) = (   0.2719641   0.2719641  -0.2719641), wk =   0.0036413
        k(    7) = (   0.3263570   0.3263570  -0.3263570), wk =   0.0036413
        k(    8) = (   0.1087857   0.0000000   0.0000000), wk =   0.0027310
        k(    9) = (   0.1631785   0.0543928  -0.0543928), wk =   0.0109240
        k(   10) = (   0.2175713   0.1087857  -0.1087857), wk =   0.0109240
        k(   11) = (   0.2719641   0.1631785  -0.1631785), wk =   0.0109240
        k(   12) = (   0.3263570   0.2175713  -0.2175713), wk =   0.0109240
        k(   13) = (   0.3807498   0.2719641  -0.2719641), wk =   0.0109240
        k(   14) = (  -0.2719641  -0.3807498   0.3807498), wk =   0.0109240
        k(   15) = (  -0.2175713  -0.3263570   0.3263570), wk =   0.0109240
        k(   16) = (  -0.1631785  -0.2719641   0.2719641), wk =   0.0109240
        k(   17) = (  -0.1087857  -0.2175713   0.2175713), wk =   0.0109240
        k(   18) = (  -0.0543928  -0.1631785   0.1631785), wk =   0.0109240
        k(   19) = (   0.0000000  -0.1087857   0.1087857), wk =   0.0054620
        k(   20) = (   0.2175713   0.0000000   0.0000000), wk =   0.0027310
        k(   21) = (   0.2719641   0.0543928  -0.0543928), wk =   0.0109240
        k(   22) = (   0.3263570   0.1087857  -0.1087857), wk =   0.0109240
        k(   23) = (   0.3807498   0.1631785  -0.1631785), wk =   0.0109240
        k(   24) = (   0.4351426   0.2175713  -0.2175713), wk =   0.0109240
        k(   25) = (  -0.2175713  -0.4351426   0.4351426), wk =   0.0109240
        k(   26) = (  -0.1631785  -0.3807498   0.3807498), wk =   0.0109240
        k(   27) = (  -0.1087857  -0.3263570   0.3263570), wk =   0.0109240
        k(   28) = (  -0.0543928  -0.2719641   0.2719641), wk =   0.0109240
        k(   29) = (   0.0000000  -0.2175713   0.2175713), wk =   0.0054620
        k(   30) = (   0.3263570   0.0000000   0.0000000), wk =   0.0027310
        k(   31) = (   0.3807498   0.0543928  -0.0543928), wk =   0.0109240
        k(   32) = (   0.4351426   0.1087857  -0.1087857), wk =   0.0109240
        k(   33) = (   0.4895355   0.1631785  -0.1631785), wk =   0.0109240
        k(   34) = (  -0.1631785  -0.4895355   0.4895355), wk =   0.0109240
        k(   35) = (  -0.1087857  -0.4351426   0.4351426), wk =   0.0109240
        k(   36) = (  -0.0543928  -0.3807498   0.3807498), wk =   0.0109240
        k(   37) = (   0.0000000  -0.3263570   0.3263570), wk =   0.0054620
        k(   38) = (   0.4351426   0.0000000   0.0000000), wk =   0.0027310
        k(   39) = (   0.4895355   0.0543928  -0.0543928), wk =   0.0109240
        k(   40) = (   0.5439283   0.1087857  -0.1087857), wk =   0.0109240
        k(   41) = (  -0.1087857  -0.5439283   0.5439283), wk =   0.0109240
        k(   42) = (  -0.0543928  -0.4895355   0.4895355), wk =   0.0109240
        k(   43) = (   0.0000000  -0.4351426   0.4351426), wk =   0.0054620
        k(   44) = (   0.5439283   0.0000000   0.0000000), wk =   0.0027310
        k(   45) = (   0.5983211   0.0543928  -0.0543928), wk =   0.0109240
        k(   46) = (  -0.0543928  -0.5983211   0.5983211), wk =   0.0109240
        k(   47) = (   0.0000000  -0.5439283   0.5439283), wk =   0.0054620
        k(   48) = (   0.6527140   0.0000000   0.0000000), wk =   0.0027310
        k(   49) = (   0.0000000  -0.6527140   0.6527140), wk =   0.0054620
        k(   50) = (   0.2175713   0.1087857   0.0000000), wk =   0.0109240
        k(   51) = (   0.2719641   0.1631785  -0.0543928), wk =   0.0218480
        k(   52) = (   0.3263570   0.2175713  -0.1087857), wk =   0.0218480
        k(   53) = (   0.3807498   0.2719641  -0.1631785), wk =   0.0218480
        k(   54) = (  -0.2719641  -0.3807498   0.4895355), wk =   0.0218480
        k(   55) = (   0.3263570   0.1087857   0.0000000), wk =   0.0109240
        k(   56) = (   0.3807498   0.1631785  -0.0543928), wk =   0.0218480
        k(   57) = (   0.4351426   0.2175713  -0.1087857), wk =   0.0218480
        k(   58) = (  -0.2175713  -0.4351426   0.5439283), wk =   0.0218480
        k(   59) = (  -0.1631785  -0.3807498   0.4895355), wk =   0.0218480
        k(   60) = (  -0.1087857  -0.3263570   0.4351426), wk =   0.0218480
        k(   61) = (  -0.0543928  -0.2719641   0.3807498), wk =   0.0218480
        k(   62) = (   0.0000000  -0.2175713   0.3263570), wk =   0.0109240
        k(   63) = (   0.4351426   0.1087857   0.0000000), wk =   0.0109240
        k(   64) = (   0.4895355   0.1631785  -0.0543928), wk =   0.0218480
        k(   65) = (  -0.1631785  -0.4895355   0.5983211), wk =   0.0218480
        k(   66) = (  -0.1087857  -0.4351426   0.5439283), wk =   0.0218480
        k(   67) = (  -0.0543928  -0.3807498   0.4895355), wk =   0.0218480
        k(   68) = (   0.0000000  -0.3263570   0.4351426), wk =   0.0109240
        k(   69) = (   0.5439283   0.1087857   0.0000000), wk =   0.0109240
        k(   70) = (  -0.1087857  -0.5439283   0.6527140), wk =   0.0218480
        k(   71) = (  -0.0543928  -0.4895355   0.5983211), wk =   0.0218480
        k(   72) = (   0.0000000  -0.4351426   0.5439283), wk =   0.0109240
        k(   73) = (  -0.0543928  -0.5983211   0.7071068), wk =   0.0109240
        k(   74) = (   0.0000000  -0.5439283   0.6527140), wk =   0.0109240
        k(   75) = (   0.4351426   0.2175713   0.0000000), wk =   0.0109240
        k(   76) = (  -0.2175713  -0.4351426   0.6527140), wk =   0.0218480
        k(   77) = (  -0.1631785  -0.3807498   0.5983211), wk =   0.0218480
        k(   78) = (  -0.1631785  -0.4895355   0.7071068), wk =   0.0109240
        k(   79) = (  -0.1087857  -0.4351426   0.6527140), wk =   0.0218480
        k(   80) = (  -0.0543928  -0.3807498   0.5983211), wk =   0.0218480
        k(   81) = (   0.0000000  -0.3263570   0.5439283), wk =   0.0109240
        k(   82) = (  -0.0543928  -0.4895355   0.7071068), wk =   0.0109240
        k(   83) = (   0.0000000  -0.4351426   0.6527140), wk =   0.0109240
        k(   84) = (  -0.0543928  -0.3807498   0.7071068), wk =   0.0109240

     Dense  grid:    10417 G-vectors     FFT dimensions: (  32,  32,  32)

     Smooth grid:     3695 G-vectors     FFT dimensions: (  24,  24,  24)

     Estimated max dynamical RAM per process >       6.11 MB

     Estimated total dynamical RAM >      48.86 MB
     Generating pointlists ...
     new r_m :   0.4125 (alat units)  2.2048 (a.u.) for type    1

     Initial potential from superposition of free atoms

     starting charge      10.9999, renormalised to      11.0000
     Starting wfcs are    9 randomized atomic wfcs +    1 random wfcs

     total cpu time spent up to now is        0.6 secs

     Self-consistent Calculation

     iteration #  1     ecut=    40.00 Ry     beta= 0.50
     Davidson diagonalization with overlap
     ethr =  1.00E-02,  avg # of iterations =  5.4

     total cpu time spent up to now is        1.6 secs

     total energy              =     -66.49635998 Ry
     estimated scf accuracy    <       0.46074532 Ry

     total magnetization       =     1.23 Bohr mag/cell
     absolute magnetization    =     1.29 Bohr mag/cell

     iteration #  2     ecut=    40.00 Ry     beta= 0.50
     Davidson diagonalization with overlap
     ethr =  4.19E-03,  avg # of iterations =  1.4

     total cpu time spent up to now is        2.3 secs

     total energy              =     -66.77205120 Ry
     estimated scf accuracy    <       0.14458751 Ry

     total magnetization       =     0.37 Bohr mag/cell
     absolute magnetization    =     0.51 Bohr mag/cell

     iteration #  3     ecut=    40.00 Ry     beta= 0.50
     Davidson diagonalization with overlap
     ethr =  1.31E-03,  avg # of iterations =  1.0

     total cpu time spent up to now is        2.8 secs

     total energy              =     -66.85692979 Ry
     estimated scf accuracy    <       0.04374901 Ry

     total magnetization       =     0.26 Bohr mag/cell
     absolute magnetization    =     0.36 Bohr mag/cell

     iteration #  4     ecut=    40.00 Ry     beta= 0.50
     Davidson diagonalization with overlap
     ethr =  3.98E-04,  avg # of iterations =  1.6

     total cpu time spent up to now is        3.5 secs

     total energy              =     -66.87249122 Ry
     estimated scf accuracy    <       0.00227514 Ry

     total magnetization       =    -0.01 Bohr mag/cell
     absolute magnetization    =     0.05 Bohr mag/cell

     iteration #  5     ecut=    40.00 Ry     beta= 0.50
     Davidson diagonalization with overlap
     ethr =  2.07E-05,  avg # of iterations =  2.3

     total cpu time spent up to now is        4.2 secs

     total energy              =     -66.87326929 Ry
     estimated scf accuracy    <       0.00018718 Ry

     total magnetization       =    -0.00 Bohr mag/cell
     absolute magnetization    =     0.02 Bohr mag/cell

     iteration #  6     ecut=    40.00 Ry     beta= 0.50
     Davidson diagonalization with overlap
     ethr =  1.70E-06,  avg # of iterations =  2.1

     total cpu time spent up to now is        4.9 secs

     total energy              =     -66.87332602 Ry
     estimated scf accuracy    <       0.00002389 Ry

     total magnetization       =     0.00 Bohr mag/cell
     absolute magnetization    =     0.01 Bohr mag/cell

     iteration #  7     ecut=    40.00 Ry     beta= 0.50
     Davidson diagonalization with overlap
     ethr =  2.17E-07,  avg # of iterations =  1.5

     total cpu time spent up to now is        5.5 secs

     total energy              =     -66.87333478 Ry
     estimated scf accuracy    <       0.00000201 Ry

     total magnetization       =    -0.00 Bohr mag/cell
     absolute magnetization    =     0.00 Bohr mag/cell

     iteration #  8     ecut=    40.00 Ry     beta= 0.50
     Davidson diagonalization with overlap
     ethr =  1.83E-08,  avg # of iterations =  1.5

     Magnetic moment per site  (integrated on atomic sphere of radius R)
     atom   1 (R=0.413)  charge=  9.2952  magn=  0.0001

     total cpu time spent up to now is        6.2 secs

     End of self-consistent calculation

     Number of k-points >= 100: set verbosity='high' to print the bands.

     the Fermi energy is    17.1602 ev

!    total energy              =     -66.87333527 Ry
     estimated scf accuracy    <       0.00000003 Ry
     smearing contrib. (-TS)   =       0.00008704 Ry
     internal energy E=F+TS    =     -66.87342231 Ry

     The total energy is F=E-TS. E is the sum of the following terms:
     one-electron contribution =      10.18560640 Ry
     hartree contribution      =       6.82687375 Ry
     xc contribution           =     -10.49321559 Ry
     ewald contribution        =     -73.39268687 Ry

     total magnetization       =     0.00 Bohr mag/cell
     absolute magnetization    =     0.00 Bohr mag/cell

     convergence has been achieved in   8 iterations

     Forces acting on atoms (cartesian axes, Ry/au):

     atom    1 type  1   force =     0.00000000    0.00000000    0.00000000
     The non-local contrib.  to forces
     atom    1 type  1   force =     0.00000000    0.00000000   -0.00000000
     The ionic contribution  to forces
     atom    1 type  1   force =    -0.00000000   -0.00000000   -0.00000000
     The local contribution  to forces
     atom    1 type  1   force =     0.00000000    0.00000000    0.00000000
     The core correction contribution to forces
     atom    1 type  1   force =     0.00000000    0.00000000    0.00000000
     The Hubbard contrib.    to forces
     atom    1 type  1   force =     0.00000000    0.00000000    0.00000000
     The SCF correction term to forces
     atom    1 type  1   force =     0.00000000    0.00000000    0.00000000

     Total force =     0.000000     Total SCF correction =     0.000000


     Computing stress (Cartesian axis) and pressure

          total   stress  (Ry/bohr**3)                   (kbar)     P=       72.53
   0.00049307  -0.00000000  -0.00000000           72.53       -0.00       -0.00
  -0.00000000   0.00049307  -0.00000000           -0.00       72.53       -0.00
  -0.00000000  -0.00000000   0.00049307           -0.00       -0.00       72.53


     BFGS Geometry Optimization
     Energy error            =      0.0E+00 Ry
     Gradient error          =      0.0E+00 Ry/Bohr
     Cell gradient error     =      7.3E+01 kbar

     number of scf cycles    =   1
     number of bfgs steps    =   0

     enthalpy           new  =     -66.8733352727 Ry

     new trust radius        =       0.0256173374 bohr
     new conv_thr            =       0.0000001000 Ry

     new unit-cell volume =    112.01563 a.u.^3 (    16.59900 Ang^3 )
     density =     19.70424 g/cm^3

CELL_PARAMETERS (angstrom)
  -0.000000000   2.024653336   2.024653336
   2.024653336  -0.000000000   2.024653336
   2.024653336   2.024653336  -0.000000000

ATOMIC_POSITIONS (angstrom)
Au            0.0000000000        0.0000000000        0.0000000000



     Writing config-only to output data dir /home/gridsan/epan1/labutil/lab3_samples/problem3/Lab3/Au_a_4.0_ecut_40_nk_13/pwscf.save/
     NEW-OLD atomic charge density approx. for the potential
     extrapolated charge   11.39695, renormalised to   11.00000
     Generating pointlists ...

     total cpu time spent up to now is        6.5 secs

     Self-consistent Calculation

     iteration #  1     ecut=    40.00 Ry     beta= 0.50
     Davidson diagonalization with overlap
     ethr =  1.00E-06,  avg # of iterations =  3.6

     total cpu time spent up to now is        7.6 secs

     total energy              =     -66.84832235 Ry
     estimated scf accuracy    <       0.02197879 Ry

     total magnetization       =     0.00 Bohr mag/cell
     absolute magnetization    =     0.00 Bohr mag/cell

     iteration #  2     ecut=    40.00 Ry     beta= 0.50
     Davidson diagonalization with overlap
     ethr =  2.00E-04,  avg # of iterations =  2.0

     total cpu time spent up to now is        8.4 secs

     total energy              =     -66.87475157 Ry
     estimated scf accuracy    <       0.02662157 Ry

     total magnetization       =     0.00 Bohr mag/cell
     absolute magnetization    =     0.00 Bohr mag/cell

     iteration #  3     ecut=    40.00 Ry     beta= 0.50
     Davidson diagonalization with overlap
     ethr =  2.00E-04,  avg # of iterations =  1.0

     total cpu time spent up to now is        9.1 secs

     total energy              =     -66.87416750 Ry
     estimated scf accuracy    <       0.00583022 Ry

     total magnetization       =     0.00 Bohr mag/cell
     absolute magnetization    =     0.00 Bohr mag/cell

     iteration #  4     ecut=    40.00 Ry     beta= 0.50
     Davidson diagonalization with overlap
     ethr =  5.30E-05,  avg # of iterations =  1.0

     total cpu time spent up to now is       10.5 secs

     total energy              =     -66.87446085 Ry
     estimated scf accuracy    <       0.00104223 Ry

     total magnetization       =     0.00 Bohr mag/cell
     absolute magnetization    =     0.00 Bohr mag/cell

     iteration #  5     ecut=    40.00 Ry     beta= 0.50
     Davidson diagonalization with overlap
     ethr =  9.47E-06,  avg # of iterations =  1.0

     total cpu time spent up to now is       11.3 secs

     total energy              =     -66.87387032 Ry
     estimated scf accuracy    <       0.00078626 Ry

     total magnetization       =     0.00 Bohr mag/cell
     absolute magnetization    =     0.00 Bohr mag/cell

     iteration #  6     ecut=    40.00 Ry     beta= 0.50
     Davidson diagonalization with overlap
     ethr =  7.15E-06,  avg # of iterations =  2.0

     total cpu time spent up to now is       12.0 secs

     total energy              =     -66.87404510 Ry
     estimated scf accuracy    <       0.00047101 Ry

     total magnetization       =     0.00 Bohr mag/cell
     absolute magnetization    =     0.00 Bohr mag/cell

     iteration #  7     ecut=    40.00 Ry     beta= 0.50
     Davidson diagonalization with overlap
     ethr =  4.28E-06,  avg # of iterations =  2.0

     total cpu time spent up to now is       12.8 secs

     total energy              =     -66.87417705 Ry
     estimated scf accuracy    <       0.00006365 Ry

     total magnetization       =     0.00 Bohr mag/cell
     absolute magnetization    =     0.00 Bohr mag/cell

     iteration #  8     ecut=    40.00 Ry     beta= 0.50
     Davidson diagonalization with overlap
     ethr =  5.79E-07,  avg # of iterations =  2.0

     total cpu time spent up to now is       13.5 secs

     total energy              =     -66.87419236 Ry
     estimated scf accuracy    <       0.00000291 Ry

     total magnetization       =    -0.00 Bohr mag/cell
     absolute magnetization    =     0.00 Bohr mag/cell

     iteration #  9     ecut=    40.00 Ry     beta= 0.50
     Davidson diagonalization with overlap
     ethr =  2.64E-08,  avg # of iterations =  1.0

     total cpu time spent up to now is       14.2 secs

     total energy              =     -66.87419262 Ry
     estimated scf accuracy    <       0.00000051 Ry

     total magnetization       =     0.00 Bohr mag/cell
     absolute magnetization    =     0.00 Bohr mag/cell

     iteration # 10     ecut=    40.00 Ry     beta= 0.50
     Davidson diagonalization with overlap
     ethr =  4.62E-09,  avg # of iterations =  1.0

     total cpu time spent up to now is       14.8 secs

     total energy              =     -66.87419249 Ry
     estimated scf accuracy    <       0.00000025 Ry

     total magnetization       =     0.00 Bohr mag/cell
     absolute magnetization    =     0.00 Bohr mag/cell

     iteration # 11     ecut=    40.00 Ry     beta= 0.50
     Davidson diagonalization with overlap
     ethr =  2.28E-09,  avg # of iterations =  2.0

     Magnetic moment per site  (integrated on atomic sphere of radius R)
     atom   1 (R=0.413)  charge=  9.2475  magn=  0.0000

     total cpu time spent up to now is       15.6 secs

     End of self-consistent calculation

     Number of k-points >= 100: set verbosity='high' to print the bands.

     the Fermi energy is    16.2736 ev

!    total energy              =     -66.87419254 Ry
     estimated scf accuracy    <       0.00000002 Ry
     smearing contrib. (-TS)   =       0.00006636 Ry
     internal energy E=F+TS    =     -66.87425890 Ry

     The total energy is F=E-TS. E is the sum of the following terms:
     one-electron contribution =       8.93963475 Ry
     hartree contribution      =       7.14526416 Ry
     xc contribution           =     -10.46014223 Ry
     ewald contribution        =     -72.49901558 Ry

     total magnetization       =     0.00 Bohr mag/cell
     absolute magnetization    =     0.00 Bohr mag/cell

     convergence has been achieved in  11 iterations

     Forces acting on atoms (cartesian axes, Ry/au):

     atom    1 type  1   force =     0.00000000    0.00000000    0.00000000
     The non-local contrib.  to forces
     atom    1 type  1   force =    -0.00000000    0.00000000   -0.00000000
     The ionic contribution  to forces
     atom    1 type  1   force =    -0.00000000   -0.00000000   -0.00000000
     The local contribution  to forces
     atom    1 type  1   force =     0.00000000    0.00000000    0.00000000
     The core correction contribution to forces
     atom    1 type  1   force =     0.00000000    0.00000000    0.00000000
     The Hubbard contrib.    to forces
     atom    1 type  1   force =     0.00000000    0.00000000    0.00000000
     The SCF correction term to forces
     atom    1 type  1   force =     0.00000000    0.00000000    0.00000000

     Total force =     0.000000     Total SCF correction =     0.000000


     Computing stress (Cartesian axis) and pressure

          total   stress  (Ry/bohr**3)                   (kbar)     P=       -4.79
  -0.00003254   0.00000000  -0.00000000           -4.79        0.00       -0.00
  -0.00000000  -0.00003254   0.00000000           -0.00       -4.79        0.00
  -0.00000000  -0.00000000  -0.00003254           -0.00       -0.00       -4.79

     Energy error            =      8.6E-04 Ry
     Gradient error          =      0.0E+00 Ry/Bohr
     Cell gradient error     =      4.8E+00 kbar

     number of scf cycles    =   2
     number of bfgs steps    =   1

     enthalpy           old  =     -66.8733352727 Ry
     enthalpy           new  =     -66.8741925431 Ry

     CASE: enthalpy          _new < enthalpy          _old

     new trust radius        =       0.0016327701 bohr
     new conv_thr            =       0.0000000010 Ry

     new unit-cell volume =    111.75662 a.u.^3 (    16.56062 Ang^3 )
     density =     19.74990 g/cm^3

CELL_PARAMETERS (angstrom)
  -0.000000000   2.023091604   2.023091604
   2.023091604  -0.000000000   2.023091604
   2.023091604   2.023091604  -0.000000000

ATOMIC_POSITIONS (angstrom)
Au            0.0000000000        0.0000000000        0.0000000000



     Writing config-only to output data dir /home/gridsan/epan1/labutil/lab3_samples/problem3/Lab3/Au_a_4.0_ecut_40_nk_13/pwscf.save/
     NEW-OLD atomic charge density approx. for the potential
     extrapolated charge   10.97451, renormalised to   11.00000
     Generating pointlists ...

     total cpu time spent up to now is       16.6 secs

     Self-consistent Calculation

     iteration #  1     ecut=    40.00 Ry     beta= 0.50
     Davidson diagonalization with overlap
     ethr =  1.00E-06,  avg # of iterations =  2.0

     total cpu time spent up to now is       17.4 secs

     total energy              =     -66.87409428 Ry
     estimated scf accuracy    <       0.00009110 Ry

     total magnetization       =     0.00 Bohr mag/cell
     absolute magnetization    =     0.00 Bohr mag/cell

     iteration #  2     ecut=    40.00 Ry     beta= 0.50
     Davidson diagonalization with overlap
     ethr =  8.28E-07,  avg # of iterations =  2.0

     total cpu time spent up to now is       18.2 secs

     total energy              =     -66.87420123 Ry
     estimated scf accuracy    <       0.00010528 Ry

     total magnetization       =     0.00 Bohr mag/cell
     absolute magnetization    =     0.00 Bohr mag/cell

     iteration #  3     ecut=    40.00 Ry     beta= 0.50
     Davidson diagonalization with overlap
     ethr =  8.28E-07,  avg # of iterations =  1.0

     total cpu time spent up to now is       18.8 secs

     total energy              =     -66.87420008 Ry
     estimated scf accuracy    <       0.00002245 Ry

     total magnetization       =     0.00 Bohr mag/cell
     absolute magnetization    =     0.00 Bohr mag/cell

     iteration #  4     ecut=    40.00 Ry     beta= 0.50
     Davidson diagonalization with overlap
     ethr =  2.04E-07,  avg # of iterations =  1.0

     total cpu time spent up to now is       19.4 secs

     total energy              =     -66.87420046 Ry
     estimated scf accuracy    <       0.00000541 Ry

     total magnetization       =     0.00 Bohr mag/cell
     absolute magnetization    =     0.00 Bohr mag/cell

     iteration #  5     ecut=    40.00 Ry     beta= 0.50
     Davidson diagonalization with overlap
     ethr =  4.92E-08,  avg # of iterations =  1.0

     total cpu time spent up to now is       20.0 secs

     total energy              =     -66.87419892 Ry
     estimated scf accuracy    <       0.00000330 Ry

     total magnetization       =     0.00 Bohr mag/cell
     absolute magnetization    =     0.00 Bohr mag/cell

     iteration #  6     ecut=    40.00 Ry     beta= 0.50
     Davidson diagonalization with overlap
     ethr =  3.00E-08,  avg # of iterations =  1.3

     total cpu time spent up to now is       20.7 secs

     total energy              =     -66.87419936 Ry
     estimated scf accuracy    <       0.00000008 Ry

     total magnetization       =     0.00 Bohr mag/cell
     absolute magnetization    =     0.00 Bohr mag/cell

     iteration #  7     ecut=    40.00 Ry     beta= 0.50
     Davidson diagonalization with overlap
     ethr =  7.44E-10,  avg # of iterations =  1.3

     total cpu time spent up to now is       21.3 secs

     total energy              =     -66.87419935 Ry
     estimated scf accuracy    <       0.00000002 Ry

     total magnetization       =     0.00 Bohr mag/cell
     absolute magnetization    =     0.00 Bohr mag/cell

     iteration #  8     ecut=    40.00 Ry     beta= 0.50
     Davidson diagonalization with overlap
     ethr =  2.24E-10,  avg # of iterations =  2.0

     Magnetic moment per site  (integrated on atomic sphere of radius R)
     atom   1 (R=0.413)  charge=  9.2503  magn=  0.0000

     total cpu time spent up to now is       22.0 secs

     End of self-consistent calculation

     Number of k-points >= 100: set verbosity='high' to print the bands.

     the Fermi energy is    16.3286 ev

!    total energy              =     -66.87419936 Ry
     estimated scf accuracy    <          1.8E-10 Ry
     smearing contrib. (-TS)   =       0.00006884 Ry
     internal energy E=F+TS    =     -66.87426819 Ry

     The total energy is F=E-TS. E is the sum of the following terms:
     one-electron contribution =       9.01822728 Ry
     hartree contribution      =       7.12454754 Ry
     xc contribution           =     -10.46206161 Ry
     ewald contribution        =     -72.55498141 Ry

     total magnetization       =     0.00 Bohr mag/cell
     absolute magnetization    =     0.00 Bohr mag/cell

     convergence has been achieved in   8 iterations

     Forces acting on atoms (cartesian axes, Ry/au):

     atom    1 type  1   force =     0.00000000    0.00000000    0.00000000
     The non-local contrib.  to forces
     atom    1 type  1   force =     0.00000000    0.00000000    0.00000000
     The ionic contribution  to forces
     atom    1 type  1   force =    -0.00000000   -0.00000000   -0.00000000
     The local contribution  to forces
     atom    1 type  1   force =     0.00000000    0.00000000    0.00000000
     The core correction contribution to forces
     atom    1 type  1   force =     0.00000000    0.00000000    0.00000000
     The Hubbard contrib.    to forces
     atom    1 type  1   force =     0.00000000    0.00000000    0.00000000
     The SCF correction term to forces
     atom    1 type  1   force =     0.00000000    0.00000000    0.00000000

     Total force =     0.000000     Total SCF correction =     0.000000


     Computing stress (Cartesian axis) and pressure

          total   stress  (Ry/bohr**3)                   (kbar)     P=       -1.65
  -0.00001119  -0.00000000  -0.00000000           -1.65       -0.00       -0.00
  -0.00000000  -0.00001119   0.00000000           -0.00       -1.65        0.00
  -0.00000000   0.00000000  -0.00001119           -0.00        0.00       -1.65

     Energy error            =      6.8E-06 Ry
     Gradient error          =      0.0E+00 Ry/Bohr
     Cell gradient error     =      1.6E+00 kbar

     number of scf cycles    =   3
     number of bfgs steps    =   2

     enthalpy           old  =     -66.8741925431 Ry
     enthalpy           new  =     -66.8741993585 Ry

     CASE: enthalpy          _new < enthalpy          _old

     new trust radius        =       0.0008532833 bohr
     new conv_thr            =       0.0000000010 Ry

     new unit-cell volume =    111.62136 a.u.^3 (    16.54058 Ang^3 )
     density =     19.77383 g/cm^3

CELL_PARAMETERS (angstrom)
  -0.000000000   2.022275131   2.022275131
   2.022275131  -0.000000000   2.022275131
   2.022275131   2.022275131  -0.000000000

ATOMIC_POSITIONS (angstrom)
Au            0.0000000000        0.0000000000        0.0000000000



     Writing config-only to output data dir /home/gridsan/epan1/labutil/lab3_samples/problem3/Lab3/Au_a_4.0_ecut_40_nk_13/pwscf.save/
     NEW-OLD atomic charge density approx. for the potential
     extrapolated charge   10.98667, renormalised to   11.00000
     Generating pointlists ...

     total cpu time spent up to now is       22.4 secs

     Self-consistent Calculation

     iteration #  1     ecut=    40.00 Ry     beta= 0.50
     Davidson diagonalization with overlap
     ethr =  1.00E-06,  avg # of iterations =  2.0

     total cpu time spent up to now is       23.2 secs

     total energy              =     -66.87417062 Ry
     estimated scf accuracy    <       0.00002575 Ry

     total magnetization       =     0.00 Bohr mag/cell
     absolute magnetization    =     0.00 Bohr mag/cell

     iteration #  2     ecut=    40.00 Ry     beta= 0.50
     Davidson diagonalization with overlap
     ethr =  2.34E-07,  avg # of iterations =  2.0

     total cpu time spent up to now is       24.0 secs

     total energy              =     -66.87420025 Ry
     estimated scf accuracy    <       0.00002879 Ry

     total magnetization       =     0.00 Bohr mag/cell
     absolute magnetization    =     0.00 Bohr mag/cell

     iteration #  3     ecut=    40.00 Ry     beta= 0.50
     Davidson diagonalization with overlap
     ethr =  2.34E-07,  avg # of iterations =  1.0

     total cpu time spent up to now is       24.6 secs

     total energy              =     -66.87420000 Ry
     estimated scf accuracy    <       0.00000603 Ry

     total magnetization       =     0.00 Bohr mag/cell
     absolute magnetization    =     0.00 Bohr mag/cell

     iteration #  4     ecut=    40.00 Ry     beta= 0.50
     Davidson diagonalization with overlap
     ethr =  5.48E-08,  avg # of iterations =  1.0

     total cpu time spent up to now is       25.2 secs

     total energy              =     -66.87420012 Ry
     estimated scf accuracy    <       0.00000146 Ry

     total magnetization       =     0.00 Bohr mag/cell
     absolute magnetization    =     0.00 Bohr mag/cell

     iteration #  5     ecut=    40.00 Ry     beta= 0.50
     Davidson diagonalization with overlap
     ethr =  1.33E-08,  avg # of iterations =  1.0

     total cpu time spent up to now is       25.8 secs

     total energy              =     -66.87419970 Ry
     estimated scf accuracy    <       0.00000093 Ry

     total magnetization       =     0.00 Bohr mag/cell
     absolute magnetization    =     0.00 Bohr mag/cell

     iteration #  6     ecut=    40.00 Ry     beta= 0.50
     Davidson diagonalization with overlap
     ethr =  8.43E-09,  avg # of iterations =  1.2

     total cpu time spent up to now is       27.3 secs

     total energy              =     -66.87419980 Ry
     estimated scf accuracy    <       0.00000003 Ry

     total magnetization       =    -0.00 Bohr mag/cell
     absolute magnetization    =     0.00 Bohr mag/cell

     iteration #  7     ecut=    40.00 Ry     beta= 0.50
     Davidson diagonalization with overlap
     ethr =  3.04E-10,  avg # of iterations =  1.1

     total cpu time spent up to now is       27.9 secs

     total energy              =     -66.87419980 Ry
     estimated scf accuracy    <          7.6E-09 Ry

     total magnetization       =    -0.00 Bohr mag/cell
     absolute magnetization    =     0.00 Bohr mag/cell

     iteration #  8     ecut=    40.00 Ry     beta= 0.50
     Davidson diagonalization with overlap
     ethr =  6.90E-11,  avg # of iterations =  2.0

     Magnetic moment per site  (integrated on atomic sphere of radius R)
     atom   1 (R=0.413)  charge=  9.2518  magn= -0.0000

     total cpu time spent up to now is       28.7 secs

     End of self-consistent calculation

     Number of k-points >= 100: set verbosity='high' to print the bands.

     the Fermi energy is    16.3573 ev

!    total energy              =     -66.87419980 Ry
     estimated scf accuracy    <          7.1E-11 Ry
     smearing contrib. (-TS)   =       0.00007003 Ry
     internal energy E=F+TS    =     -66.87426984 Ry

     The total energy is F=E-TS. E is the sum of the following terms:
     one-electron contribution =       9.05918470 Ry
     hartree contribution      =       7.11393886 Ry
     xc contribution           =     -10.46311862 Ry
     ewald contribution        =     -72.58427477 Ry

     total magnetization       =    -0.00 Bohr mag/cell
     absolute magnetization    =     0.00 Bohr mag/cell

     convergence has been achieved in   8 iterations

     Forces acting on atoms (cartesian axes, Ry/au):

     atom    1 type  1   force =     0.00000000    0.00000000    0.00000000
     The non-local contrib.  to forces
     atom    1 type  1   force =     0.00000000    0.00000000    0.00000000
     The ionic contribution  to forces
     atom    1 type  1   force =    -0.00000000   -0.00000000   -0.00000000
     The local contribution  to forces
     atom    1 type  1   force =     0.00000000    0.00000000    0.00000000
     The core correction contribution to forces
     atom    1 type  1   force =     0.00000000    0.00000000    0.00000000
     The Hubbard contrib.    to forces
     atom    1 type  1   force =     0.00000000    0.00000000    0.00000000
     The SCF correction term to forces
     atom    1 type  1   force =     0.00000000    0.00000000    0.00000000

     Total force =     0.000000     Total SCF correction =     0.000000


     Computing stress (Cartesian axis) and pressure

          total   stress  (Ry/bohr**3)                   (kbar)     P=        0.66
   0.00000450  -0.00000000  -0.00000000            0.66       -0.00       -0.00
  -0.00000000   0.00000450  -0.00000000           -0.00        0.66       -0.00
  -0.00000000  -0.00000000   0.00000450           -0.00       -0.00        0.66

     Energy error            =      4.5E-07 Ry
     Gradient error          =      0.0E+00 Ry/Bohr
     Cell gradient error     =      6.6E-01 kbar

     number of scf cycles    =   4
     number of bfgs steps    =   3

     enthalpy           old  =     -66.8741993585 Ry
     enthalpy           new  =     -66.8741998049 Ry

     CASE: enthalpy          _new < enthalpy          _old

     new trust radius        =       0.0002446055 bohr
     new conv_thr            =       0.0000000010 Ry

     new unit-cell volume =    111.66013 a.u.^3 (    16.54632 Ang^3 )
     density =     19.76697 g/cm^3

CELL_PARAMETERS (angstrom)
  -0.000000000   2.022509231   2.022509231
   2.022509231  -0.000000000   2.022509231
   2.022509231   2.022509231  -0.000000000

ATOMIC_POSITIONS (angstrom)
Au            0.0000000000        0.0000000000        0.0000000000



     Writing config-only to output data dir /home/gridsan/epan1/labutil/lab3_samples/problem3/Lab3/Au_a_4.0_ecut_40_nk_13/pwscf.save/
     NEW-OLD atomic charge density approx. for the potential
     extrapolated charge   11.00382, renormalised to   11.00000
     Generating pointlists ...

     total cpu time spent up to now is       29.4 secs

     Self-consistent Calculation

     iteration #  1     ecut=    40.00 Ry     beta= 0.50
     Davidson diagonalization with overlap
     ethr =  1.00E-06,  avg # of iterations =  2.0

     Threshold (ethr) on eigenvalues was too large:
     Diagonalizing with lowered threshold

     Davidson diagonalization with overlap
     ethr =  1.91E-08,  avg # of iterations =  1.0

     total cpu time spent up to now is       30.9 secs

     total energy              =     -66.87419750 Ry
     estimated scf accuracy    <       0.00000211 Ry

     total magnetization       =    -0.00 Bohr mag/cell
     absolute magnetization    =     0.00 Bohr mag/cell

     iteration #  2     ecut=    40.00 Ry     beta= 0.50
     Davidson diagonalization with overlap
     ethr =  1.92E-08,  avg # of iterations =  2.0

     total cpu time spent up to now is       31.6 secs

     total energy              =     -66.87419993 Ry
     estimated scf accuracy    <       0.00000237 Ry

     total magnetization       =    -0.00 Bohr mag/cell
     absolute magnetization    =     0.00 Bohr mag/cell

     iteration #  3     ecut=    40.00 Ry     beta= 0.50
     Davidson diagonalization with overlap
     ethr =  1.92E-08,  avg # of iterations =  1.0

     total cpu time spent up to now is       32.2 secs

     total energy              =     -66.87419992 Ry
     estimated scf accuracy    <       0.00000050 Ry

     total magnetization       =    -0.00 Bohr mag/cell
     absolute magnetization    =     0.00 Bohr mag/cell

     iteration #  4     ecut=    40.00 Ry     beta= 0.50
     Davidson diagonalization with overlap
     ethr =  4.53E-09,  avg # of iterations =  1.0

     total cpu time spent up to now is       32.9 secs

     total energy              =     -66.87419992 Ry
     estimated scf accuracy    <       0.00000013 Ry

     total magnetization       =    -0.00 Bohr mag/cell
     absolute magnetization    =     0.00 Bohr mag/cell

     iteration #  5     ecut=    40.00 Ry     beta= 0.50
     Davidson diagonalization with overlap
     ethr =  1.15E-09,  avg # of iterations =  1.0

     total cpu time spent up to now is       33.5 secs

     total energy              =     -66.87419988 Ry
     estimated scf accuracy    <       0.00000008 Ry

     total magnetization       =    -0.00 Bohr mag/cell
     absolute magnetization    =     0.00 Bohr mag/cell

     iteration #  6     ecut=    40.00 Ry     beta= 0.50
     Davidson diagonalization with overlap
     ethr =  7.55E-10,  avg # of iterations =  1.7

     Magnetic moment per site  (integrated on atomic sphere of radius R)
     atom   1 (R=0.413)  charge=  9.2514  magn= -0.0000

     total cpu time spent up to now is       34.2 secs

     End of self-consistent calculation

     Number of k-points >= 100: set verbosity='high' to print the bands.

     the Fermi energy is    16.3490 ev

!    total energy              =     -66.87419990 Ry
     estimated scf accuracy    <          1.6E-10 Ry
     smearing contrib. (-TS)   =       0.00006969 Ry
     internal energy E=F+TS    =     -66.87426958 Ry

     The total energy is F=E-TS. E is the sum of the following terms:
     one-electron contribution =       9.04740716 Ry
     hartree contribution      =       7.11702196 Ry
     xc contribution           =     -10.46282540 Ry
     ewald contribution        =     -72.57587331 Ry

     total magnetization       =    -0.00 Bohr mag/cell
     absolute magnetization    =     0.00 Bohr mag/cell

     convergence has been achieved in   6 iterations

     Forces acting on atoms (cartesian axes, Ry/au):

     atom    1 type  1   force =     0.00000000    0.00000000    0.00000000
     The non-local contrib.  to forces
     atom    1 type  1   force =     0.00000000   -0.00000000   -0.00000000
     The ionic contribution  to forces
     atom    1 type  1   force =    -0.00000000   -0.00000000   -0.00000000
     The local contribution  to forces
     atom    1 type  1   force =     0.00000000    0.00000000    0.00000000
     The core correction contribution to forces
     atom    1 type  1   force =     0.00000000    0.00000000    0.00000000
     The Hubbard contrib.    to forces
     atom    1 type  1   force =     0.00000000    0.00000000    0.00000000
     The SCF correction term to forces
     atom    1 type  1   force =     0.00000000    0.00000000    0.00000000

     Total force =     0.000000     Total SCF correction =     0.000000


     Computing stress (Cartesian axis) and pressure

          total   stress  (Ry/bohr**3)                   (kbar)     P=        0.12
   0.00000083  -0.00000000   0.00000000            0.12       -0.00        0.00
  -0.00000000   0.00000083  -0.00000000           -0.00        0.12       -0.00
  -0.00000000  -0.00000000   0.00000083           -0.00       -0.00        0.12

     Energy error            =      9.1E-08 Ry
     Gradient error          =      0.0E+00 Ry/Bohr
     Cell gradient error     =      1.2E-01 kbar
Begin final coordinates
     new unit-cell volume =    111.66013 a.u.^3 (    16.54632 Ang^3 )
     density =     19.76697 g/cm^3

CELL_PARAMETERS (angstrom)
  -0.000000000   2.022509231   2.022509231
   2.022509231  -0.000000000   2.022509231
   2.022509231   2.022509231  -0.000000000

ATOMIC_POSITIONS (angstrom)
Au            0.0000000000        0.0000000000        0.0000000000
End final coordinates



     Writing config-only to output data dir /home/gridsan/epan1/labutil/lab3_samples/problem3/Lab3/Au_a_4.0_ecut_40_nk_13/pwscf.save/

     lsda relaxation :  a final configuration with zero
                        absolute magnetization has been found

     the program is checking if it is really the minimum energy structure
     by performing a new scf iteration without any "electronic" history

     Initial potential from superposition of free atoms

     starting charge      10.9999, renormalised to      11.0000

     total cpu time spent up to now is       34.5 secs

     Self-consistent Calculation

     iteration #  1     ecut=    40.00 Ry     beta= 0.50
     Davidson diagonalization with overlap
     ethr =  1.00E-06,  avg # of iterations =  3.8

     total cpu time spent up to now is       35.6 secs

     total energy              =     -66.48840150 Ry
     estimated scf accuracy    <       0.46811245 Ry

     total magnetization       =     1.27 Bohr mag/cell
     absolute magnetization    =     1.33 Bohr mag/cell

     iteration #  2     ecut=    40.00 Ry     beta= 0.50
     Davidson diagonalization with overlap
     ethr =  4.26E-03,  avg # of iterations =  1.5

     total cpu time spent up to now is       36.2 secs

     total energy              =     -66.76801233 Ry
     estimated scf accuracy    <       0.15169635 Ry

     total magnetization       =     0.37 Bohr mag/cell
     absolute magnetization    =     0.52 Bohr mag/cell

     iteration #  3     ecut=    40.00 Ry     beta= 0.50
     Davidson diagonalization with overlap
     ethr =  1.38E-03,  avg # of iterations =  1.0

     total cpu time spent up to now is       36.8 secs

     total energy              =     -66.85679890 Ry
     estimated scf accuracy    <       0.04608275 Ry

     total magnetization       =     0.27 Bohr mag/cell
     absolute magnetization    =     0.37 Bohr mag/cell

     iteration #  4     ecut=    40.00 Ry     beta= 0.50
     Davidson diagonalization with overlap
     ethr =  4.19E-04,  avg # of iterations =  1.5

     total cpu time spent up to now is       37.5 secs

     total energy              =     -66.87322970 Ry
     estimated scf accuracy    <       0.00274671 Ry

     total magnetization       =    -0.01 Bohr mag/cell
     absolute magnetization    =     0.05 Bohr mag/cell

     iteration #  5     ecut=    40.00 Ry     beta= 0.50
     Davidson diagonalization with overlap
     ethr =  2.50E-05,  avg # of iterations =  1.7

     total cpu time spent up to now is       38.2 secs

     total energy              =     -66.87412889 Ry
     estimated scf accuracy    <       0.00017225 Ry

     total magnetization       =    -0.01 Bohr mag/cell
     absolute magnetization    =     0.02 Bohr mag/cell

     iteration #  6     ecut=    40.00 Ry     beta= 0.50
     Davidson diagonalization with overlap
     ethr =  1.57E-06,  avg # of iterations =  1.6

     total cpu time spent up to now is       38.9 secs

     total energy              =     -66.87418790 Ry
     estimated scf accuracy    <       0.00003113 Ry

     total magnetization       =     0.00 Bohr mag/cell
     absolute magnetization    =     0.01 Bohr mag/cell

     iteration #  7     ecut=    40.00 Ry     beta= 0.50
     Davidson diagonalization with overlap
     ethr =  2.83E-07,  avg # of iterations =  1.5

     total cpu time spent up to now is       39.6 secs

     total energy              =     -66.87419929 Ry
     estimated scf accuracy    <       0.00000207 Ry

     total magnetization       =    -0.00 Bohr mag/cell
     absolute magnetization    =     0.00 Bohr mag/cell

     iteration #  8     ecut=    40.00 Ry     beta= 0.50
     Davidson diagonalization with overlap
     ethr =  1.88E-08,  avg # of iterations =  1.6

     total cpu time spent up to now is       40.3 secs

     total energy              =     -66.87419989 Ry
     estimated scf accuracy    <       0.00000010 Ry

     total magnetization       =     0.00 Bohr mag/cell
     absolute magnetization    =     0.00 Bohr mag/cell

     iteration #  9     ecut=    40.00 Ry     beta= 0.50
     Davidson diagonalization with overlap
     ethr =  8.96E-10,  avg # of iterations =  1.1

     total cpu time spent up to now is       40.9 secs

     total energy              =     -66.87419990 Ry
     estimated scf accuracy    <       0.00000001 Ry

     total magnetization       =     0.00 Bohr mag/cell
     absolute magnetization    =     0.00 Bohr mag/cell

     iteration # 10     ecut=    40.00 Ry     beta= 0.50
     Davidson diagonalization with overlap
     ethr =  9.22E-11,  avg # of iterations =  1.1

     total cpu time spent up to now is       41.5 secs

     total energy              =     -66.87419990 Ry
     estimated scf accuracy    <          1.7E-09 Ry

     total magnetization       =     0.00 Bohr mag/cell
     absolute magnetization    =     0.00 Bohr mag/cell

     iteration # 11     ecut=    40.00 Ry     beta= 0.50
     Davidson diagonalization with overlap
     ethr =  1.54E-11,  avg # of iterations =  1.5

     Magnetic moment per site  (integrated on atomic sphere of radius R)
     atom   1 (R=0.413)  charge=  9.2514  magn=  0.0000

     total cpu time spent up to now is       42.2 secs

     End of self-consistent calculation

     Number of k-points >= 100: set verbosity='high' to print the bands.

     the Fermi energy is    16.3490 ev

!    total energy              =     -66.87419990 Ry
     estimated scf accuracy    <          2.0E-11 Ry
     smearing contrib. (-TS)   =       0.00006969 Ry
     internal energy E=F+TS    =     -66.87426959 Ry

     The total energy is F=E-TS. E is the sum of the following terms:
     one-electron contribution =       9.04742738 Ry
     hartree contribution      =       7.11699524 Ry
     xc contribution           =     -10.46281891 Ry
     ewald contribution        =     -72.57587331 Ry

     total magnetization       =     0.00 Bohr mag/cell
     absolute magnetization    =     0.00 Bohr mag/cell

     convergence has been achieved in  11 iterations

     Forces acting on atoms (cartesian axes, Ry/au):

     atom    1 type  1   force =     0.00000000    0.00000000    0.00000000
     The non-local contrib.  to forces
     atom    1 type  1   force =     0.00000000    0.00000000   -0.00000000
     The ionic contribution  to forces
     atom    1 type  1   force =    -0.00000000   -0.00000000   -0.00000000
     The local contribution  to forces
     atom    1 type  1   force =     0.00000000    0.00000000    0.00000000
     The core correction contribution to forces
     atom    1 type  1   force =     0.00000000    0.00000000    0.00000000
     The Hubbard contrib.    to forces
     atom    1 type  1   force =     0.00000000    0.00000000    0.00000000
     The SCF correction term to forces
     atom    1 type  1   force =     0.00000000    0.00000000    0.00000000

     Total force =     0.000000     Total SCF correction =     0.000000


     Computing stress (Cartesian axis) and pressure

          total   stress  (Ry/bohr**3)                   (kbar)     P=        0.05
   0.00000032   0.00000000   0.00000000            0.05        0.00        0.00
   0.00000000   0.00000032   0.00000000            0.00        0.05        0.00
   0.00000000   0.00000000   0.00000032            0.00        0.00        0.05

     Energy error            =      9.2E-08 Ry
     Gradient error          =      0.0E+00 Ry/Bohr
     Cell gradient error     =      4.7E-02 kbar

     bfgs converged in   5 scf cycles and   4 bfgs steps
     (criteria: energy <  1.0E-04 Ry, force <  1.0E-03 Ry/Bohr, cell <  5.0E-01 kbar)

     End of BFGS Geometry Optimization

     Final enthalpy           =     -66.8741998965 Ry

     File /home/gridsan/epan1/labutil/lab3_samples/problem3/Lab3/Au_a_4.0_ecut_40_nk_13/pwscf.bfgs deleted, as requested
Begin final coordinates
     new unit-cell volume =    111.66013 a.u.^3 (    16.54632 Ang^3 )
     density =     19.76697 g/cm^3

CELL_PARAMETERS (angstrom)
  -0.000000000   2.022509231   2.022509231
   2.022509231  -0.000000000   2.022509231
   2.022509231   2.022509231  -0.000000000

ATOMIC_POSITIONS (angstrom)
Au            0.0000000000        0.0000000000        0.0000000000
End final coordinates



     Writing config-only to output data dir /home/gridsan/epan1/labutil/lab3_samples/problem3/Lab3/Au_a_4.0_ecut_40_nk_13/pwscf.save/

     Final scf calculation at the relaxed structure.
     The G-vectors are recalculated for the final unit cell
     Results may differ from those at the preceding step.

     Parallelization info
     --------------------
     sticks:   dense  smooth     PW     G-vecs:    dense   smooth      PW
     Min          81      39     13                 1355      479      92
     Max          82      40     14                 1358      484      95
     Sum         649     313    109                10849     3839     749

     Using Slab Decomposition



     bravais-lattice index     =            0
     lattice parameter (alat)  =       5.3450  a.u.
     unit-cell volume          =     111.6601 (a.u.)^3
     number of atoms/cell      =            1
     number of atomic types    =            1
     number of electrons       =        11.00
     number of Kohn-Sham states=           10
     kinetic-energy cutoff     =      40.0000  Ry
     charge density cutoff     =     320.0000  Ry
     scf convergence threshold =      1.0E-09
     mixing beta               =       0.5000
     number of iterations used =            8  plain     mixing
     press convergence thresh. =      5.0E-01
     Exchange-correlation=  SLA  PZ   NOGX NOGC
                           (   1   1   0   0   0   0   0)

     celldm(1)=   5.344953  celldm(2)=   0.000000  celldm(3)=   0.000000
     celldm(4)=   0.000000  celldm(5)=   0.000000  celldm(6)=   0.000000

     crystal axes: (cart. coord. in units of alat)
               a(1) = (  -0.000000   0.715065   0.715065 )  
               a(2) = (   0.715065  -0.000000   0.715065 )  
               a(3) = (   0.715065   0.715065  -0.000000 )  

     reciprocal axes: (cart. coord. in units 2 pi/alat)
               b(1) = ( -0.699237  0.699237  0.699237 )  
               b(2) = (  0.699237 -0.699237  0.699237 )  
               b(3) = (  0.699237  0.699237 -0.699237 )  


     PseudoPot. # 1 for Au read from file:
     /home/gridsan/epan1/labutil/lab3_samples/pseudopotentials/Au.pz-d-rrkjus.UPF
     MD5 check sum: 424ffd4ac9c90487cbadcd287136c95b
     Pseudo is Ultrasoft, Zval = 11.0
     Generated by new atomic code, or converted to UPF format
     Using radial grid of 1279 points,  3 beta functions with: 
                l(1) =   2
                l(2) =   2
                l(3) =   1
     Q(r) pseudized with 0 coefficients 


     atomic species   valence    mass     pseudopotential
        Au            11.00   196.96657     Au( 1.00)

     Starting magnetic structure 
     atomic species   magnetization
        Au           0.000

     48 Sym. Ops., with inversion, found



   Cartesian axes

     site n.     atom                  positions (alat units)
         1           Au  tau(   1) = (   0.0000000   0.0000000   0.0000000  )

     number of k points=    84  Methfessel-Paxton smearing, width (Ry)=  0.0200
                       cart. coord. in units 2pi/alat
        k(    1) = (   0.0000000   0.0000000   0.0000000), wk =   0.0004552
        k(    2) = (   0.0537875   0.0537875  -0.0537875), wk =   0.0036413
        k(    3) = (   0.1075749   0.1075749  -0.1075749), wk =   0.0036413
        k(    4) = (   0.1613624   0.1613624  -0.1613624), wk =   0.0036413
        k(    5) = (   0.2151499   0.2151499  -0.2151499), wk =   0.0036413
        k(    6) = (   0.2689374   0.2689374  -0.2689374), wk =   0.0036413
        k(    7) = (   0.3227248   0.3227248  -0.3227248), wk =   0.0036413
        k(    8) = (   0.1075749   0.0000000   0.0000000), wk =   0.0027310
        k(    9) = (   0.1613624   0.0537875  -0.0537875), wk =   0.0109240
        k(   10) = (   0.2151499   0.1075749  -0.1075749), wk =   0.0109240
        k(   11) = (   0.2689374   0.1613624  -0.1613624), wk =   0.0109240
        k(   12) = (   0.3227248   0.2151499  -0.2151499), wk =   0.0109240
        k(   13) = (   0.3765123   0.2689374  -0.2689374), wk =   0.0109240
        k(   14) = (  -0.2689374  -0.3765123   0.3765123), wk =   0.0109240
        k(   15) = (  -0.2151499  -0.3227248   0.3227248), wk =   0.0109240
        k(   16) = (  -0.1613624  -0.2689374   0.2689374), wk =   0.0109240
        k(   17) = (  -0.1075749  -0.2151499   0.2151499), wk =   0.0109240
        k(   18) = (  -0.0537875  -0.1613624   0.1613624), wk =   0.0109240
        k(   19) = (   0.0000000  -0.1075749   0.1075749), wk =   0.0054620
        k(   20) = (   0.2151499   0.0000000   0.0000000), wk =   0.0027310
        k(   21) = (   0.2689374   0.0537875  -0.0537875), wk =   0.0109240
        k(   22) = (   0.3227248   0.1075749  -0.1075749), wk =   0.0109240
        k(   23) = (   0.3765123   0.1613624  -0.1613624), wk =   0.0109240
        k(   24) = (   0.4302998   0.2151499  -0.2151499), wk =   0.0109240
        k(   25) = (  -0.2151499  -0.4302998   0.4302998), wk =   0.0109240
        k(   26) = (  -0.1613624  -0.3765123   0.3765123), wk =   0.0109240
        k(   27) = (  -0.1075749  -0.3227248   0.3227248), wk =   0.0109240
        k(   28) = (  -0.0537875  -0.2689374   0.2689374), wk =   0.0109240
        k(   29) = (   0.0000000  -0.2151499   0.2151499), wk =   0.0054620
        k(   30) = (   0.3227248   0.0000000   0.0000000), wk =   0.0027310
        k(   31) = (   0.3765123   0.0537875  -0.0537875), wk =   0.0109240
        k(   32) = (   0.4302998   0.1075749  -0.1075749), wk =   0.0109240
        k(   33) = (   0.4840872   0.1613624  -0.1613624), wk =   0.0109240
        k(   34) = (  -0.1613624  -0.4840872   0.4840872), wk =   0.0109240
        k(   35) = (  -0.1075749  -0.4302998   0.4302998), wk =   0.0109240
        k(   36) = (  -0.0537875  -0.3765123   0.3765123), wk =   0.0109240
        k(   37) = (   0.0000000  -0.3227248   0.3227248), wk =   0.0054620
        k(   38) = (   0.4302998   0.0000000   0.0000000), wk =   0.0027310
        k(   39) = (   0.4840872   0.0537875  -0.0537875), wk =   0.0109240
        k(   40) = (   0.5378747   0.1075749  -0.1075749), wk =   0.0109240
        k(   41) = (  -0.1075749  -0.5378747   0.5378747), wk =   0.0109240
        k(   42) = (  -0.0537875  -0.4840872   0.4840872), wk =   0.0109240
        k(   43) = (   0.0000000  -0.4302998   0.4302998), wk =   0.0054620
        k(   44) = (   0.5378747   0.0000000   0.0000000), wk =   0.0027310
        k(   45) = (   0.5916622   0.0537875  -0.0537875), wk =   0.0109240
        k(   46) = (  -0.0537875  -0.5916622   0.5916622), wk =   0.0109240
        k(   47) = (   0.0000000  -0.5378747   0.5378747), wk =   0.0054620
        k(   48) = (   0.6454497   0.0000000   0.0000000), wk =   0.0027310
        k(   49) = (   0.0000000  -0.6454497   0.6454497), wk =   0.0054620
        k(   50) = (   0.2151499   0.1075749   0.0000000), wk =   0.0109240
        k(   51) = (   0.2689374   0.1613624  -0.0537875), wk =   0.0218480
        k(   52) = (   0.3227248   0.2151499  -0.1075749), wk =   0.0218480
        k(   53) = (   0.3765123   0.2689374  -0.1613624), wk =   0.0218480
        k(   54) = (  -0.2689374  -0.3765123   0.4840872), wk =   0.0218480
        k(   55) = (   0.3227248   0.1075749  -0.0000000), wk =   0.0109240
        k(   56) = (   0.3765123   0.1613624  -0.0537875), wk =   0.0218480
        k(   57) = (   0.4302998   0.2151499  -0.1075749), wk =   0.0218480
        k(   58) = (  -0.2151499  -0.4302998   0.5378747), wk =   0.0218480
        k(   59) = (  -0.1613624  -0.3765123   0.4840872), wk =   0.0218480
        k(   60) = (  -0.1075749  -0.3227248   0.4302998), wk =   0.0218480
        k(   61) = (  -0.0537875  -0.2689374   0.3765123), wk =   0.0218480
        k(   62) = (  -0.0000000  -0.2151499   0.3227248), wk =   0.0109240
        k(   63) = (   0.4302998   0.1075749   0.0000000), wk =   0.0109240
        k(   64) = (   0.4840872   0.1613624  -0.0537875), wk =   0.0218480
        k(   65) = (  -0.1613624  -0.4840872   0.5916622), wk =   0.0218480
        k(   66) = (  -0.1075749  -0.4302998   0.5378747), wk =   0.0218480
        k(   67) = (  -0.0537875  -0.3765123   0.4840872), wk =   0.0218480
        k(   68) = (   0.0000000  -0.3227248   0.4302998), wk =   0.0109240
        k(   69) = (   0.5378747   0.1075749   0.0000000), wk =   0.0109240
        k(   70) = (  -0.1075749  -0.5378747   0.6454497), wk =   0.0218480
        k(   71) = (  -0.0537875  -0.4840872   0.5916622), wk =   0.0218480
        k(   72) = (   0.0000000  -0.4302998   0.5378747), wk =   0.0109240
        k(   73) = (  -0.0537875  -0.5916622   0.6992371), wk =   0.0109240
        k(   74) = (   0.0000000  -0.5378747   0.6454497), wk =   0.0109240
        k(   75) = (   0.4302998   0.2151499   0.0000000), wk =   0.0109240
        k(   76) = (  -0.2151499  -0.4302998   0.6454497), wk =   0.0218480
        k(   77) = (  -0.1613624  -0.3765123   0.5916622), wk =   0.0218480
        k(   78) = (  -0.1613624  -0.4840872   0.6992371), wk =   0.0109240
        k(   79) = (  -0.1075749  -0.4302998   0.6454497), wk =   0.0218480
        k(   80) = (  -0.0537875  -0.3765123   0.5916622), wk =   0.0218480
        k(   81) = (   0.0000000  -0.3227248   0.5378747), wk =   0.0109240
        k(   82) = (  -0.0537875  -0.4840872   0.6992371), wk =   0.0109240
        k(   83) = (  -0.0000000  -0.4302998   0.6454497), wk =   0.0109240
        k(   84) = (  -0.0537875  -0.3765123   0.6992371), wk =   0.0109240

     Dense  grid:    10849 G-vectors     FFT dimensions: (  32,  32,  32)

     Smooth grid:     3839 G-vectors     FFT dimensions: (  24,  24,  24)

     Estimated max dynamical RAM per process >       6.31 MB

     Estimated total dynamical RAM >      50.45 MB
     Generating pointlists ...

     Initial potential from superposition of free atoms

     starting charge      10.9999, renormalised to      11.0000
     Starting wfcs are    9 randomized atomic wfcs +    1 random wfcs

     total cpu time spent up to now is       43.4 secs

     Self-consistent Calculation

     iteration #  1     ecut=    40.00 Ry     beta= 0.50
     Davidson diagonalization with overlap
     c_bands:  1 eigenvalues not converged
     c_bands:  1 eigenvalues not converged
     c_bands:  1 eigenvalues not converged
     c_bands:  1 eigenvalues not converged
     c_bands:  1 eigenvalues not converged
     c_bands:  1 eigenvalues not converged
     ethr =  1.00E-06,  avg # of iterations = 11.9

     total cpu time spent up to now is       45.4 secs

     total energy              =     -66.85517445 Ry
     estimated scf accuracy    <       0.07947877 Ry

     total magnetization       =     0.00 Bohr mag/cell
     absolute magnetization    =     0.00 Bohr mag/cell

     iteration #  2     ecut=    40.00 Ry     beta= 0.50
     Davidson diagonalization with overlap
     ethr =  7.23E-04,  avg # of iterations =  2.0

     total cpu time spent up to now is       46.1 secs

     total energy              =     -66.87391743 Ry
     estimated scf accuracy    <       0.00196239 Ry

     total magnetization       =     0.00 Bohr mag/cell
     absolute magnetization    =     0.00 Bohr mag/cell

     iteration #  3     ecut=    40.00 Ry     beta= 0.50
     Davidson diagonalization with overlap
     ethr =  1.78E-05,  avg # of iterations =  1.6

     total cpu time spent up to now is       46.8 secs

     total energy              =     -66.87422684 Ry
     estimated scf accuracy    <       0.00012286 Ry

     total magnetization       =     0.00 Bohr mag/cell
     absolute magnetization    =     0.00 Bohr mag/cell

     iteration #  4     ecut=    40.00 Ry     beta= 0.50
     Davidson diagonalization with overlap
     ethr =  1.12E-06,  avg # of iterations =  1.5

     total cpu time spent up to now is       47.4 secs

     total energy              =     -66.87422844 Ry
     estimated scf accuracy    <       0.00000255 Ry

     total magnetization       =     0.00 Bohr mag/cell
     absolute magnetization    =     0.00 Bohr mag/cell

     iteration #  5     ecut=    40.00 Ry     beta= 0.50
     Davidson diagonalization with overlap
     ethr =  2.32E-08,  avg # of iterations =  1.0

     total cpu time spent up to now is       48.0 secs

     total energy              =     -66.87422881 Ry
     estimated scf accuracy    <       0.00000006 Ry

     total magnetization       =     0.00 Bohr mag/cell
     absolute magnetization    =     0.00 Bohr mag/cell

     iteration #  6     ecut=    40.00 Ry     beta= 0.50
     Davidson diagonalization with overlap
     ethr =  5.31E-10,  avg # of iterations =  1.3

     Magnetic moment per site  (integrated on atomic sphere of radius R)
     atom   1 (R=0.413)  charge=  9.2514  magn=  0.0000

     total cpu time spent up to now is       48.6 secs

     End of self-consistent calculation

     Number of k-points >= 100: set verbosity='high' to print the bands.

     the Fermi energy is    16.3489 ev

!    total energy              =     -66.87422882 Ry
     estimated scf accuracy    <          8.1E-10 Ry
     smearing contrib. (-TS)   =       0.00006965 Ry
     internal energy E=F+TS    =     -66.87429847 Ry

     The total energy is F=E-TS. E is the sum of the following terms:
     one-electron contribution =       9.04740257 Ry
     hartree contribution      =       7.11696896 Ry
     xc contribution           =     -10.46279669 Ry
     ewald contribution        =     -72.57587331 Ry

     total magnetization       =     0.00 Bohr mag/cell
     absolute magnetization    =     0.00 Bohr mag/cell

     convergence has been achieved in   6 iterations

     Forces acting on atoms (cartesian axes, Ry/au):

     atom    1 type  1   force =     0.00000000    0.00000000    0.00000000
     The non-local contrib.  to forces
     atom    1 type  1   force =     0.00000000    0.00000000    0.00000000
     The ionic contribution  to forces
     atom    1 type  1   force =    -0.00000000   -0.00000000   -0.00000000
     The local contribution  to forces
     atom    1 type  1   force =     0.00000000    0.00000000    0.00000000
     The core correction contribution to forces
     atom    1 type  1   force =     0.00000000    0.00000000    0.00000000
     The Hubbard contrib.    to forces
     atom    1 type  1   force =     0.00000000    0.00000000    0.00000000
     The SCF correction term to forces
     atom    1 type  1   force =     0.00000000    0.00000000    0.00000000

     Total force =     0.000000     Total SCF correction =     0.000000


     Computing stress (Cartesian axis) and pressure

          total   stress  (Ry/bohr**3)                   (kbar)     P=        0.10
   0.00000070  -0.00000000   0.00000000            0.10       -0.00        0.00
  -0.00000000   0.00000070   0.00000000           -0.00        0.10        0.00
  -0.00000000   0.00000000   0.00000070           -0.00        0.00        0.10


     init_run     :      0.92s CPU      1.22s WALL (       2 calls)
     electrons    :     43.81s CPU     44.18s WALL (       7 calls)
     update_pot   :      0.29s CPU      0.28s WALL (       4 calls)
     forces       :      0.49s CPU      0.67s WALL (       7 calls)
     stress       :      1.39s CPU      1.73s WALL (       7 calls)

     Called by init_run:
     wfcinit      :      0.30s CPU      0.39s WALL (       2 calls)
     potinit      :      0.21s CPU      0.20s WALL (       3 calls)
     hinit0       :      0.34s CPU      0.35s WALL (       2 calls)

     Called by electrons:
     c_bands      :     37.71s CPU     38.38s WALL (      59 calls)
     sum_band     :      5.62s CPU      5.15s WALL (      59 calls)
     v_of_rho     :      0.14s CPU      0.17s WALL (      65 calls)
     newd         :      0.19s CPU      0.18s WALL (      65 calls)
     mix_rho      :      0.06s CPU      0.06s WALL (      59 calls)

     Called by c_bands:
     init_us_2    :      0.70s CPU      0.66s WALL (   22512 calls)
     init_us_2:cp :      0.67s CPU      0.62s WALL (   22512 calls)
     cegterg      :     31.77s CPU     29.92s WALL (    9912 calls)

     Called by *egterg:
     cdiaghg      :      5.27s CPU      4.96s WALL (   26567 calls)
     h_psi        :     21.97s CPU     20.71s WALL (   27911 calls)
     s_psi        :      0.24s CPU      0.23s WALL (   27911 calls)
     g_psi        :      0.08s CPU      0.08s WALL (   17663 calls)

     Called by h_psi:
     h_psi:calbec :      1.41s CPU      1.34s WALL (   27911 calls)
     vloc_psi     :     20.11s CPU     18.96s WALL (   27911 calls)
     add_vuspsi   :      0.26s CPU      0.24s WALL (   27911 calls)

     General routines
     calbec       :      2.13s CPU      2.02s WALL (   43703 calls)
     fft          :      0.18s CPU      0.18s WALL (     727 calls)
     ffts         :      0.13s CPU      0.13s WALL (     248 calls)
     fftw         :     21.38s CPU     19.98s WALL (  573038 calls)
     interpolate  :      0.14s CPU      0.14s WALL (     130 calls)

     Parallel routines

     PWSCF        :     47.24s CPU     48.90s WALL


   This run was terminated on:  11:10: 7   3Nov2023            

=------------------------------------------------------------------------------=
   JOB DONE.
=------------------------------------------------------------------------------=
