
     Program PWSCF v.7.2 starts on  3Nov2023 at 11: 5:49 

     This program is part of the open-source Quantum ESPRESSO suite
     for quantum simulation of materials; please cite
         "P. Giannozzi et al., J. Phys.:Condens. Matter 21 395502 (2009);
         "P. Giannozzi et al., J. Phys.:Condens. Matter 29 465901 (2017);
         "P. Giannozzi et al., J. Chem. Phys. 152 154105 (2020);
          URL http://www.quantum-espresso.org", 
     in publications or presentations arising from this work. More details at
     http://www.quantum-espresso.org/quote

     Parallel version (MPI), running on     8 processors

     MPI processes distributed on     8 nodes
     185448 MiB available memory on the printing compute node when the environment starts

     Waiting for input...
     Reading input from standard input

     Current dimensions of program PWSCF are:
     Max number of different atomic species (ntypx) = 10
     Max number of k-points (npk) =  40000
     Max angular momentum in pseudopotentials (lmaxx) =  4
     Message from routine setup:
     using ibrav=0 with symmetry is DISCOURAGED, use correct ibrav instead

     R & G space division:  proc/nbgrp/npool/nimage =       8
     Subspace diagonalization in iterative solution of the eigenvalue problem:
     a serial algorithm will be used


     Parallelization info
     --------------------
     sticks:   dense  smooth     PW     G-vecs:    dense   smooth      PW
     Min          79      39     12                 1301      461      80
     Max          80      40     13                 1303      463      81
     Sum         637     313     97                10417     3695     645

     Using Slab Decomposition



     bravais-lattice index     =            0
     lattice parameter (alat)  =       5.3450  a.u.
     unit-cell volume          =     107.9734 (a.u.)^3
     number of atoms/cell      =            1
     number of atomic types    =            1
     number of electrons       =        11.00
     number of Kohn-Sham states=           10
     kinetic-energy cutoff     =      40.0000  Ry
     charge density cutoff     =     320.0000  Ry
     scf convergence threshold =      1.0E-07
     mixing beta               =       0.5000
     number of iterations used =            8  plain     mixing
     energy convergence thresh.=      1.0E-04
     force convergence thresh. =      1.0E-03
     press convergence thresh. =      5.0E-01
     Exchange-correlation=  SLA  PZ   NOGX NOGC
                           (   1   1   0   0   0   0   0)
     nstep                     =           50


     celldm(1)=   5.344953  celldm(2)=   0.000000  celldm(3)=   0.000000
     celldm(4)=   0.000000  celldm(5)=   0.000000  celldm(6)=   0.000000

     crystal axes: (cart. coord. in units of alat)
               a(1) = (   0.000000   0.707107   0.707107 )  
               a(2) = (   0.707107   0.000000   0.707107 )  
               a(3) = (   0.707107   0.707107   0.000000 )  

     reciprocal axes: (cart. coord. in units 2 pi/alat)
               b(1) = ( -0.707107  0.707107  0.707107 )  
               b(2) = (  0.707107 -0.707107  0.707107 )  
               b(3) = (  0.707107  0.707107 -0.707107 )  


     PseudoPot. # 1 for Au read from file:
     /home/gridsan/epan1/labutil/lab3_samples/pseudopotentials/Au.pz-d-rrkjus.UPF
     MD5 check sum: 424ffd4ac9c90487cbadcd287136c95b
     Pseudo is Ultrasoft, Zval = 11.0
     Generated by new atomic code, or converted to UPF format
     Using radial grid of 1279 points,  3 beta functions with: 
                l(1) =   2
                l(2) =   2
                l(3) =   1
     Q(r) pseudized with 0 coefficients 


     atomic species   valence    mass     pseudopotential
        Au            11.00   196.96657     Au( 1.00)

     Starting magnetic structure 
     atomic species   magnetization
        Au           0.700

     48 Sym. Ops., with inversion, found



   Cartesian axes

     site n.     atom                  positions (alat units)
         1           Au  tau(   1) = (   0.0000000   0.0000000   0.0000000  )

     number of k points=     3  Methfessel-Paxton smearing, width (Ry)=  0.0200
                       cart. coord. in units 2pi/alat
        k(    1) = (   0.0000000   0.0000000   0.0000000), wk =   0.1250000
        k(    2) = (  -0.3535534  -0.3535534   0.3535534), wk =   0.5000000
        k(    3) = (  -0.7071068   0.0000000   0.0000000), wk =   0.3750000

     Dense  grid:    10417 G-vectors     FFT dimensions: (  32,  32,  32)

     Smooth grid:     3695 G-vectors     FFT dimensions: (  24,  24,  24)

     Estimated max dynamical RAM per process >       4.70 MB

     Estimated total dynamical RAM >      37.59 MB
     Generating pointlists ...
     new r_m :   0.4125 (alat units)  2.2048 (a.u.) for type    1

     Initial potential from superposition of free atoms

     starting charge      10.9999, renormalised to      11.0000
     Starting wfcs are    9 randomized atomic wfcs +    1 random wfcs

     total cpu time spent up to now is        0.4 secs

     Self-consistent Calculation

     iteration #  1     ecut=    40.00 Ry     beta= 0.50
     Davidson diagonalization with overlap
     ethr =  1.00E-02,  avg # of iterations =  7.8

     total cpu time spent up to now is        0.5 secs

     total energy              =     -66.10724199 Ry
     estimated scf accuracy    <       0.57042721 Ry

     total magnetization       =     2.00 Bohr mag/cell
     absolute magnetization    =     2.07 Bohr mag/cell

     iteration #  2     ecut=    40.00 Ry     beta= 0.50
     Davidson diagonalization with overlap
     ethr =  5.19E-03,  avg # of iterations =  2.0

     total cpu time spent up to now is        0.5 secs

     total energy              =     -66.43679358 Ry
     estimated scf accuracy    <       0.38319344 Ry

     total magnetization       =     0.23 Bohr mag/cell
     absolute magnetization    =     0.25 Bohr mag/cell

     iteration #  3     ecut=    40.00 Ry     beta= 0.50
     Davidson diagonalization with overlap
     ethr =  3.48E-03,  avg # of iterations =  1.0

     total cpu time spent up to now is        0.6 secs

     total energy              =     -66.58807581 Ry
     estimated scf accuracy    <       0.08646542 Ry

     total magnetization       =     0.24 Bohr mag/cell
     absolute magnetization    =     0.48 Bohr mag/cell

     iteration #  4     ecut=    40.00 Ry     beta= 0.50
     Davidson diagonalization with overlap
     ethr =  7.86E-04,  avg # of iterations =  1.5

     total cpu time spent up to now is        0.6 secs

     total energy              =     -66.59973614 Ry
     estimated scf accuracy    <       0.01156825 Ry

     total magnetization       =    -0.33 Bohr mag/cell
     absolute magnetization    =     0.36 Bohr mag/cell

     iteration #  5     ecut=    40.00 Ry     beta= 0.50
     Davidson diagonalization with overlap
     ethr =  1.05E-04,  avg # of iterations =  1.0

     total cpu time spent up to now is        0.6 secs

     total energy              =     -66.60155594 Ry
     estimated scf accuracy    <       0.00056883 Ry

     total magnetization       =    -0.07 Bohr mag/cell
     absolute magnetization    =     0.26 Bohr mag/cell

     iteration #  6     ecut=    40.00 Ry     beta= 0.50
     Davidson diagonalization with overlap
     ethr =  5.17E-06,  avg # of iterations =  2.3

     total cpu time spent up to now is        0.7 secs

     total energy              =     -66.60168163 Ry
     estimated scf accuracy    <       0.00015442 Ry

     total magnetization       =    -0.04 Bohr mag/cell
     absolute magnetization    =     0.29 Bohr mag/cell

     iteration #  7     ecut=    40.00 Ry     beta= 0.50
     Davidson diagonalization with overlap
     ethr =  1.40E-06,  avg # of iterations =  1.0

     total cpu time spent up to now is        0.7 secs

     total energy              =     -66.60181840 Ry
     estimated scf accuracy    <       0.00007410 Ry

     total magnetization       =     0.07 Bohr mag/cell
     absolute magnetization    =     0.30 Bohr mag/cell

     iteration #  8     ecut=    40.00 Ry     beta= 0.50
     Davidson diagonalization with overlap
     ethr =  6.74E-07,  avg # of iterations =  1.8

     total cpu time spent up to now is        0.7 secs

     total energy              =     -66.60188149 Ry
     estimated scf accuracy    <       0.00005557 Ry

     total magnetization       =     0.12 Bohr mag/cell
     absolute magnetization    =     0.29 Bohr mag/cell

     iteration #  9     ecut=    40.00 Ry     beta= 0.50
     Davidson diagonalization with overlap
     ethr =  5.05E-07,  avg # of iterations =  1.5

     total cpu time spent up to now is        0.8 secs

     total energy              =     -66.60190901 Ry
     estimated scf accuracy    <       0.00005886 Ry

     total magnetization       =     0.11 Bohr mag/cell
     absolute magnetization    =     0.26 Bohr mag/cell

     iteration # 10     ecut=    40.00 Ry     beta= 0.50
     Davidson diagonalization with overlap
     ethr =  5.05E-07,  avg # of iterations =  1.2

     total cpu time spent up to now is        0.8 secs

     total energy              =     -66.60192239 Ry
     estimated scf accuracy    <       0.00000187 Ry

     total magnetization       =     0.13 Bohr mag/cell
     absolute magnetization    =     0.27 Bohr mag/cell

     iteration # 11     ecut=    40.00 Ry     beta= 0.50
     Davidson diagonalization with overlap
     ethr =  1.70E-08,  avg # of iterations =  1.8

     total cpu time spent up to now is        0.8 secs

     total energy              =     -66.60193542 Ry
     estimated scf accuracy    <       0.00000127 Ry

     total magnetization       =     0.15 Bohr mag/cell
     absolute magnetization    =     0.26 Bohr mag/cell

     iteration # 12     ecut=    40.00 Ry     beta= 0.50
     Davidson diagonalization with overlap
     ethr =  1.15E-08,  avg # of iterations =  1.8

     total cpu time spent up to now is        0.9 secs

     total energy              =     -66.60184155 Ry
     estimated scf accuracy    <       0.00000179 Ry

     total magnetization       =     0.16 Bohr mag/cell
     absolute magnetization    =     0.24 Bohr mag/cell

     iteration # 13     ecut=    40.00 Ry     beta= 0.50
     Davidson diagonalization with overlap
     ethr =  1.15E-08,  avg # of iterations =  2.5

     total cpu time spent up to now is        0.9 secs

     total energy              =     -66.60202427 Ry
     estimated scf accuracy    <       0.00005584 Ry

     total magnetization       =     0.24 Bohr mag/cell
     absolute magnetization    =     0.24 Bohr mag/cell

     iteration # 14     ecut=    40.00 Ry     beta= 0.50
     Davidson diagonalization with overlap
     ethr =  1.15E-08,  avg # of iterations =  2.0

     total cpu time spent up to now is        1.0 secs

     total energy              =     -66.60164352 Ry
     estimated scf accuracy    <       0.00009208 Ry

     total magnetization       =     0.27 Bohr mag/cell
     absolute magnetization    =     0.27 Bohr mag/cell

     iteration # 15     ecut=    40.00 Ry     beta= 0.50
     Davidson diagonalization with overlap
     ethr =  1.15E-08,  avg # of iterations =  2.5

     total cpu time spent up to now is        1.0 secs

     total energy              =     -66.60196825 Ry
     estimated scf accuracy    <       0.00017385 Ry

     total magnetization       =     0.20 Bohr mag/cell
     absolute magnetization    =     0.25 Bohr mag/cell

     iteration # 16     ecut=    40.00 Ry     beta= 0.50
     Davidson diagonalization with overlap
     ethr =  1.15E-08,  avg # of iterations =  1.0

     total cpu time spent up to now is        1.0 secs

     total energy              =     -66.60198334 Ry
     estimated scf accuracy    <       0.00016946 Ry

     total magnetization       =     0.20 Bohr mag/cell
     absolute magnetization    =     0.25 Bohr mag/cell

     iteration # 17     ecut=    40.00 Ry     beta= 0.50
     Davidson diagonalization with overlap
     ethr =  1.15E-08,  avg # of iterations =  2.0

     total cpu time spent up to now is        1.1 secs

     total energy              =     -66.60143982 Ry
     estimated scf accuracy    <       0.00025688 Ry

     total magnetization       =     0.22 Bohr mag/cell
     absolute magnetization    =     0.25 Bohr mag/cell

     iteration # 18     ecut=    40.00 Ry     beta= 0.50
     Davidson diagonalization with overlap
     ethr =  1.15E-08,  avg # of iterations =  3.2

     total cpu time spent up to now is        1.1 secs

     total energy              =     -66.60182803 Ry
     estimated scf accuracy    <       0.00004681 Ry

     total magnetization       =     0.32 Bohr mag/cell
     absolute magnetization    =     0.33 Bohr mag/cell

     iteration # 19     ecut=    40.00 Ry     beta= 0.50
     Davidson diagonalization with overlap
     ethr =  1.15E-08,  avg # of iterations =  3.0
     Minimization algorithm failed to find Fermi energy: reverting to bisection
     Possible cause: smearing is larger than the electronic band-gap.

     total cpu time spent up to now is        1.2 secs

     total energy              =     -66.60120861 Ry
     estimated scf accuracy    <       0.00063955 Ry

     total magnetization       =     0.33 Bohr mag/cell
     absolute magnetization    =     0.33 Bohr mag/cell

     iteration # 20     ecut=    40.00 Ry     beta= 0.50
     Davidson diagonalization with overlap
     ethr =  1.15E-08,  avg # of iterations =  3.2

     total cpu time spent up to now is        1.2 secs

     total energy              =     -66.60201843 Ry
     estimated scf accuracy    <       0.00025166 Ry

     total magnetization       =     0.25 Bohr mag/cell
     absolute magnetization    =     0.25 Bohr mag/cell

     iteration # 21     ecut=    40.00 Ry     beta= 0.50
     Davidson diagonalization with overlap
     ethr =  1.15E-08,  avg # of iterations =  1.8

     total cpu time spent up to now is        1.2 secs

     total energy              =     -66.60202415 Ry
     estimated scf accuracy    <       0.00014166 Ry

     total magnetization       =     0.26 Bohr mag/cell
     absolute magnetization    =     0.26 Bohr mag/cell

     iteration # 22     ecut=    40.00 Ry     beta= 0.50
     Davidson diagonalization with overlap
     ethr =  1.15E-08,  avg # of iterations =  1.5

     total cpu time spent up to now is        1.3 secs

     total energy              =     -66.60191630 Ry
     estimated scf accuracy    <       0.00009401 Ry

     total magnetization       =     0.27 Bohr mag/cell
     absolute magnetization    =     0.27 Bohr mag/cell

     iteration # 23     ecut=    40.00 Ry     beta= 0.50
     Davidson diagonalization with overlap
     ethr =  1.15E-08,  avg # of iterations =  2.7

     total cpu time spent up to now is        1.3 secs

     total energy              =     -66.60205751 Ry
     estimated scf accuracy    <       0.00000527 Ry

     total magnetization       =     0.32 Bohr mag/cell
     absolute magnetization    =     0.32 Bohr mag/cell

     iteration # 24     ecut=    40.00 Ry     beta= 0.50
     Davidson diagonalization with overlap
     ethr =  1.15E-08,  avg # of iterations =  1.5

     total cpu time spent up to now is        1.3 secs

     total energy              =     -66.60206355 Ry
     estimated scf accuracy    <       0.00001981 Ry

     total magnetization       =     0.31 Bohr mag/cell
     absolute magnetization    =     0.31 Bohr mag/cell

     iteration # 25     ecut=    40.00 Ry     beta= 0.50
     Davidson diagonalization with overlap
     ethr =  1.15E-08,  avg # of iterations =  1.5

     total cpu time spent up to now is        1.4 secs

     total energy              =     -66.60200321 Ry
     estimated scf accuracy    <       0.00001985 Ry

     total magnetization       =     0.31 Bohr mag/cell
     absolute magnetization    =     0.31 Bohr mag/cell

     iteration # 26     ecut=    40.00 Ry     beta= 0.50
     Davidson diagonalization with overlap
     ethr =  1.15E-08,  avg # of iterations =  2.3

     total cpu time spent up to now is        1.4 secs

     total energy              =     -66.60206138 Ry
     estimated scf accuracy    <       0.00002134 Ry

     total magnetization       =     0.33 Bohr mag/cell
     absolute magnetization    =     0.33 Bohr mag/cell

     iteration # 27     ecut=    40.00 Ry     beta= 0.50
     Davidson diagonalization with overlap
     ethr =  1.15E-08,  avg # of iterations =  2.0

     total cpu time spent up to now is        1.5 secs

     total energy              =     -66.60207329 Ry
     estimated scf accuracy    <       0.00000048 Ry

     total magnetization       =     0.32 Bohr mag/cell
     absolute magnetization    =     0.32 Bohr mag/cell

     iteration # 28     ecut=    40.00 Ry     beta= 0.50
     Davidson diagonalization with overlap
     ethr =  4.33E-09,  avg # of iterations =  1.0

     total cpu time spent up to now is        1.5 secs

     total energy              =     -66.60207333 Ry
     estimated scf accuracy    <       0.00000011 Ry

     total magnetization       =     0.32 Bohr mag/cell
     absolute magnetization    =     0.32 Bohr mag/cell

     iteration # 29     ecut=    40.00 Ry     beta= 0.50
     Davidson diagonalization with overlap
     ethr =  9.87E-10,  avg # of iterations =  1.0

     Magnetic moment per site  (integrated on atomic sphere of radius R)
     atom   1 (R=0.413)  charge=  9.3159  magn=  0.2503

     total cpu time spent up to now is        1.5 secs

     End of self-consistent calculation

 ------ SPIN UP ------------


          k = 0.0000 0.0000 0.0000 (   459 PWs)   bands (ev):

     6.2978  12.1028  12.1028  12.1028  13.9259  13.9259  33.3132  37.3547
    37.3547  37.3547

          k =-0.3536-0.3536 0.3536 (   464 PWs)   bands (ev):

     9.0990  12.1041  12.1041  15.2485  15.2485  15.6863  20.4378  32.4616
    35.4490  35.4490

          k =-0.7071 0.0000 0.0000 (   460 PWs)   bands (ev):

     9.4616   9.7592  15.2555  15.5798  15.5798  17.7861  23.1854  27.5629
    27.5629  34.6861

 ------ SPIN DOWN ----------


          k = 0.0000 0.0000 0.0000 (   459 PWs)   bands (ev):

     6.4625  12.3608  12.3608  12.3608  14.0922  14.0922  33.4739  37.5124
    37.5124  37.5124

          k =-0.3536-0.3536 0.3536 (   464 PWs)   bands (ev):

     9.3125  12.3064  12.3064  15.4850  15.4850  15.8508  20.6668  32.6366
    35.6085  35.6085

          k =-0.7071 0.0000 0.0000 (   460 PWs)   bands (ev):

     9.6258   9.9984  15.4237  15.8667  15.8667  17.9447  23.3628  27.7208
    27.7208  34.8881

     the Fermi energy is    15.9463 ev

!    total energy              =     -66.60207333 Ry
     estimated scf accuracy    <       0.00000002 Ry
     smearing contrib. (-TS)   =      -0.00018252 Ry
     internal energy E=F+TS    =     -66.60189081 Ry

     The total energy is F=E-TS. E is the sum of the following terms:
     one-electron contribution =      10.31774012 Ry
     hartree contribution      =       7.01658331 Ry
     xc contribution           =     -10.54352737 Ry
     ewald contribution        =     -73.39268687 Ry

     total magnetization       =     0.32 Bohr mag/cell
     absolute magnetization    =     0.32 Bohr mag/cell

     convergence has been achieved in  29 iterations

     Forces acting on atoms (cartesian axes, Ry/au):

     atom    1 type  1   force =     0.00000000    0.00000000    0.00000000
     The non-local contrib.  to forces
     atom    1 type  1   force =     0.00000000    0.00000000    0.00000000
     The ionic contribution  to forces
     atom    1 type  1   force =    -0.00000000   -0.00000000   -0.00000000
     The local contribution  to forces
     atom    1 type  1   force =     0.00000000    0.00000000    0.00000000
     The core correction contribution to forces
     atom    1 type  1   force =     0.00000000    0.00000000    0.00000000
     The Hubbard contrib.    to forces
     atom    1 type  1   force =     0.00000000    0.00000000    0.00000000
     The SCF correction term to forces
     atom    1 type  1   force =     0.00000000    0.00000000    0.00000000

     Total force =     0.000000     Total SCF correction =     0.000000


     Computing stress (Cartesian axis) and pressure

          total   stress  (Ry/bohr**3)                   (kbar)     P=      567.61
   0.00385854   0.00000000   0.00000000          567.61        0.00        0.00
   0.00000000   0.00385854  -0.00000000            0.00      567.61       -0.00
   0.00000000  -0.00000000   0.00385854            0.00       -0.00      567.61


     BFGS Geometry Optimization
     Energy error            =      0.0E+00 Ry
     Gradient error          =      0.0E+00 Ry/Bohr
     Cell gradient error     =      5.7E+02 kbar

     number of scf cycles    =   1
     number of bfgs steps    =   0

     enthalpy           new  =     -66.6020733304 Ry

     new trust radius        =       0.2004707243 bohr
     new conv_thr            =       0.0000001000 Ry

     new unit-cell volume =    142.33085 a.u.^3 (    21.09126 Ang^3 )
     density =     15.50741 g/cm^3

CELL_PARAMETERS (angstrom)
   0.000000000   2.192926847   2.192926847
   2.192926847   0.000000000   2.192926847
   2.192926847   2.192926847  -0.000000000

ATOMIC_POSITIONS (angstrom)
Au            0.0000000000        0.0000000000        0.0000000000



     Writing config-only to output data dir /home/gridsan/epan1/labutil/lab3_samples/problem3/Lab3/Au_a_4.0_ecut_40_nk_2/pwscf.save/
     NEW-OLD atomic charge density approx. for the potential
     extrapolated charge   13.65529, renormalised to   11.00000
     Generating pointlists ...

     total cpu time spent up to now is        1.8 secs

     Self-consistent Calculation

     iteration #  1     ecut=    40.00 Ry     beta= 0.50
     Davidson diagonalization with overlap
     ethr =  1.00E-06,  avg # of iterations =  5.0

     total cpu time spent up to now is        1.8 secs

     total energy              =     -65.13001496 Ry
     estimated scf accuracy    <       1.22289755 Ry

     total magnetization       =     0.58 Bohr mag/cell
     absolute magnetization    =     0.58 Bohr mag/cell

     iteration #  2     ecut=    40.00 Ry     beta= 0.50
     Davidson diagonalization with overlap
     ethr =  1.00E-02,  avg # of iterations =  2.0

     total cpu time spent up to now is        1.9 secs

     total energy              =     -66.76257371 Ry
     estimated scf accuracy    <       2.06565699 Ry

     total magnetization       =     0.27 Bohr mag/cell
     absolute magnetization    =     0.27 Bohr mag/cell

     iteration #  3     ecut=    40.00 Ry     beta= 0.50
     Davidson diagonalization with overlap
     ethr =  1.00E-02,  avg # of iterations =  1.0

     total cpu time spent up to now is        1.9 secs

     total energy              =     -66.64436097 Ry
     estimated scf accuracy    <       0.50190669 Ry

     total magnetization       =     0.27 Bohr mag/cell
     absolute magnetization    =     0.27 Bohr mag/cell

     iteration #  4     ecut=    40.00 Ry     beta= 0.50
     Davidson diagonalization with overlap
     ethr =  4.56E-03,  avg # of iterations =  1.2

     total cpu time spent up to now is        1.9 secs

     total energy              =     -66.67067194 Ry
     estimated scf accuracy    <       0.07604132 Ry

     total magnetization       =     0.20 Bohr mag/cell
     absolute magnetization    =     0.20 Bohr mag/cell

     iteration #  5     ecut=    40.00 Ry     beta= 0.50
     Davidson diagonalization with overlap
     ethr =  6.91E-04,  avg # of iterations =  1.0

     total cpu time spent up to now is        2.0 secs

     total energy              =     -66.64554764 Ry
     estimated scf accuracy    <       0.03876503 Ry

     total magnetization       =     0.21 Bohr mag/cell
     absolute magnetization    =     0.21 Bohr mag/cell

     iteration #  6     ecut=    40.00 Ry     beta= 0.50
     Davidson diagonalization with overlap
     ethr =  3.52E-04,  avg # of iterations =  2.0

     total cpu time spent up to now is        2.0 secs

     total energy              =     -66.65623391 Ry
     estimated scf accuracy    <       0.00423292 Ry

     total magnetization       =     0.25 Bohr mag/cell
     absolute magnetization    =     0.28 Bohr mag/cell

     iteration #  7     ecut=    40.00 Ry     beta= 0.50
     Davidson diagonalization with overlap
     ethr =  3.85E-05,  avg # of iterations =  2.0

     total cpu time spent up to now is        2.0 secs

     total energy              =     -66.65424174 Ry
     estimated scf accuracy    <       0.00890874 Ry

     total magnetization       =     0.26 Bohr mag/cell
     absolute magnetization    =     0.27 Bohr mag/cell

     iteration #  8     ecut=    40.00 Ry     beta= 0.50
     Davidson diagonalization with overlap
     ethr =  3.85E-05,  avg # of iterations =  2.0

     total cpu time spent up to now is        2.1 secs

     total energy              =     -66.65654965 Ry
     estimated scf accuracy    <       0.00632524 Ry

     total magnetization       =     0.28 Bohr mag/cell
     absolute magnetization    =     0.32 Bohr mag/cell

     iteration #  9     ecut=    40.00 Ry     beta= 0.50
     Davidson diagonalization with overlap
     ethr =  3.85E-05,  avg # of iterations =  2.0

     total cpu time spent up to now is        2.1 secs

     total energy              =     -66.65796192 Ry
     estimated scf accuracy    <       0.00002824 Ry

     total magnetization       =     0.28 Bohr mag/cell
     absolute magnetization    =     0.31 Bohr mag/cell

     iteration # 10     ecut=    40.00 Ry     beta= 0.50
     Davidson diagonalization with overlap
     ethr =  2.57E-07,  avg # of iterations =  1.8

     total cpu time spent up to now is        2.1 secs

     total energy              =     -66.65796560 Ry
     estimated scf accuracy    <       0.00000145 Ry

     total magnetization       =     0.28 Bohr mag/cell
     absolute magnetization    =     0.31 Bohr mag/cell

     iteration # 11     ecut=    40.00 Ry     beta= 0.50
     Davidson diagonalization with overlap
     ethr =  1.32E-08,  avg # of iterations =  2.0

     Magnetic moment per site  (integrated on atomic sphere of radius R)
     atom   1 (R=0.413)  charge=  9.0641  magn=  0.0680

     total cpu time spent up to now is        2.2 secs

     End of self-consistent calculation

 ------ SPIN UP ------------


          k = 0.0000 0.0000 0.0000 (   459 PWs)   bands (ev):

     3.1136   7.6295   7.6295   7.6295   8.7207   8.7207  26.7319  28.9868
    28.9868  28.9868

          k =-0.3224-0.3224 0.3224 (   464 PWs)   bands (ev):

     5.5625   7.6187   7.6187   9.5652   9.5652  10.9320  13.2353  25.9028
    26.7941  26.7941

          k =-0.6449 0.0000 0.0000 (   460 PWs)   bands (ev):

     5.8917   6.1395   9.5382   9.7850   9.7850  12.5704  15.2868  20.5452
    20.5452  25.9520

 ------ SPIN DOWN ----------


          k = 0.0000 0.0000 0.0000 (   459 PWs)   bands (ev):

     3.3823   7.6922   7.6922   7.6922   8.7662   8.7662  27.0421  29.2838
    29.2838  29.2838

          k =-0.3224-0.3224 0.3224 (   464 PWs)   bands (ev):

     5.7094   7.6885   7.6885   9.5959   9.5959  11.2507  13.3515  26.2748
    27.0260  27.0260

          k =-0.6449 0.0000 0.0000 (   460 PWs)   bands (ev):

     6.0354   6.2360   9.5706   9.8101   9.8101  12.8549  15.4262  20.8193
    20.8193  26.2631

     the Fermi energy is    11.2398 ev

!    total energy              =     -66.65796600 Ry
     estimated scf accuracy    <       0.00000002 Ry
     smearing contrib. (-TS)   =      -0.00079190 Ry
     internal energy E=F+TS    =     -66.65717409 Ry

     The total energy is F=E-TS. E is the sum of the following terms:
     one-electron contribution =       1.06334005 Ry
     hartree contribution      =       9.54645268 Ry
     xc contribution           =     -10.33113907 Ry
     ewald contribution        =     -66.93582776 Ry

     total magnetization       =     0.28 Bohr mag/cell
     absolute magnetization    =     0.31 Bohr mag/cell

     convergence has been achieved in  11 iterations

     Forces acting on atoms (cartesian axes, Ry/au):

     atom    1 type  1   force =     0.00000000    0.00000000    0.00000000
     The non-local contrib.  to forces
     atom    1 type  1   force =     0.00000000    0.00000000    0.00000000
     The ionic contribution  to forces
     atom    1 type  1   force =    -0.00000000   -0.00000000   -0.00000000
     The local contribution  to forces
     atom    1 type  1   force =     0.00000000    0.00000000    0.00000000
     The core correction contribution to forces
     atom    1 type  1   force =     0.00000000    0.00000000    0.00000000
     The Hubbard contrib.    to forces
     atom    1 type  1   force =     0.00000000    0.00000000    0.00000000
     The SCF correction term to forces
     atom    1 type  1   force =     0.00000000    0.00000000    0.00000000

     Total force =     0.000000     Total SCF correction =     0.000000


     Computing stress (Cartesian axis) and pressure

          total   stress  (Ry/bohr**3)                   (kbar)     P=      -12.77
  -0.00008678  -0.00000000   0.00000000          -12.77       -0.00        0.00
   0.00000000  -0.00008678  -0.00000000            0.00      -12.77       -0.00
  -0.00000000   0.00000000  -0.00008678           -0.00        0.00      -12.77

     Energy error            =      5.6E-02 Ry
     Gradient error          =      0.0E+00 Ry/Bohr
     Cell gradient error     =      1.3E+01 kbar

     number of scf cycles    =   2
     number of bfgs steps    =   1

     enthalpy           old  =     -66.6020733304 Ry
     enthalpy           new  =     -66.6579659967 Ry

     CASE: enthalpy          _new < enthalpy          _old

     new trust radius        =       0.0055262105 bohr
     new conv_thr            =       0.0000000010 Ry

     new unit-cell volume =    141.34420 a.u.^3 (    20.94505 Ang^3 )
     density =     15.61566 g/cm^3

CELL_PARAMETERS (angstrom)
   0.000000000   2.187847919   2.187847919
   2.187847919   0.000000000   2.187847919
   2.187847919   2.187847919  -0.000000000

ATOMIC_POSITIONS (angstrom)
Au            0.0000000000        0.0000000000        0.0000000000



     Writing config-only to output data dir /home/gridsan/epan1/labutil/lab3_samples/problem3/Lab3/Au_a_4.0_ecut_40_nk_2/pwscf.save/
     NEW-OLD atomic charge density approx. for the potential
     extrapolated charge   10.92322, renormalised to   11.00000
     Generating pointlists ...

     total cpu time spent up to now is        2.4 secs

     Self-consistent Calculation

     iteration #  1     ecut=    40.00 Ry     beta= 0.50
     Davidson diagonalization with overlap
     ethr =  1.00E-06,  avg # of iterations =  2.0

     total cpu time spent up to now is        2.4 secs

     total energy              =     -66.65700197 Ry
     estimated scf accuracy    <       0.00085524 Ry

     total magnetization       =     0.28 Bohr mag/cell
     absolute magnetization    =     0.31 Bohr mag/cell

     iteration #  2     ecut=    40.00 Ry     beta= 0.50
     Davidson diagonalization with overlap
     ethr =  7.77E-06,  avg # of iterations =  2.0

     total cpu time spent up to now is        2.5 secs

     total energy              =     -66.65804430 Ry
     estimated scf accuracy    <       0.00072619 Ry

     total magnetization       =     0.28 Bohr mag/cell
     absolute magnetization    =     0.31 Bohr mag/cell

     iteration #  3     ecut=    40.00 Ry     beta= 0.50
     Davidson diagonalization with overlap
     ethr =  6.60E-06,  avg # of iterations =  1.0

     total cpu time spent up to now is        2.5 secs

     total energy              =     -66.65800846 Ry
     estimated scf accuracy    <       0.00016565 Ry

     total magnetization       =     0.28 Bohr mag/cell
     absolute magnetization    =     0.31 Bohr mag/cell

     iteration #  4     ecut=    40.00 Ry     beta= 0.50
     Davidson diagonalization with overlap
     ethr =  1.51E-06,  avg # of iterations =  2.0

     total cpu time spent up to now is        2.6 secs

     total energy              =     -66.65801720 Ry
     estimated scf accuracy    <       0.00001526 Ry

     total magnetization       =     0.28 Bohr mag/cell
     absolute magnetization    =     0.31 Bohr mag/cell

     iteration #  5     ecut=    40.00 Ry     beta= 0.50
     Davidson diagonalization with overlap
     ethr =  1.39E-07,  avg # of iterations =  2.0

     total cpu time spent up to now is        2.6 secs

     total energy              =     -66.65801959 Ry
     estimated scf accuracy    <       0.00000020 Ry

     total magnetization       =     0.28 Bohr mag/cell
     absolute magnetization    =     0.31 Bohr mag/cell

     iteration #  6     ecut=    40.00 Ry     beta= 0.50
     Davidson diagonalization with overlap
     ethr =  1.78E-09,  avg # of iterations =  2.0

     total cpu time spent up to now is        2.6 secs

     total energy              =     -66.65801956 Ry
     estimated scf accuracy    <       0.00000049 Ry

     total magnetization       =     0.28 Bohr mag/cell
     absolute magnetization    =     0.31 Bohr mag/cell

     iteration #  7     ecut=    40.00 Ry     beta= 0.50
     Davidson diagonalization with overlap
     ethr =  1.78E-09,  avg # of iterations =  2.0

     Magnetic moment per site  (integrated on atomic sphere of radius R)
     atom   1 (R=0.413)  charge=  9.0696  magn=  0.0688

     total cpu time spent up to now is        2.7 secs

     End of self-consistent calculation

 ------ SPIN UP ------------


          k = 0.0000 0.0000 0.0000 (   459 PWs)   bands (ev):

     3.1819   7.7375   7.7375   7.7375   8.8431   8.8431  26.8794  29.1775
    29.1775  29.1775

          k =-0.3232-0.3232 0.3232 (   464 PWs)   bands (ev):

     5.6462   7.7262   7.7262   9.6986   9.6986  11.0328  13.3971  26.0482
    26.9884  26.9884

          k =-0.6464 0.0000 0.0000 (   460 PWs)   bands (ev):

     5.9765   6.2284   9.6714   9.9215   9.9215  12.6822  15.4625  20.6998
    20.6998  26.1463

 ------ SPIN DOWN ----------


          k = 0.0000 0.0000 0.0000 (   459 PWs)   bands (ev):

     3.4498   7.7997   7.7997   7.7997   8.8881   8.8881  27.1884  29.4743
    29.4743  29.4743

          k =-0.3232-0.3232 0.3232 (   464 PWs)   bands (ev):

     5.7926   7.7955   7.7955   9.7287   9.7287  11.3507  13.5123  26.4192
    27.2194  27.2194

          k =-0.6464 0.0000 0.0000 (   460 PWs)   bands (ev):

     6.1202   6.3245   9.7032   9.9458   9.9458  12.9657  15.6008  20.9729
    20.9729  26.4564

     the Fermi energy is    11.3398 ev

!    total energy              =     -66.65801966 Ry
     estimated scf accuracy    <          4.4E-11 Ry
     smearing contrib. (-TS)   =      -0.00079321 Ry
     internal energy E=F+TS    =     -66.65722645 Ry

     The total energy is F=E-TS. E is the sum of the following terms:
     one-electron contribution =       1.28666385 Ry
     hartree contribution      =       9.48379693 Ry
     xc contribution           =     -10.33647287 Ry
     ewald contribution        =     -67.09121436 Ry

     total magnetization       =     0.28 Bohr mag/cell
     absolute magnetization    =     0.31 Bohr mag/cell

     convergence has been achieved in   7 iterations

     Forces acting on atoms (cartesian axes, Ry/au):

     atom    1 type  1   force =     0.00000000    0.00000000    0.00000000
     The non-local contrib.  to forces
     atom    1 type  1   force =     0.00000000    0.00000000    0.00000000
     The ionic contribution  to forces
     atom    1 type  1   force =    -0.00000000   -0.00000000   -0.00000000
     The local contribution  to forces
     atom    1 type  1   force =     0.00000000    0.00000000    0.00000000
     The core correction contribution to forces
     atom    1 type  1   force =     0.00000000    0.00000000    0.00000000
     The Hubbard contrib.    to forces
     atom    1 type  1   force =     0.00000000    0.00000000    0.00000000
     The SCF correction term to forces
     atom    1 type  1   force =     0.00000000    0.00000000    0.00000000

     Total force =     0.000000     Total SCF correction =     0.000000


     Computing stress (Cartesian axis) and pressure

          total   stress  (Ry/bohr**3)                   (kbar)     P=       -3.70
  -0.00002514   0.00000000   0.00000000           -3.70        0.00        0.00
   0.00000000  -0.00002514   0.00000000            0.00       -3.70        0.00
  -0.00000000   0.00000000  -0.00002514           -0.00        0.00       -3.70

     Energy error            =      5.4E-05 Ry
     Gradient error          =      0.0E+00 Ry/Bohr
     Cell gradient error     =      3.7E+00 kbar

     number of scf cycles    =   3
     number of bfgs steps    =   2

     enthalpy           old  =     -66.6579659967 Ry
     enthalpy           new  =     -66.6580196609 Ry

     CASE: enthalpy          _new < enthalpy          _old

     new trust radius        =       0.0022370340 bohr
     new conv_thr            =       0.0000000010 Ry

     new unit-cell volume =    140.94564 a.u.^3 (    20.88599 Ang^3 )
     density =     15.65981 g/cm^3

CELL_PARAMETERS (angstrom)
   0.000000000   2.185789562   2.185789562
   2.185789562   0.000000000   2.185789562
   2.185789562   2.185789562  -0.000000000

ATOMIC_POSITIONS (angstrom)
Au            0.0000000000        0.0000000000        0.0000000000



     Writing config-only to output data dir /home/gridsan/epan1/labutil/lab3_samples/problem3/Lab3/Au_a_4.0_ecut_40_nk_2/pwscf.save/
     NEW-OLD atomic charge density approx. for the potential
     extrapolated charge   10.96889, renormalised to   11.00000
     Generating pointlists ...

     total cpu time spent up to now is        2.9 secs

     Self-consistent Calculation

     iteration #  1     ecut=    40.00 Ry     beta= 0.50
     Davidson diagonalization with overlap
     ethr =  1.00E-06,  avg # of iterations =  2.0

     total cpu time spent up to now is        2.9 secs

     total energy              =     -66.65785798 Ry
     estimated scf accuracy    <       0.00013779 Ry

     total magnetization       =     0.28 Bohr mag/cell
     absolute magnetization    =     0.31 Bohr mag/cell

     iteration #  2     ecut=    40.00 Ry     beta= 0.50
     Davidson diagonalization with overlap
     ethr =  1.25E-06,  avg # of iterations =  2.0

     total cpu time spent up to now is        3.0 secs

     total energy              =     -66.65802896 Ry
     estimated scf accuracy    <       0.00011823 Ry

     total magnetization       =     0.28 Bohr mag/cell
     absolute magnetization    =     0.31 Bohr mag/cell

     iteration #  3     ecut=    40.00 Ry     beta= 0.50
     Davidson diagonalization with overlap
     ethr =  1.07E-06,  avg # of iterations =  1.0

     total cpu time spent up to now is        3.0 secs

     total energy              =     -66.65802293 Ry
     estimated scf accuracy    <       0.00002719 Ry

     total magnetization       =     0.28 Bohr mag/cell
     absolute magnetization    =     0.31 Bohr mag/cell

     iteration #  4     ecut=    40.00 Ry     beta= 0.50
     Davidson diagonalization with overlap
     ethr =  2.47E-07,  avg # of iterations =  2.0

     total cpu time spent up to now is        3.0 secs

     total energy              =     -66.65802438 Ry
     estimated scf accuracy    <       0.00000245 Ry

     total magnetization       =     0.28 Bohr mag/cell
     absolute magnetization    =     0.31 Bohr mag/cell

     iteration #  5     ecut=    40.00 Ry     beta= 0.50
     Davidson diagonalization with overlap
     ethr =  2.23E-08,  avg # of iterations =  2.0

     total cpu time spent up to now is        3.1 secs

     total energy              =     -66.65802481 Ry
     estimated scf accuracy    <       0.00000002 Ry

     total magnetization       =     0.28 Bohr mag/cell
     absolute magnetization    =     0.31 Bohr mag/cell

     iteration #  6     ecut=    40.00 Ry     beta= 0.50
     Davidson diagonalization with overlap
     ethr =  1.39E-10,  avg # of iterations =  2.0

     total cpu time spent up to now is        3.1 secs

     total energy              =     -66.65802481 Ry
     estimated scf accuracy    <       0.00000003 Ry

     total magnetization       =     0.28 Bohr mag/cell
     absolute magnetization    =     0.31 Bohr mag/cell

     iteration #  7     ecut=    40.00 Ry     beta= 0.50
     Davidson diagonalization with overlap
     ethr =  1.39E-10,  avg # of iterations =  2.0

     Magnetic moment per site  (integrated on atomic sphere of radius R)
     atom   1 (R=0.413)  charge=  9.0718  magn=  0.0691

     total cpu time spent up to now is        3.1 secs

     End of self-consistent calculation

 ------ SPIN UP ------------


          k = 0.0000 0.0000 0.0000 (   459 PWs)   bands (ev):

     3.2095   7.7816   7.7816   7.7816   8.8931   8.8931  26.9392  29.2549
    29.2549  29.2549

          k =-0.3235-0.3235 0.3235 (   464 PWs)   bands (ev):

     5.6802   7.7700   7.7700   9.7531   9.7531  11.0736  13.4631  26.1071
    27.0674  27.0674

          k =-0.6470 0.0000 0.0000 (   460 PWs)   bands (ev):

     6.0110   6.2646   9.7258   9.9772   9.9772  12.7276  15.5341  20.7625
    20.7625  26.2253

 ------ SPIN DOWN ----------


          k = 0.0000 0.0000 0.0000 (   459 PWs)   bands (ev):

     3.4777   7.8439   7.8439   7.8439   8.9382   8.9382  27.2483  29.5523
    29.5523  29.5523

          k =-0.3235-0.3235 0.3235 (   464 PWs)   bands (ev):

     5.8269   7.8395   7.8395   9.7833   9.7833  11.3918  13.5783  26.4784
    27.2986  27.2986

          k =-0.6470 0.0000 0.0000 (   460 PWs)   bands (ev):

     6.1551   6.3610   9.7578  10.0016  10.0016  13.0112  15.6725  21.0359
    21.0359  26.5356

     the Fermi energy is    11.3809 ev

!    total energy              =     -66.65802481 Ry
     estimated scf accuracy    <          6.4E-10 Ry
     smearing contrib. (-TS)   =      -0.00079281 Ry
     internal energy E=F+TS    =     -66.65723200 Ry

     The total energy is F=E-TS. E is the sum of the following terms:
     one-electron contribution =       1.37751692 Ry
     hartree contribution      =       9.45826849 Ry
     xc contribution           =     -10.33862329 Ry
     ewald contribution        =     -67.15439413 Ry

     total magnetization       =     0.28 Bohr mag/cell
     absolute magnetization    =     0.31 Bohr mag/cell

     convergence has been achieved in   7 iterations

     Forces acting on atoms (cartesian axes, Ry/au):

     atom    1 type  1   force =     0.00000000    0.00000000    0.00000000
     The non-local contrib.  to forces
     atom    1 type  1   force =    -0.00000000   -0.00000000    0.00000000
     The ionic contribution  to forces
     atom    1 type  1   force =    -0.00000000   -0.00000000   -0.00000000
     The local contribution  to forces
     atom    1 type  1   force =     0.00000000    0.00000000    0.00000000
     The core correction contribution to forces
     atom    1 type  1   force =     0.00000000    0.00000000    0.00000000
     The Hubbard contrib.    to forces
     atom    1 type  1   force =     0.00000000    0.00000000    0.00000000
     The SCF correction term to forces
     atom    1 type  1   force =     0.00000000    0.00000000    0.00000000

     Total force =     0.000000     Total SCF correction =     0.000000


     Computing stress (Cartesian axis) and pressure

          total   stress  (Ry/bohr**3)                   (kbar)     P=       -0.30
  -0.00000202   0.00000000   0.00000000           -0.30        0.00        0.00
   0.00000000  -0.00000202   0.00000000            0.00       -0.30        0.00
   0.00000000   0.00000000  -0.00000202            0.00        0.00       -0.30

     Energy error            =      5.2E-06 Ry
     Gradient error          =      0.0E+00 Ry/Bohr
     Cell gradient error     =      3.0E-01 kbar

     bfgs converged in   4 scf cycles and   3 bfgs steps
     (criteria: energy <  1.0E-04 Ry, force <  1.0E-03 Ry/Bohr, cell <  5.0E-01 kbar)

     End of BFGS Geometry Optimization

     Final enthalpy           =     -66.6580248148 Ry

     File /home/gridsan/epan1/labutil/lab3_samples/problem3/Lab3/Au_a_4.0_ecut_40_nk_2/pwscf.bfgs deleted, as requested
Begin final coordinates
     new unit-cell volume =    140.94564 a.u.^3 (    20.88599 Ang^3 )
     density =     15.65981 g/cm^3

CELL_PARAMETERS (angstrom)
   0.000000000   2.185789562   2.185789562
   2.185789562   0.000000000   2.185789562
   2.185789562   2.185789562  -0.000000000

ATOMIC_POSITIONS (angstrom)
Au            0.0000000000        0.0000000000        0.0000000000
End final coordinates



     Writing config-only to output data dir /home/gridsan/epan1/labutil/lab3_samples/problem3/Lab3/Au_a_4.0_ecut_40_nk_2/pwscf.save/

     Final scf calculation at the relaxed structure.
     The G-vectors are recalculated for the final unit cell
     Results may differ from those at the preceding step.

     Parallelization info
     --------------------
     sticks:   dense  smooth     PW     G-vecs:    dense   smooth      PW
     Min          93      47     15                 1703      613     108
     Max          94      48     16                 1708      615     110
     Sum         745     379    121                13635     4909     869

     Using Slab Decomposition



     bravais-lattice index     =            0
     lattice parameter (alat)  =       5.3450  a.u.
     unit-cell volume          =     140.9456 (a.u.)^3
     number of atoms/cell      =            1
     number of atomic types    =            1
     number of electrons       =        11.00
     number of Kohn-Sham states=           10
     kinetic-energy cutoff     =      40.0000  Ry
     charge density cutoff     =     320.0000  Ry
     scf convergence threshold =      1.0E-09
     mixing beta               =       0.5000
     number of iterations used =            8  plain     mixing
     press convergence thresh. =      5.0E-01
     Exchange-correlation=  SLA  PZ   NOGX NOGC
                           (   1   1   0   0   0   0   0)

     celldm(1)=   5.344953  celldm(2)=   0.000000  celldm(3)=   0.000000
     celldm(4)=   0.000000  celldm(5)=   0.000000  celldm(6)=   0.000000

     crystal axes: (cart. coord. in units of alat)
               a(1) = (   0.000000   0.772793   0.772793 )  
               a(2) = (   0.772793   0.000000   0.772793 )  
               a(3) = (   0.772793   0.772793  -0.000000 )  

     reciprocal axes: (cart. coord. in units 2 pi/alat)
               b(1) = ( -0.647004  0.647004  0.647004 )  
               b(2) = (  0.647004 -0.647004  0.647004 )  
               b(3) = (  0.647004  0.647004 -0.647004 )  


     PseudoPot. # 1 for Au read from file:
     /home/gridsan/epan1/labutil/lab3_samples/pseudopotentials/Au.pz-d-rrkjus.UPF
     MD5 check sum: 424ffd4ac9c90487cbadcd287136c95b
     Pseudo is Ultrasoft, Zval = 11.0
     Generated by new atomic code, or converted to UPF format
     Using radial grid of 1279 points,  3 beta functions with: 
                l(1) =   2
                l(2) =   2
                l(3) =   1
     Q(r) pseudized with 0 coefficients 


     atomic species   valence    mass     pseudopotential
        Au            11.00   196.96657     Au( 1.00)

     Starting magnetic structure 
     atomic species   magnetization
        Au           0.008

     48 Sym. Ops., with inversion, found



   Cartesian axes

     site n.     atom                  positions (alat units)
         1           Au  tau(   1) = (   0.0000000   0.0000000   0.0000000  )

     number of k points=     3  Methfessel-Paxton smearing, width (Ry)=  0.0200
                       cart. coord. in units 2pi/alat
        k(    1) = (   0.0000000   0.0000000   0.0000000), wk =   0.1250000
        k(    2) = (  -0.3235018  -0.3235018   0.3235018), wk =   0.5000000
        k(    3) = (  -0.6470035   0.0000000   0.0000000), wk =   0.3750000

     Dense  grid:    13635 G-vectors     FFT dimensions: (  36,  36,  36)

     Smooth grid:     4909 G-vectors     FFT dimensions: (  24,  24,  24)

     Estimated max dynamical RAM per process >       6.02 MB

     Estimated total dynamical RAM >      48.18 MB
     Generating pointlists ...

     Initial potential from superposition of free atoms

     starting charge      10.9999, renormalised to      11.0000
     Starting wfcs are    9 randomized atomic wfcs +    1 random wfcs

     total cpu time spent up to now is        3.6 secs

     Self-consistent Calculation

     iteration #  1     ecut=    40.00 Ry     beta= 0.50
     Davidson diagonalization with overlap
     ethr =  1.00E-06,  avg # of iterations = 10.8

     total cpu time spent up to now is        3.7 secs

     total energy              =     -66.65390493 Ry
     estimated scf accuracy    <       0.02786648 Ry

     total magnetization       =     0.03 Bohr mag/cell
     absolute magnetization    =     0.03 Bohr mag/cell

     iteration #  2     ecut=    40.00 Ry     beta= 0.50
     Davidson diagonalization with overlap
     ethr =  2.53E-04,  avg # of iterations =  2.0

     total cpu time spent up to now is        3.7 secs

     total energy              =     -66.65778156 Ry
     estimated scf accuracy    <       0.00119137 Ry

     total magnetization       =     0.04 Bohr mag/cell
     absolute magnetization    =     0.04 Bohr mag/cell

     iteration #  3     ecut=    40.00 Ry     beta= 0.50
     Davidson diagonalization with overlap
     ethr =  1.08E-05,  avg # of iterations =  1.3

     total cpu time spent up to now is        3.7 secs

     total energy              =     -66.65776931 Ry
     estimated scf accuracy    <       0.00022113 Ry

     total magnetization       =     0.05 Bohr mag/cell
     absolute magnetization    =     0.05 Bohr mag/cell

     iteration #  4     ecut=    40.00 Ry     beta= 0.50
     Davidson diagonalization with overlap
     ethr =  2.01E-06,  avg # of iterations =  1.2

     total cpu time spent up to now is        3.8 secs

     total energy              =     -66.65778637 Ry
     estimated scf accuracy    <       0.00000211 Ry

     total magnetization       =     0.07 Bohr mag/cell
     absolute magnetization    =     0.07 Bohr mag/cell

     iteration #  5     ecut=    40.00 Ry     beta= 0.50
     Davidson diagonalization with overlap
     ethr =  1.92E-08,  avg # of iterations =  2.0

     total cpu time spent up to now is        3.8 secs

     total energy              =     -66.65772604 Ry
     estimated scf accuracy    <       0.00000186 Ry

     total magnetization       =     0.08 Bohr mag/cell
     absolute magnetization    =     0.09 Bohr mag/cell

     iteration #  6     ecut=    40.00 Ry     beta= 0.50
     Davidson diagonalization with overlap
     ethr =  1.69E-08,  avg # of iterations =  2.0

     total cpu time spent up to now is        3.9 secs

     total energy              =     -66.65774436 Ry
     estimated scf accuracy    <       0.00000390 Ry

     total magnetization       =     0.03 Bohr mag/cell
     absolute magnetization    =     0.03 Bohr mag/cell

     iteration #  7     ecut=    40.00 Ry     beta= 0.50
     Davidson diagonalization with overlap
     ethr =  1.69E-08,  avg # of iterations =  1.7

     total cpu time spent up to now is        3.9 secs

     total energy              =     -66.65775816 Ry
     estimated scf accuracy    <       0.00000034 Ry

     total magnetization       =     0.00 Bohr mag/cell
     absolute magnetization    =     0.00 Bohr mag/cell

     iteration #  8     ecut=    40.00 Ry     beta= 0.50
     Davidson diagonalization with overlap
     ethr =  3.13E-09,  avg # of iterations =  1.5

     total cpu time spent up to now is        3.9 secs

     total energy              =     -66.65775821 Ry
     estimated scf accuracy    <       0.00000003 Ry

     total magnetization       =     0.00 Bohr mag/cell
     absolute magnetization    =     0.00 Bohr mag/cell

     iteration #  9     ecut=    40.00 Ry     beta= 0.50
     Davidson diagonalization with overlap
     ethr =  2.96E-10,  avg # of iterations =  2.0

     Magnetic moment per site  (integrated on atomic sphere of radius R)
     atom   1 (R=0.413)  charge=  9.0712  magn= -0.0000

     total cpu time spent up to now is        4.0 secs

     End of self-consistent calculation

 ------ SPIN UP ------------


          k = 0.0000 0.0000 0.0000 (   609 PWs)   bands (ev):

     3.3395   7.8107   7.8107   7.8107   8.9134   8.9134  27.0892  29.3986
    29.3986  29.3986

          k =-0.3235-0.3235 0.3235 (   610 PWs)   bands (ev):

     5.7512   7.8026   7.8026   9.7662   9.7662  11.2277  13.5179  26.2855
    27.1803  27.1803

          k =-0.6470 0.0000 0.0000 (   620 PWs)   bands (ev):

     6.0800   6.3107   9.7396   9.9874   9.9874  12.8657  15.6003  20.8955
    20.8955  26.3717

 ------ SPIN DOWN ----------


          k = 0.0000 0.0000 0.0000 (   609 PWs)   bands (ev):

     3.3395   7.8107   7.8107   7.8107   8.9134   8.9134  27.0891  29.3985
    29.3985  29.3985

          k =-0.3235-0.3235 0.3235 (   610 PWs)   bands (ev):

     5.7512   7.8026   7.8026   9.7662   9.7662  11.2276  13.5179  26.2854
    27.1802  27.1802

          k =-0.6470 0.0000 0.0000 (   620 PWs)   bands (ev):

     6.0800   6.3107   9.7396   9.9875   9.9875  12.8657  15.6002  20.8954
    20.8954  26.3716

     the Fermi energy is    11.3124 ev

!    total energy              =     -66.65775823 Ry
     estimated scf accuracy    <          3.9E-11 Ry
     smearing contrib. (-TS)   =      -0.00206307 Ry
     internal energy E=F+TS    =     -66.65569516 Ry

     The total energy is F=E-TS. E is the sum of the following terms:
     one-electron contribution =       1.37791320 Ry
     hartree contribution      =       9.45731998 Ry
     xc contribution           =     -10.33653421 Ry
     ewald contribution        =     -67.15439413 Ry

     total magnetization       =    -0.00 Bohr mag/cell
     absolute magnetization    =     0.00 Bohr mag/cell

     convergence has been achieved in   9 iterations

     Forces acting on atoms (cartesian axes, Ry/au):

     atom    1 type  1   force =     0.00000000    0.00000000    0.00000000
     The non-local contrib.  to forces
     atom    1 type  1   force =    -0.00000000   -0.00000000    0.00000000
     The ionic contribution  to forces
     atom    1 type  1   force =    -0.00000000   -0.00000000   -0.00000000
     The local contribution  to forces
     atom    1 type  1   force =     0.00000000    0.00000000    0.00000000
     The core correction contribution to forces
     atom    1 type  1   force =     0.00000000    0.00000000    0.00000000
     The Hubbard contrib.    to forces
     atom    1 type  1   force =     0.00000000    0.00000000    0.00000000
     The SCF correction term to forces
     atom    1 type  1   force =    -0.00000000   -0.00000000    0.00000000

     Total force =     0.000000     Total SCF correction =     0.000000


     Computing stress (Cartesian axis) and pressure

          total   stress  (Ry/bohr**3)                   (kbar)     P=       -0.51
  -0.00000347   0.00000000   0.00000000           -0.51        0.00        0.00
   0.00000000  -0.00000347   0.00000000            0.00       -0.51        0.00
   0.00000000   0.00000000  -0.00000347            0.00        0.00       -0.51


     init_run     :      0.64s CPU      0.64s WALL (       2 calls)
     electrons    :      2.50s CPU      2.41s WALL (       5 calls)
     update_pot   :      0.24s CPU      0.23s WALL (       3 calls)
     forces       :      0.20s CPU      0.18s WALL (       5 calls)
     stress       :      0.50s CPU      0.43s WALL (       5 calls)

     Called by init_run:
     wfcinit      :      0.01s CPU      0.01s WALL (       2 calls)
     potinit      :      0.16s CPU      0.16s WALL (       2 calls)
     hinit0       :      0.45s CPU      0.44s WALL (       2 calls)

     Called by electrons:
     c_bands      :      1.47s CPU      1.48s WALL (      63 calls)
     sum_band     :      0.58s CPU      0.53s WALL (      63 calls)
     v_of_rho     :      0.10s CPU      0.11s WALL (      68 calls)
     newd         :      0.20s CPU      0.18s WALL (      68 calls)
     mix_rho      :      0.08s CPU      0.07s WALL (      63 calls)

     Called by c_bands:
     init_us_2    :      0.03s CPU      0.02s WALL (     828 calls)
     init_us_2:cp :      0.02s CPU      0.02s WALL (     828 calls)
     cegterg      :      1.30s CPU      1.21s WALL (     378 calls)

     Called by *egterg:
     cdiaghg      :      0.21s CPU      0.20s WALL (    1152 calls)
     h_psi        :      0.90s CPU      0.83s WALL (    1182 calls)
     s_psi        :      0.01s CPU      0.01s WALL (    1182 calls)
     g_psi        :      0.00s CPU      0.00s WALL (     792 calls)

     Called by h_psi:
     h_psi:calbec :      0.06s CPU      0.05s WALL (    1182 calls)
     vloc_psi     :      0.83s CPU      0.77s WALL (    1182 calls)
     add_vuspsi   :      0.01s CPU      0.01s WALL (    1182 calls)

     General routines
     calbec       :      0.08s CPU      0.07s WALL (    1710 calls)
     fft          :      0.31s CPU      0.30s WALL (     756 calls)
     ffts         :      0.13s CPU      0.13s WALL (     262 calls)
     fftw         :      0.86s CPU      0.80s WALL (   22830 calls)
     interpolate  :      0.14s CPU      0.13s WALL (     136 calls)

     Parallel routines

     PWSCF        :      4.26s CPU      4.16s WALL


   This run was terminated on:  11: 5:53   3Nov2023            

=------------------------------------------------------------------------------=
   JOB DONE.
=------------------------------------------------------------------------------=
