
     Program PWSCF v.7.2 starts on  2Nov2023 at 18:13:54 

     This program is part of the open-source Quantum ESPRESSO suite
     for quantum simulation of materials; please cite
         "P. Giannozzi et al., J. Phys.:Condens. Matter 21 395502 (2009);
         "P. Giannozzi et al., J. Phys.:Condens. Matter 29 465901 (2017);
         "P. Giannozzi et al., J. Chem. Phys. 152 154105 (2020);
          URL http://www.quantum-espresso.org", 
     in publications or presentations arising from this work. More details at
     http://www.quantum-espresso.org/quote

     Parallel version (MPI), running on     2 processors

     MPI processes distributed on     2 nodes
     187031 MiB available memory on the printing compute node when the environment starts

     Waiting for input...
     Reading input from standard input
Warning: card &CELL ignored
Warning: card / ignored

     Current dimensions of program PWSCF are:
     Max number of different atomic species (ntypx) = 10
     Max number of k-points (npk) =  40000
     Max angular momentum in pseudopotentials (lmaxx) =  4
     file O.pz-rrkjus.UPF: wavefunction(s)  2S renormalized
     Message from routine setup:
     using ibrav=0 with symmetry is DISCOURAGED, use correct ibrav instead

     R & G space division:  proc/nbgrp/npool/nimage =       2
     Subspace diagonalization in iterative solution of the eigenvalue problem:
     a serial algorithm will be used


     Parallelization info
     --------------------
     sticks:   dense  smooth     PW     G-vecs:    dense   smooth      PW
     Min         516     254     74                12418     4366     709
     Max         517     255     75                12419     4367     710
     Sum        1033     509    149                24837     8733    1419

     Using Slab Decomposition



     bravais-lattice index     =            0
     lattice parameter (alat)  =       7.3321  a.u.
     unit-cell volume          =     394.1775 (a.u.)^3
     number of atoms/cell      =            5
     number of atomic types    =            3
     number of electrons       =        44.00
     number of Kohn-Sham states=           22
     kinetic-energy cutoff     =      30.0000  Ry
     charge density cutoff     =     240.0000  Ry
     scf convergence threshold =      1.0E-07
     mixing beta               =       0.7000
     number of iterations used =            8  plain     mixing
     energy convergence thresh.=      1.0E-04
     force convergence thresh. =      1.0E-03
     Exchange-correlation= SLA  PZ   NOGX NOGC
                           (   1   1   0   0   0   0   0)
     nstep                     =           50


     celldm(1)=   7.332137  celldm(2)=   0.000000  celldm(3)=   0.000000
     celldm(4)=   0.000000  celldm(5)=   0.000000  celldm(6)=   0.000000

     crystal axes: (cart. coord. in units of alat)
               a(1) = (   1.000000   0.000000   0.000000 )  
               a(2) = (   0.000000   1.000000   0.000000 )  
               a(3) = (   0.000000   0.000000   1.000000 )  

     reciprocal axes: (cart. coord. in units 2 pi/alat)
               b(1) = (  1.000000  0.000000  0.000000 )  
               b(2) = (  0.000000  1.000000  0.000000 )  
               b(3) = (  0.000000  0.000000  1.000000 )  


     PseudoPot. # 1 for O  read from file:
     /home/gridsan/epan1/labutil/lab3_samples/pseudopotentials/O.pz-rrkjus.UPF
     MD5 check sum: 24fb942a68ef5d262e498166c462ef4a
     Pseudo is Ultrasoft, Zval =  6.0
     Generated by new atomic code, or converted to UPF format
     Using radial grid of 1269 points,  4 beta functions with: 
                l(1) =   0
                l(2) =   0
                l(3) =   1
                l(4) =   1
     Q(r) pseudized with 0 coefficients 


     PseudoPot. # 2 for Pb read from file:
     /home/gridsan/epan1/labutil/lab3_samples/pseudopotentials/Pb.pz-d-van.UPF
     MD5 check sum: 4e1e5920686a026ae26139ac417581ff
     Pseudo is Ultrasoft, Zval = 14.0
     Generated by new atomic code, or converted to UPF format
     Using radial grid of  899 points,  6 beta functions with: 
                l(1) =   0
                l(2) =   0
                l(3) =   1
                l(4) =   1
                l(5) =   2
                l(6) =   2
     Q(r) pseudized with  8 coefficients,  rinner =    1.000   1.000   1.000
                                                       1.000   1.000

     PseudoPot. # 3 for Ti read from file:
     /home/gridsan/epan1/labutil/lab3_samples/pseudopotentials/Ti.pz-sp-van_ak.UPF
     MD5 check sum: 545d0e6e05332b8871a8093f427cb0ca
     Pseudo is Ultrasoft, Zval = 12.0
     Generated by new atomic code, or converted to UPF format
     Using radial grid of  851 points,  6 beta functions with: 
                l(1) =   0
                l(2) =   0
                l(3) =   1
                l(4) =   1
                l(5) =   2
                l(6) =   2
     Q(r) pseudized with  8 coefficients,  rinner =    1.000   1.000   1.000
                                                       1.000   1.000

     atomic species   valence    mass     pseudopotential
        O              6.00    15.99900     O ( 1.00)
        Pb            14.00   207.20000     Pb( 1.00)
        Ti            12.00    47.86700     Ti( 1.00)

      8 Sym. Ops. (no inversion) found



   Cartesian axes

     site n.     atom                  positions (alat units)
         1           Pb  tau(   1) = (   0.0000000   0.0000000   0.0000000  )
         2           Ti  tau(   2) = (   0.5000000   0.5000000   0.5894742  )
         3           O   tau(   3) = (   0.0000000   0.5000000   0.5000000  )
         4           O   tau(   4) = (   0.5000000   0.0000000   0.5000000  )
         5           O   tau(   5) = (   0.5000000   0.5000000   0.0000000  )

     number of k points=     6
                       cart. coord. in units 2pi/alat
        k(    1) = (   0.1250000   0.1250000   0.1250000), wk =   0.2500000
        k(    2) = (   0.1250000   0.1250000   0.3750000), wk =   0.2500000
        k(    3) = (   0.1250000   0.3750000   0.3750000), wk =   0.5000000
        k(    4) = (   0.3750000   0.3750000   0.3750000), wk =   0.2500000
        k(    5) = (   0.3750000  -0.1250000   0.1250000), wk =   0.5000000
        k(    6) = (   0.3750000  -0.3750000   0.1250000), wk =   0.2500000

     Dense  grid:    24837 G-vectors     FFT dimensions: (  40,  40,  40)

     Smooth grid:     8733 G-vectors     FFT dimensions: (  25,  25,  25)

     Estimated max dynamical RAM per process >      51.66 MB

     Estimated total dynamical RAM >     103.32 MB

     Initial potential from superposition of free atoms

     starting charge      42.9982, renormalised to      44.0000
     Starting wfcs are   31 randomized atomic wfcs

     total cpu time spent up to now is        1.6 secs

     Self-consistent Calculation

     iteration #  1     ecut=    30.00 Ry     beta= 0.70
     Davidson diagonalization with overlap
     ethr =  1.00E-02,  avg # of iterations =  2.0

     total cpu time spent up to now is        1.8 secs

     total energy              =    -332.61311056 Ry
     estimated scf accuracy    <       1.05484979 Ry

     iteration #  2     ecut=    30.00 Ry     beta= 0.70
     Davidson diagonalization with overlap
     ethr =  2.40E-03,  avg # of iterations =  5.8

     total cpu time spent up to now is        2.2 secs

     total energy              =    -332.55483353 Ry
     estimated scf accuracy    <       2.63868143 Ry

     iteration #  3     ecut=    30.00 Ry     beta= 0.70
     Davidson diagonalization with overlap
     ethr =  2.40E-03,  avg # of iterations =  4.8

     total cpu time spent up to now is        2.6 secs

     total energy              =    -333.10351912 Ry
     estimated scf accuracy    <       0.18270429 Ry

     iteration #  4     ecut=    30.00 Ry     beta= 0.70
     Davidson diagonalization with overlap
     ethr =  4.15E-04,  avg # of iterations =  2.7

     total cpu time spent up to now is        2.8 secs

     total energy              =    -333.10270145 Ry
     estimated scf accuracy    <       0.04065083 Ry

     iteration #  5     ecut=    30.00 Ry     beta= 0.70
     Davidson diagonalization with overlap
     ethr =  9.24E-05,  avg # of iterations =  4.8

     total cpu time spent up to now is        3.2 secs

     total energy              =    -333.12728551 Ry
     estimated scf accuracy    <       0.04357865 Ry

     iteration #  6     ecut=    30.00 Ry     beta= 0.70
     Davidson diagonalization with overlap
     ethr =  9.24E-05,  avg # of iterations =  1.2

     total cpu time spent up to now is        3.5 secs

     total energy              =    -333.12203806 Ry
     estimated scf accuracy    <       0.02268698 Ry

     iteration #  7     ecut=    30.00 Ry     beta= 0.70
     Davidson diagonalization with overlap
     ethr =  5.16E-05,  avg # of iterations =  2.8

     total cpu time spent up to now is        3.7 secs

     total energy              =    -333.12639424 Ry
     estimated scf accuracy    <       0.00044722 Ry

     iteration #  8     ecut=    30.00 Ry     beta= 0.70
     Davidson diagonalization with overlap
     ethr =  1.02E-06,  avg # of iterations =  6.2

     total cpu time spent up to now is        4.1 secs

     total energy              =    -333.12690058 Ry
     estimated scf accuracy    <       0.00061621 Ry

     iteration #  9     ecut=    30.00 Ry     beta= 0.70
     Davidson diagonalization with overlap
     ethr =  1.02E-06,  avg # of iterations =  1.7

     total cpu time spent up to now is        4.4 secs

     total energy              =    -333.12681398 Ry
     estimated scf accuracy    <       0.00030933 Ry

     iteration # 10     ecut=    30.00 Ry     beta= 0.70
     Davidson diagonalization with overlap
     ethr =  7.03E-07,  avg # of iterations =  3.5

     total cpu time spent up to now is        4.7 secs

     total energy              =    -333.12687282 Ry
     estimated scf accuracy    <       0.00000529 Ry

     iteration # 11     ecut=    30.00 Ry     beta= 0.70
     Davidson diagonalization with overlap
     ethr =  1.20E-08,  avg # of iterations =  5.8

     total cpu time spent up to now is        5.1 secs

     total energy              =    -333.12687677 Ry
     estimated scf accuracy    <       0.00001407 Ry

     iteration # 12     ecut=    30.00 Ry     beta= 0.70
     Davidson diagonalization with overlap
     ethr =  1.20E-08,  avg # of iterations =  4.2

     total cpu time spent up to now is        5.4 secs

     End of self-consistent calculation

          k = 0.1250 0.1250 0.1250 (  1096 PWs)   bands (ev):

   -44.2024 -21.4015 -20.7516 -20.7507  -6.3552  -5.3083  -5.0873  -4.1928
    -4.1359  -4.1235  -3.9481  -3.8976   4.4169   6.9809   7.3310   7.9661
     8.3619   8.4334   9.2848   9.6811  10.0613  10.2749

          k = 0.1250 0.1250 0.3750 (  1095 PWs)   bands (ev):

   -44.2011 -21.4588 -20.7489 -20.7479  -5.7898  -5.2917  -4.9270  -4.2295
    -4.1893  -4.1087  -4.0013  -3.9306   3.5369   6.5658   6.6585   7.5887
     8.2638   8.5683   9.5399   9.6324  10.3907  11.0184

          k = 0.1250 0.3750 0.3750 (  1093 PWs)   bands (ev):

   -44.1998 -21.4551 -20.8032 -20.7466  -5.5942  -5.2236  -4.8641  -4.2074
    -4.1718  -4.0799  -3.9757  -3.7487   3.2993   6.2639   6.8684   7.2578
     7.7179   8.6707   9.0070   9.5750   9.8283  10.6018

          k = 0.3750 0.3750 0.3750 (  1082 PWs)   bands (ev):

   -44.1985 -21.4522 -20.8007 -20.8004  -5.4997  -5.1563  -5.0713  -4.1280
    -4.0752  -3.8704  -3.6865  -3.6367   3.9550   5.5587   5.9528   6.5802
     7.4292   7.6882   7.8605  10.1977  10.2786  10.9119

          k = 0.3750-0.1250 0.1250 (  1095 PWs)   bands (ev):

   -44.2011 -21.3987 -20.8071 -20.7489  -6.0315  -5.1166  -4.9796  -4.2150
    -4.1652  -4.1249  -4.0407  -3.8980   3.6934   7.0369   7.2345   7.6473
     8.2934   8.6660   9.1517   9.5312   9.7387  10.7630

          k = 0.3750-0.3750 0.1250 (  1093 PWs)   bands (ev):

   -44.1999 -21.3967 -20.8042 -20.8033  -5.9615  -4.9126  -4.8331  -4.1580
    -4.1444  -4.0488  -3.9608  -3.9212   3.4637   6.5766   6.6819   7.0218
     7.6172   8.7026   9.4545   9.5974   9.9957  10.8885

     highest occupied level (ev):    11.0184

!    total energy              =    -333.12687895 Ry
     estimated scf accuracy    <       0.00000005 Ry

     The total energy is the sum of the following terms:
     one-electron contribution =     -80.52719131 Ry
     hartree contribution      =      68.25767620 Ry
     xc contribution           =     -49.77389444 Ry
     ewald contribution        =    -271.08346941 Ry

     convergence has been achieved in  12 iterations

     Forces acting on atoms (cartesian axes, Ry/au):

     atom    1 type  2   force =     0.00000000    0.00000000    0.03916233
     atom    2 type  3   force =     0.00000000    0.00000000   -0.29685179
     atom    3 type  1   force =     0.00000000    0.00000000    0.01511893
     atom    4 type  1   force =     0.00000000    0.00000000    0.01511893
     atom    5 type  1   force =     0.00000000    0.00000000    0.22745161
     The non-local contrib.  to forces
     atom    1 type  2   force =     0.00000000    0.00000000   -0.01951067
     atom    2 type  3   force =     0.00000000    0.00000000    0.15994495
     atom    3 type  1   force =     0.00000000    0.00000000    0.26413673
     atom    4 type  1   force =     0.00000000    0.00000000    0.26413673
     atom    5 type  1   force =     0.00000000    0.00000000   -0.58946270
     The ionic contribution  to forces
     atom    1 type  2   force =     0.00000000    0.00000000    2.23218843
     atom    2 type  3   force =     0.00000000    0.00000000   -6.12301093
     atom    3 type  1   force =     0.00000000   -0.00000000   -2.41656567
     atom    4 type  1   force =    -0.00000000    0.00000000   -2.41656567
     atom    5 type  1   force =    -0.00000000   -0.00000000    8.72395383
     The local contribution  to forces
     atom    1 type  2   force =     0.00000000    0.00000000   -2.17349927
     atom    2 type  3   force =    -0.00000000   -0.00000000    5.66616529
     atom    3 type  1   force =     0.00000000   -0.00000000    2.16755893
     atom    4 type  1   force =    -0.00000000   -0.00000000    2.16755893
     atom    5 type  1   force =    -0.00000000   -0.00000000   -7.90724475
     The core correction contribution to forces
     atom    1 type  2   force =     0.00000000    0.00000000    0.00000000
     atom    2 type  3   force =     0.00000000    0.00000000    0.00000000
     atom    3 type  1   force =     0.00000000    0.00000000    0.00000000
     atom    4 type  1   force =     0.00000000    0.00000000    0.00000000
     atom    5 type  1   force =     0.00000000    0.00000000    0.00000000
     The Hubbard contrib.    to forces
     atom    1 type  2   force =     0.00000000    0.00000000    0.00000000
     atom    2 type  3   force =     0.00000000    0.00000000    0.00000000
     atom    3 type  1   force =     0.00000000    0.00000000    0.00000000
     atom    4 type  1   force =     0.00000000    0.00000000    0.00000000
     atom    5 type  1   force =     0.00000000    0.00000000    0.00000000
     The SCF correction term to forces
     atom    1 type  2   force =     0.00000000    0.00000000   -0.00000000
     atom    2 type  3   force =    -0.00000000    0.00000000    0.00000000
     atom    3 type  1   force =     0.00000000    0.00000000   -0.00003613
     atom    4 type  1   force =     0.00000000   -0.00000000   -0.00003613
     atom    5 type  1   force =     0.00000000   -0.00000000    0.00018016

     Total force =     0.228454     Total SCF correction =     0.000187


     Computing stress (Cartesian axis) and pressure

          total   stress  (Ry/bohr**3)                   (kbar)     P=       79.45
  -0.00000526   0.00000000   0.00000000           -0.77        0.00        0.00
   0.00000000  -0.00000526   0.00000000            0.00       -0.77        0.00
   0.00000000   0.00000000   0.00163076            0.00        0.00      239.89


     BFGS Geometry Optimization
     Energy error            =      0.0E+00 Ry
     Gradient error          =      2.3E-01 Ry/Bohr

     number of scf cycles    =   1
     number of bfgs steps    =   0

     energy             new  =    -333.1268789519 Ry

     new trust radius        =       0.2274516097 bohr
     new conv_thr            =       0.0000001000 Ry


ATOMIC_POSITIONS (angstrom)
Pb            0.0000000000        0.0000000000        0.0000000000    0   0   0
Ti            1.9400000000        1.9400000000        2.2871600000    0   0   0
O             0.0000000000        1.9400000000        1.9480005912
O             1.9400000000        0.0000000000        1.9480005912
O             1.9400000000        1.9400000000        0.1203622084



     Writing config-only to output data dir /home/gridsan/epan1/labutil/lab3_samples/problem2/Lab3/PbTiO3_a_3.88_ecut_30_nk_4_displ_0.08947368421052632/pwscf.save/
     NEW-OLD atomic charge density approx. for the potential

     total cpu time spent up to now is        6.5 secs

     Self-consistent Calculation

     iteration #  1     ecut=    30.00 Ry     beta= 0.70
     Davidson diagonalization with overlap
     ethr =  1.00E-06,  avg # of iterations = 11.3

     total cpu time spent up to now is        7.1 secs

     total energy              =    -333.14616179 Ry
     estimated scf accuracy    <       0.02019534 Ry

     iteration #  2     ecut=    30.00 Ry     beta= 0.70
     Davidson diagonalization with overlap
     ethr =  4.59E-05,  avg # of iterations =  6.0

     total cpu time spent up to now is        7.5 secs

     total energy              =    -333.14290099 Ry
     estimated scf accuracy    <       0.07006610 Ry

     iteration #  3     ecut=    30.00 Ry     beta= 0.70
     Davidson diagonalization with overlap
     ethr =  4.59E-05,  avg # of iterations =  4.7

     total cpu time spent up to now is        7.8 secs

     total energy              =    -333.15529017 Ry
     estimated scf accuracy    <       0.00122157 Ry

     iteration #  4     ecut=    30.00 Ry     beta= 0.70
     Davidson diagonalization with overlap
     ethr =  2.78E-06,  avg # of iterations =  3.2

     total cpu time spent up to now is        8.1 secs

     total energy              =    -333.15546216 Ry
     estimated scf accuracy    <       0.00029662 Ry

     iteration #  5     ecut=    30.00 Ry     beta= 0.70
     Davidson diagonalization with overlap
     ethr =  6.74E-07,  avg # of iterations =  3.8

     total cpu time spent up to now is        8.5 secs

     total energy              =    -333.15552897 Ry
     estimated scf accuracy    <       0.00001733 Ry

     iteration #  6     ecut=    30.00 Ry     beta= 0.70
     Davidson diagonalization with overlap
     ethr =  3.94E-08,  avg # of iterations =  5.2

     total cpu time spent up to now is        8.8 secs

     total energy              =    -333.15553640 Ry
     estimated scf accuracy    <       0.00000772 Ry

     iteration #  7     ecut=    30.00 Ry     beta= 0.70
     Davidson diagonalization with overlap
     ethr =  1.75E-08,  avg # of iterations =  3.3

     total cpu time spent up to now is        9.1 secs

     total energy              =    -333.15553714 Ry
     estimated scf accuracy    <       0.00000099 Ry

     iteration #  8     ecut=    30.00 Ry     beta= 0.70
     Davidson diagonalization with overlap
     ethr =  2.26E-09,  avg # of iterations =  4.7

     total cpu time spent up to now is        9.4 secs

     total energy              =    -333.15553753 Ry
     estimated scf accuracy    <       0.00000023 Ry

     iteration #  9     ecut=    30.00 Ry     beta= 0.70
     Davidson diagonalization with overlap
     ethr =  5.34E-10,  avg # of iterations =  3.0

     total cpu time spent up to now is        9.7 secs

     End of self-consistent calculation

          k = 0.1250 0.1250 0.1250 (  1096 PWs)   bands (ev):

   -44.4985 -21.3178 -21.0832 -21.0824  -6.3956  -5.3072  -5.1418  -4.1175
    -4.0808  -4.0702  -3.8972  -3.8657   4.4926   7.1499   7.2773   7.9862
     8.6447   8.8510   9.3960   9.6624  10.1347  10.1837

          k = 0.1250 0.1250 0.3750 (  1095 PWs)   bands (ev):

   -44.4972 -21.3763 -21.0807 -21.0798  -5.8667  -5.2539  -4.9971  -4.1624
    -4.1137  -4.0592  -3.9668  -3.8785   3.6867   6.7015   6.8425   7.6219
     8.4896   8.6015   9.4997   9.6725  10.2999  11.0106

          k = 0.1250 0.3750 0.3750 (  1093 PWs)   bands (ev):

   -44.4960 -21.3728 -21.1329 -21.0785  -5.6574  -5.1784  -4.9290  -4.1381
    -4.0981  -4.0291  -3.9310  -3.7257   3.4131   6.4441   6.9826   7.1695
     7.6612   8.7341   9.2037   9.6225   9.9353  10.5979

          k = 0.3750 0.3750 0.3750 (  1082 PWs)   bands (ev):

   -44.4946 -21.3700 -21.1305 -21.1302  -5.4675  -5.1907  -5.1177  -4.0558
    -4.0218  -3.7922  -3.6672  -3.6272   4.0441   5.7875   5.9887   6.5357
     7.3978   7.5468   7.9943  10.3971  10.4752  10.8327

          k = 0.3750-0.1250 0.1250 (  1095 PWs)   bands (ev):

   -44.4973 -21.3152 -21.1365 -21.0806  -6.0449  -5.1442  -5.0402  -4.1512
    -4.0986  -4.0707  -3.9889  -3.8602   3.7816   7.0088   7.3905   7.7515
     8.3604   8.8037   9.2140   9.6655   9.8189  10.7927

          k = 0.3750-0.3750 0.1250 (  1093 PWs)   bands (ev):

   -44.4960 -21.3132 -21.1338 -21.1330  -5.9319  -4.9766  -4.8993  -4.1063
    -4.0810  -4.0055  -3.9231  -3.8473   3.4899   6.8275   6.8860   7.1317
     7.5711   8.6946   9.5589   9.5664   9.9680  10.8218

     highest occupied level (ev):    11.0106

!    total energy              =    -333.15553756 Ry
     estimated scf accuracy    <       0.00000001 Ry

     The total energy is the sum of the following terms:
     one-electron contribution =     -77.62265936 Ry
     hartree contribution      =      66.73392794 Ry
     xc contribution           =     -49.66542899 Ry
     ewald contribution        =    -272.60137714 Ry

     convergence has been achieved in   9 iterations

     Forces acting on atoms (cartesian axes, Ry/au):

     atom    1 type  2   force =     0.00000000    0.00000000    0.04034619
     atom    2 type  3   force =     0.00000000    0.00000000   -0.13376541
     atom    3 type  1   force =     0.00000000    0.00000000    0.02845404
     atom    4 type  1   force =     0.00000000    0.00000000    0.02845404
     atom    5 type  1   force =     0.00000000    0.00000000    0.03651114
     The non-local contrib.  to forces
     atom    1 type  2   force =     0.00000000    0.00000000   -0.02460557
     atom    2 type  3   force =     0.00000000    0.00000000    0.07545201
     atom    3 type  1   force =     0.00000000    0.00000000    0.30444358
     atom    4 type  1   force =     0.00000000    0.00000000    0.30444358
     atom    5 type  1   force =     0.00000000    0.00000000   -0.51273687
     The ionic contribution  to forces
     atom    1 type  2   force =     0.00000000    0.00000000    1.91085418
     atom    2 type  3   force =     0.00000000    0.00000000   -2.99872563
     atom    3 type  1   force =     0.00000000    0.00000000   -2.09437317
     atom    4 type  1   force =     0.00000000    0.00000000   -2.09437317
     atom    5 type  1   force =    -0.00000000   -0.00000000    5.27661781
     The local contribution  to forces
     atom    1 type  2   force =     0.00000000    0.00000000   -1.84590113
     atom    2 type  3   force =    -0.00000000   -0.00000000    2.78944762
     atom    3 type  1   force =     0.00000000   -0.00000000    1.81831902
     atom    4 type  1   force =    -0.00000000    0.00000000    1.81831902
     atom    5 type  1   force =    -0.00000000   -0.00000000   -4.72734976
     The core correction contribution to forces
     atom    1 type  2   force =     0.00000000    0.00000000    0.00000000
     atom    2 type  3   force =     0.00000000    0.00000000    0.00000000
     atom    3 type  1   force =     0.00000000    0.00000000    0.00000000
     atom    4 type  1   force =     0.00000000    0.00000000    0.00000000
     atom    5 type  1   force =     0.00000000    0.00000000    0.00000000
     The Hubbard contrib.    to forces
     atom    1 type  2   force =     0.00000000    0.00000000    0.00000000
     atom    2 type  3   force =     0.00000000    0.00000000    0.00000000
     atom    3 type  1   force =     0.00000000    0.00000000    0.00000000
     atom    4 type  1   force =     0.00000000    0.00000000    0.00000000
     atom    5 type  1   force =     0.00000000    0.00000000    0.00000000
     The SCF correction term to forces
     atom    1 type  2   force =    -0.00000000   -0.00000000   -0.00000000
     atom    2 type  3   force =     0.00000000   -0.00000000    0.00000000
     atom    3 type  1   force =    -0.00000000    0.00000000    0.00003501
     atom    4 type  1   force =    -0.00000000    0.00000000    0.00003501
     atom    5 type  1   force =     0.00000000   -0.00000000   -0.00004965

     Total force =     0.054335     Total SCF correction =     0.000070


     Computing stress (Cartesian axis) and pressure

          total   stress  (Ry/bohr**3)                   (kbar)     P=        4.83
  -0.00013689   0.00000000   0.00000000          -20.14        0.00        0.00
   0.00000000  -0.00013689   0.00000000            0.00      -20.14        0.00
   0.00000000   0.00000000   0.00037223            0.00        0.00       54.76

     Energy error            =      2.9E-02 Ry
     Gradient error          =      3.7E-02 Ry/Bohr

     number of scf cycles    =   2
     number of bfgs steps    =   1

     energy             old  =    -333.1268789519 Ry
     energy             new  =    -333.1555375587 Ry

     CASE: energy            _new < energy            _old

     new trust radius        =       0.0528996964 bohr
     new conv_thr            =       0.0000000365 Ry


ATOMIC_POSITIONS (angstrom)
Pb            0.0000000000        0.0000000000        0.0000000000    0   0   0
Ti            1.9400000000        1.9400000000        2.2871600000    0   0   0
O             0.0000000000        1.9400000000        1.9665680110
O             1.9400000000        0.0000000000        1.9665680110
O             1.9400000000        1.9400000000        0.1483555222



     Writing config-only to output data dir /home/gridsan/epan1/labutil/lab3_samples/problem2/Lab3/PbTiO3_a_3.88_ecut_30_nk_4_displ_0.08947368421052632/pwscf.save/
     NEW-OLD atomic charge density approx. for the potential

     total cpu time spent up to now is       11.0 secs

     Self-consistent Calculation

     iteration #  1     ecut=    30.00 Ry     beta= 0.70
     Davidson diagonalization with overlap
     ethr =  1.00E-06,  avg # of iterations =  8.7

     total cpu time spent up to now is       11.5 secs

     total energy              =    -333.15848908 Ry
     estimated scf accuracy    <       0.00086380 Ry

     iteration #  2     ecut=    30.00 Ry     beta= 0.70
     Davidson diagonalization with overlap
     ethr =  1.96E-06,  avg # of iterations =  5.7

     total cpu time spent up to now is       11.9 secs

     total energy              =    -333.15837877 Ry
     estimated scf accuracy    <       0.00185998 Ry

     iteration #  3     ecut=    30.00 Ry     beta= 0.70
     Davidson diagonalization with overlap
     ethr =  1.96E-06,  avg # of iterations =  4.3

     total cpu time spent up to now is       12.2 secs

     total energy              =    -333.15877150 Ry
     estimated scf accuracy    <       0.00007301 Ry

     iteration #  4     ecut=    30.00 Ry     beta= 0.70
     Davidson diagonalization with overlap
     ethr =  1.66E-07,  avg # of iterations =  2.7

     total cpu time spent up to now is       12.5 secs

     total energy              =    -333.15877699 Ry
     estimated scf accuracy    <       0.00001870 Ry

     iteration #  5     ecut=    30.00 Ry     beta= 0.70
     Davidson diagonalization with overlap
     ethr =  4.25E-08,  avg # of iterations =  4.0

     total cpu time spent up to now is       13.0 secs

     total energy              =    -333.15878059 Ry
     estimated scf accuracy    <       0.00000092 Ry

     iteration #  6     ecut=    30.00 Ry     beta= 0.70
     Davidson diagonalization with overlap
     ethr =  2.09E-09,  avg # of iterations =  6.3

     total cpu time spent up to now is       13.4 secs

     total energy              =    -333.15878117 Ry
     estimated scf accuracy    <       0.00000049 Ry

     iteration #  7     ecut=    30.00 Ry     beta= 0.70
     Davidson diagonalization with overlap
     ethr =  1.11E-09,  avg # of iterations =  3.0

     total cpu time spent up to now is       13.7 secs

     total energy              =    -333.15878118 Ry
     estimated scf accuracy    <       0.00000012 Ry

     iteration #  8     ecut=    30.00 Ry     beta= 0.70
     Davidson diagonalization with overlap
     ethr =  2.81E-10,  avg # of iterations =  4.7

     total cpu time spent up to now is       14.0 secs

     End of self-consistent calculation

          k = 0.1250 0.1250 0.1250 (  1096 PWs)   bands (ev):

   -44.5554 -21.3181 -21.1456 -21.1448  -6.3950  -5.3083  -5.1691  -4.1033
    -4.0711  -4.0610  -3.8886  -3.8610   4.5058   7.1694   7.2622   7.9907
     8.7167   8.9348   9.4331   9.6753  10.1474  10.1506

          k = 0.1250 0.1250 0.3750 (  1095 PWs)   bands (ev):

   -44.5541 -21.3764 -21.1431 -21.1422  -5.8853  -5.2370  -5.0296  -4.1491
    -4.0993  -4.0506  -3.9607  -3.8688   3.7203   6.7134   6.9070   7.6300
     8.5290   8.5840   9.4842   9.6987  10.2664  10.9944

          k = 0.1250 0.3750 0.3750 (  1093 PWs)   bands (ev):

   -44.5529 -21.3729 -21.1956 -21.1409  -5.6752  -5.1576  -4.9489  -4.1251
    -4.0841  -4.0194  -3.9220  -3.7235   3.4320   6.4870   7.0071   7.1230
     7.6211   8.7265   9.2453   9.5993   9.9747  10.5998

          k = 0.3750 0.3750 0.3750 (  1082 PWs)   bands (ev):

   -44.5516 -21.3701 -21.1931 -21.1929  -5.4467  -5.1991  -5.1335  -4.0423
    -4.0124  -3.7749  -3.6636  -3.6258   4.0519   5.8199   5.9750   6.5450
     7.3577   7.4747   8.0104  10.4435  10.5188  10.8034

          k = 0.3750-0.1250 0.1250 (  1095 PWs)   bands (ev):

   -44.5542 -21.3155 -21.1991 -21.1430  -6.0342  -5.1562  -5.0619  -4.1398
    -4.0862  -4.0611  -3.9767  -3.8529   3.7960   6.9789   7.3947   7.7536
     8.3645   8.8269   9.2155   9.7168   9.8430  10.7969

          k = 0.3750-0.3750 0.1250 (  1093 PWs)   bands (ev):

   -44.5529 -21.3136 -21.1963 -21.1955  -5.9061  -4.9965  -4.9208  -4.0974
    -4.0692  -3.9967  -3.9147  -3.8311   3.4872   6.8223   6.9133   7.1541
     7.5464   8.6855   9.5440   9.5700   9.9636  10.7966

     highest occupied level (ev):    10.9944

!    total energy              =    -333.15878120 Ry
     estimated scf accuracy    <       0.00000003 Ry

     The total energy is the sum of the following terms:
     one-electron contribution =     -77.39628643 Ry
     hartree contribution      =      66.60573947 Ry
     xc contribution           =     -49.65188342 Ry
     ewald contribution        =    -272.71635082 Ry

     convergence has been achieved in   8 iterations

     Forces acting on atoms (cartesian axes, Ry/au):

     atom    1 type  2   force =     0.00000000    0.00000000    0.03901544
     atom    2 type  3   force =     0.00000000    0.00000000   -0.10780996
     atom    3 type  1   force =     0.00000000    0.00000000    0.02927591
     atom    4 type  1   force =     0.00000000    0.00000000    0.02927591
     atom    5 type  1   force =     0.00000000    0.00000000    0.01024270
     The non-local contrib.  to forces
     atom    1 type  2   force =     0.00000000    0.00000000   -0.03842936
     atom    2 type  3   force =     0.00000000    0.00000000    0.06301466
     atom    3 type  1   force =     0.00000000    0.00000000    0.30581105
     atom    4 type  1   force =     0.00000000    0.00000000    0.30581105
     atom    5 type  1   force =     0.00000000    0.00000000   -0.47970303
     The ionic contribution  to forces
     atom    1 type  2   force =     0.00000000    0.00000000    2.06733129
     atom    2 type  3   force =     0.00000000    0.00000000   -2.51664735
     atom    3 type  1   force =     0.00000000   -0.00000000   -2.08148110
     atom    4 type  1   force =    -0.00000000    0.00000000   -2.08148110
     atom    5 type  1   force =    -0.00000000   -0.00000000    4.61227826
     The local contribution  to forces
     atom    1 type  2   force =     0.00000000   -0.00000000   -1.98987337
     atom    2 type  3   force =    -0.00000000   -0.00000000    2.34566446
     atom    3 type  1   force =     0.00000000   -0.00000000    1.80487433
     atom    4 type  1   force =    -0.00000000    0.00000000    1.80487433
     atom    5 type  1   force =    -0.00000000   -0.00000000   -4.12228131
     The core correction contribution to forces
     atom    1 type  2   force =     0.00000000    0.00000000    0.00000000
     atom    2 type  3   force =     0.00000000    0.00000000    0.00000000
     atom    3 type  1   force =     0.00000000    0.00000000    0.00000000
     atom    4 type  1   force =     0.00000000    0.00000000    0.00000000
     atom    5 type  1   force =     0.00000000    0.00000000    0.00000000
     The Hubbard contrib.    to forces
     atom    1 type  2   force =     0.00000000    0.00000000    0.00000000
     atom    2 type  3   force =     0.00000000    0.00000000    0.00000000
     atom    3 type  1   force =     0.00000000    0.00000000    0.00000000
     atom    4 type  1   force =     0.00000000    0.00000000    0.00000000
     atom    5 type  1   force =     0.00000000    0.00000000    0.00000000
     The SCF correction term to forces
     atom    1 type  2   force =    -0.00000000    0.00000000   -0.00000000
     atom    2 type  3   force =    -0.00000000   -0.00000000    0.00000000
     atom    3 type  1   force =     0.00000000    0.00000000    0.00004617
     atom    4 type  1   force =     0.00000000   -0.00000000    0.00004617
     atom    5 type  1   force =    -0.00000000    0.00000000   -0.00007668

     Total force =     0.042651     Total SCF correction =     0.000101


     Computing stress (Cartesian axis) and pressure

          total   stress  (Ry/bohr**3)                   (kbar)     P=       -4.32
  -0.00014074   0.00000000   0.00000000          -20.70        0.00        0.00
   0.00000000  -0.00014074   0.00000000            0.00      -20.70        0.00
   0.00000000   0.00000000   0.00019345            0.00        0.00       28.46

     Energy error            =      3.2E-03 Ry
     Gradient error          =      2.9E-02 Ry/Bohr

     number of scf cycles    =   3
     number of bfgs steps    =   2

     energy             old  =    -333.1555375587 Ry
     energy             new  =    -333.1587812018 Ry

     CASE: energy            _new < energy            _old

     new trust radius        =       0.0581896660 bohr
     new conv_thr            =       0.0000000293 Ry


ATOMIC_POSITIONS (angstrom)
Pb            0.0000000000        0.0000000000        0.0000000000    0   0   0
Ti            1.9400000000        1.9400000000        2.2871600000    0   0   0
O             0.0000000000        1.9400000000        1.9973606562
O             1.9400000000        0.0000000000        1.9973606562
O             1.9400000000        1.9400000000        0.1749757325



     Writing config-only to output data dir /home/gridsan/epan1/labutil/lab3_samples/problem2/Lab3/PbTiO3_a_3.88_ecut_30_nk_4_displ_0.08947368421052632/pwscf.save/
     NEW-OLD atomic charge density approx. for the potential

     total cpu time spent up to now is       15.2 secs

     Self-consistent Calculation

     iteration #  1     ecut=    30.00 Ry     beta= 0.70
     Davidson diagonalization with overlap
     ethr =  1.00E-06,  avg # of iterations =  9.2

     total cpu time spent up to now is       15.7 secs

     total energy              =    -333.16193006 Ry
     estimated scf accuracy    <       0.00099918 Ry

     iteration #  2     ecut=    30.00 Ry     beta= 0.70
     Davidson diagonalization with overlap
     ethr =  2.27E-06,  avg # of iterations =  5.0

     total cpu time spent up to now is       16.1 secs

     total energy              =    -333.16180484 Ry
     estimated scf accuracy    <       0.00138527 Ry

     iteration #  3     ecut=    30.00 Ry     beta= 0.70
     Davidson diagonalization with overlap
     ethr =  2.27E-06,  avg # of iterations =  4.5

     total cpu time spent up to now is       16.4 secs

     total energy              =    -333.16215852 Ry
     estimated scf accuracy    <       0.00022776 Ry

     iteration #  4     ecut=    30.00 Ry     beta= 0.70
     Davidson diagonalization with overlap
     ethr =  5.18E-07,  avg # of iterations =  2.3

     total cpu time spent up to now is       16.7 secs

     total energy              =    -333.16216577 Ry
     estimated scf accuracy    <       0.00004416 Ry

     iteration #  5     ecut=    30.00 Ry     beta= 0.70
     Davidson diagonalization with overlap
     ethr =  1.00E-07,  avg # of iterations =  4.3

     total cpu time spent up to now is       17.1 secs

     total energy              =    -333.16218515 Ry
     estimated scf accuracy    <       0.00000838 Ry

     iteration #  6     ecut=    30.00 Ry     beta= 0.70
     Davidson diagonalization with overlap
     ethr =  1.91E-08,  avg # of iterations =  2.2

     total cpu time spent up to now is       17.3 secs

     total energy              =    -333.16218441 Ry
     estimated scf accuracy    <       0.00000452 Ry

     iteration #  7     ecut=    30.00 Ry     beta= 0.70
     Davidson diagonalization with overlap
     ethr =  1.03E-08,  avg # of iterations =  3.5

     total cpu time spent up to now is       17.6 secs

     total energy              =    -333.16218492 Ry
     estimated scf accuracy    <       0.00000038 Ry

     iteration #  8     ecut=    30.00 Ry     beta= 0.70
     Davidson diagonalization with overlap
     ethr =  8.64E-10,  avg # of iterations =  4.7

     total cpu time spent up to now is       18.0 secs

     total energy              =    -333.16218512 Ry
     estimated scf accuracy    <       0.00000006 Ry

     iteration #  9     ecut=    30.00 Ry     beta= 0.70
     Davidson diagonalization with overlap
     ethr =  1.36E-10,  avg # of iterations =  1.8

     total cpu time spent up to now is       18.2 secs

     total energy              =    -333.16218511 Ry
     estimated scf accuracy    <       0.00000003 Ry

     iteration # 10     ecut=    30.00 Ry     beta= 0.70
     Davidson diagonalization with overlap
     ethr =  7.59E-11,  avg # of iterations =  4.2

     total cpu time spent up to now is       18.5 secs

     End of self-consistent calculation

          k = 0.1250 0.1250 0.1250 (  1096 PWs)   bands (ev):

   -44.6059 -21.3233 -21.2018 -21.2010  -6.3941  -5.3145  -5.2083  -4.0890
    -4.0615  -4.0519  -3.8812  -3.8547   4.5189   7.1885   7.2503   8.0035
     8.7806   8.9934   9.4856   9.6977  10.1069  10.1475

          k = 0.1250 0.1250 0.3750 (  1095 PWs)   bands (ev):

   -44.6046 -21.3812 -21.1994 -21.1984  -5.9083  -5.2215  -5.0756  -4.1347
    -4.0847  -4.0420  -3.9525  -3.8593   3.7560   6.7281   6.9828   7.6480
     8.5411   8.5537   9.4577   9.7329  10.2218  10.9670

          k = 0.1250 0.3750 0.3750 (  1093 PWs)   bands (ev):

   -44.6034 -21.3778 -21.2524 -21.1971  -5.6986  -5.1377  -4.9745  -4.1117
    -4.0703  -4.0091  -3.9119  -3.7203   3.4481   6.5339   7.0180   7.0756
     7.5644   8.7116   9.2719   9.5631  10.0089  10.6013

          k = 0.3750 0.3750 0.3750 (  1082 PWs)   bands (ev):

   -44.6020 -21.3751 -21.2499 -21.2496  -5.4244  -5.2096  -5.1545  -4.0287
    -4.0029  -3.7574  -3.6587  -3.6225   4.0504   5.8432   5.9485   6.5646
     7.2935   7.3749   8.0243  10.4850  10.5571  10.7646

          k = 0.3750-0.1250 0.1250 (  1095 PWs)   bands (ev):

   -44.6046 -21.3208 -21.2559 -21.1992  -6.0217  -5.1765  -5.0902  -4.1287
    -4.0737  -4.0517  -3.9614  -3.8443   3.8072   6.9350   7.3854   7.7553
     8.3637   8.8231   9.2188   9.7630   9.8705  10.7980

          k = 0.3750-0.3750 0.1250 (  1093 PWs)   bands (ev):

   -44.6034 -21.3189 -21.2530 -21.2523  -5.8755  -5.0234  -4.9497  -4.0885
    -4.0565  -3.9850  -3.9029  -3.8143   3.4775   6.8061   6.9170   7.1613
     7.5071   8.6714   9.5225   9.5534   9.9641  10.7625

     highest occupied level (ev):    10.9670

!    total energy              =    -333.16218512 Ry
     estimated scf accuracy    <          1.2E-10 Ry

     The total energy is the sum of the following terms:
     one-electron contribution =     -77.43883553 Ry
     hartree contribution      =      66.61240221 Ry
     xc contribution           =     -49.64520487 Ry
     ewald contribution        =    -272.69054692 Ry

     convergence has been achieved in  10 iterations

     Forces acting on atoms (cartesian axes, Ry/au):

     atom    1 type  2   force =     0.00000000    0.00000000    0.03666533
     atom    2 type  3   force =     0.00000000    0.00000000   -0.08601221
     atom    3 type  1   force =     0.00000000    0.00000000    0.02824150
     atom    4 type  1   force =     0.00000000    0.00000000    0.02824150
     atom    5 type  1   force =     0.00000000    0.00000000   -0.00713611
     The non-local contrib.  to forces
     atom    1 type  2   force =     0.00000000    0.00000000   -0.06134672
     atom    2 type  3   force =     0.00000000    0.00000000    0.05249808
     atom    3 type  1   force =     0.00000000    0.00000000    0.30014263
     atom    4 type  1   force =     0.00000000    0.00000000    0.30014263
     atom    5 type  1   force =     0.00000000    0.00000000   -0.43788152
     The ionic contribution  to forces
     atom    1 type  2   force =     0.00000000    0.00000000    2.39696321
     atom    2 type  3   force =    -0.00000000   -0.00000000   -2.24049953
     atom    3 type  1   force =     0.00000000    0.00000000   -2.11143904
     atom    4 type  1   force =     0.00000000    0.00000000   -2.11143904
     atom    5 type  1   force =    -0.00000000   -0.00000000    4.06641441
     The local contribution  to forces
     atom    1 type  2   force =    -0.00000000   -0.00000000   -2.29893531
     atom    2 type  3   force =    -0.00000000   -0.00000000    2.10200269
     atom    3 type  1   force =     0.00000000   -0.00000000    1.83955622
     atom    4 type  1   force =    -0.00000000    0.00000000    1.83955622
     atom    5 type  1   force =    -0.00000000   -0.00000000   -3.63565225
     The core correction contribution to forces
     atom    1 type  2   force =     0.00000000    0.00000000    0.00000000
     atom    2 type  3   force =     0.00000000    0.00000000    0.00000000
     atom    3 type  1   force =     0.00000000    0.00000000    0.00000000
     atom    4 type  1   force =     0.00000000    0.00000000    0.00000000
     atom    5 type  1   force =     0.00000000    0.00000000    0.00000000
     The Hubbard contrib.    to forces
     atom    1 type  2   force =     0.00000000    0.00000000    0.00000000
     atom    2 type  3   force =     0.00000000    0.00000000    0.00000000
     atom    3 type  1   force =     0.00000000    0.00000000    0.00000000
     atom    4 type  1   force =     0.00000000    0.00000000    0.00000000
     atom    5 type  1   force =     0.00000000    0.00000000    0.00000000
     The SCF correction term to forces
     atom    1 type  2   force =    -0.00000000    0.00000000    0.00000000
     atom    2 type  3   force =    -0.00000000   -0.00000000    0.00000000
     atom    3 type  1   force =    -0.00000000   -0.00000000   -0.00000012
     atom    4 type  1   force =    -0.00000000    0.00000000   -0.00000012
     atom    5 type  1   force =    -0.00000000    0.00000000    0.00000145

     Total force =     0.040572     Total SCF correction =     0.000001


     Computing stress (Cartesian axis) and pressure

          total   stress  (Ry/bohr**3)                   (kbar)     P=       -8.74
  -0.00012539   0.00000000   0.00000000          -18.45        0.00        0.00
   0.00000000  -0.00012539   0.00000000            0.00      -18.45        0.00
   0.00000000   0.00000000   0.00007254            0.00        0.00       10.67

     Energy error            =      3.4E-03 Ry
     Gradient error          =      2.8E-02 Ry/Bohr

     number of scf cycles    =   4
     number of bfgs steps    =   3

     energy             old  =    -333.1587812018 Ry
     energy             new  =    -333.1621851176 Ry

     CASE: energy            _new < energy            _old

     new trust radius        =       0.0872844991 bohr
     new conv_thr            =       0.0000000282 Ry


ATOMIC_POSITIONS (angstrom)
Pb            0.0000000000        0.0000000000        0.0000000000    0   0   0
Ti            1.9400000000        1.9400000000        2.2871600000    0   0   0
O             0.0000000000        1.9400000000        2.0435496240
O             1.9400000000        0.0000000000        2.0435496240
O             1.9400000000        1.9400000000        0.2034172428



     Writing config-only to output data dir /home/gridsan/epan1/labutil/lab3_samples/problem2/Lab3/PbTiO3_a_3.88_ecut_30_nk_4_displ_0.08947368421052632/pwscf.save/
     NEW-OLD atomic charge density approx. for the potential

     total cpu time spent up to now is       19.9 secs

     Self-consistent Calculation

     iteration #  1     ecut=    30.00 Ry     beta= 0.70
     Davidson diagonalization with overlap
     ethr =  1.00E-06,  avg # of iterations =  9.7

     total cpu time spent up to now is       20.4 secs

     total energy              =    -333.16579290 Ry
     estimated scf accuracy    <       0.00163953 Ry

     iteration #  2     ecut=    30.00 Ry     beta= 0.70
     Davidson diagonalization with overlap
     ethr =  3.73E-06,  avg # of iterations =  4.2

     total cpu time spent up to now is       20.7 secs

     total energy              =    -333.16574693 Ry
     estimated scf accuracy    <       0.00131714 Ry

     iteration #  3     ecut=    30.00 Ry     beta= 0.70
     Davidson diagonalization with overlap
     ethr =  2.99E-06,  avg # of iterations =  4.3

     total cpu time spent up to now is       21.1 secs

     total energy              =    -333.16608771 Ry
     estimated scf accuracy    <       0.00053552 Ry

     iteration #  4     ecut=    30.00 Ry     beta= 0.70
     Davidson diagonalization with overlap
     ethr =  1.22E-06,  avg # of iterations =  3.0

     total cpu time spent up to now is       21.3 secs

     total energy              =    -333.16612995 Ry
     estimated scf accuracy    <       0.00005358 Ry

     iteration #  5     ecut=    30.00 Ry     beta= 0.70
     Davidson diagonalization with overlap
     ethr =  1.22E-07,  avg # of iterations =  5.0

     total cpu time spent up to now is       21.7 secs

     total energy              =    -333.16617092 Ry
     estimated scf accuracy    <       0.00005432 Ry

     iteration #  6     ecut=    30.00 Ry     beta= 0.70
     Davidson diagonalization with overlap
     ethr =  1.22E-07,  avg # of iterations =  1.0

     total cpu time spent up to now is       21.9 secs

     total energy              =    -333.16616291 Ry
     estimated scf accuracy    <       0.00003348 Ry

     iteration #  7     ecut=    30.00 Ry     beta= 0.70
     Davidson diagonalization with overlap
     ethr =  7.61E-08,  avg # of iterations =  2.7

     total cpu time spent up to now is       22.2 secs

     total energy              =    -333.16616771 Ry
     estimated scf accuracy    <       0.00000238 Ry

     iteration #  8     ecut=    30.00 Ry     beta= 0.70
     Davidson diagonalization with overlap
     ethr =  5.40E-09,  avg # of iterations =  4.8

     total cpu time spent up to now is       22.6 secs

     total energy              =    -333.16616875 Ry
     estimated scf accuracy    <       0.00000015 Ry

     iteration #  9     ecut=    30.00 Ry     beta= 0.70
     Davidson diagonalization with overlap
     ethr =  3.37E-10,  avg # of iterations =  4.7

     total cpu time spent up to now is       22.9 secs

     total energy              =    -333.16616871 Ry
     estimated scf accuracy    <       0.00000034 Ry

     iteration # 10     ecut=    30.00 Ry     beta= 0.70
     Davidson diagonalization with overlap
     ethr =  3.37E-10,  avg # of iterations =  3.5

     total cpu time spent up to now is       23.2 secs

     total energy              =    -333.16616871 Ry
     estimated scf accuracy    <       0.00000006 Ry

     iteration # 11     ecut=    30.00 Ry     beta= 0.70
     Davidson diagonalization with overlap
     ethr =  1.35E-10,  avg # of iterations =  4.2

     total cpu time spent up to now is       23.5 secs

     End of self-consistent calculation

          k = 0.1250 0.1250 0.1250 (  1096 PWs)   bands (ev):

   -44.6555 -21.3324 -21.2581 -21.2574  -6.3987  -5.3229  -5.2672  -4.0699
    -4.0483  -4.0393  -3.8713  -3.8404   4.5346   7.2072   7.2405   8.0245
     8.8430   9.0290   9.5661   9.7285  10.0432  10.1306

          k = 0.1250 0.1250 0.3750 (  1095 PWs)   bands (ev):

   -44.6542 -21.3899 -21.2558 -21.2549  -5.9459  -5.2010  -5.1440  -4.1145
    -4.0649  -4.0297  -3.9359  -3.8463   3.7997   6.7472   7.0785   7.6716
     8.4677   8.5740   9.4124   9.7742  10.1571  10.9266

          k = 0.1250 0.3750 0.3750 (  1093 PWs)   bands (ev):

   -44.6530 -21.3865 -21.3097 -21.2535  -5.7363  -5.1161  -5.0117  -4.0935
    -4.0524  -3.9936  -3.8961  -3.7111   3.4655   6.5896   6.9493   7.0861
     7.4915   8.6820   9.2874   9.5113  10.0393  10.6038

          k = 0.3750 0.3750 0.3750 (  1082 PWs)   bands (ev):

   -44.6517 -21.3838 -21.3072 -21.3069  -5.4047  -5.2211  -5.1879  -4.0105
    -3.9894  -3.7357  -3.6481  -3.6131   4.0370   5.8633   5.9081   6.5918
     7.2015   7.2424   8.0478  10.5240  10.5904  10.7093

          k = 0.3750-0.1250 0.1250 (  1095 PWs)   bands (ev):

   -44.6542 -21.3301 -21.3131 -21.2555  -6.0116  -5.2073  -5.1318  -4.1137
    -4.0560  -4.0384  -3.9369  -3.8292   3.8165   6.8732   7.3592   7.7595
     8.3607   8.7878   9.2285   9.7960   9.9097  10.7983

          k = 0.3750-0.3750 0.1250 (  1093 PWs)   bands (ev):

   -44.6530 -21.3282 -21.3101 -21.3095  -5.8370  -5.0658  -4.9961  -4.0759
    -4.0380  -3.9640  -3.8809  -3.7919   3.4570   6.7774   6.8942   7.1522
     7.4570   8.6558   9.4949   9.5155   9.9761  10.7118

     highest occupied level (ev):    10.9266

!    total energy              =    -333.16616872 Ry
     estimated scf accuracy    <       0.00000002 Ry

     The total energy is the sum of the following terms:
     one-electron contribution =     -77.75537886 Ry
     hartree contribution      =      66.75500613 Ry
     xc contribution           =     -49.64454314 Ry
     ewald contribution        =    -272.52125285 Ry

     convergence has been achieved in  11 iterations

     Forces acting on atoms (cartesian axes, Ry/au):

     atom    1 type  2   force =     0.00000000    0.00000000    0.03359367
     atom    2 type  3   force =     0.00000000    0.00000000   -0.06642934
     atom    3 type  1   force =     0.00000000    0.00000000    0.02525294
     atom    4 type  1   force =     0.00000000    0.00000000    0.02525294
     atom    5 type  1   force =     0.00000000    0.00000000   -0.01767022
     The non-local contrib.  to forces
     atom    1 type  2   force =     0.00000000    0.00000000   -0.09528361
     atom    2 type  3   force =     0.00000000    0.00000000    0.04294818
     atom    3 type  1   force =     0.00000000    0.00000000    0.28668818
     atom    4 type  1   force =     0.00000000    0.00000000    0.28668818
     atom    5 type  1   force =     0.00000000    0.00000000   -0.38257392
     The ionic contribution  to forces
     atom    1 type  2   force =     0.00000000    0.00000000    2.93002661
     atom    2 type  3   force =     0.00000000    0.00000000   -2.14742500
     atom    3 type  1   force =     0.00000000    0.00000000   -2.17578808
     atom    4 type  1   force =     0.00000000    0.00000000   -2.17578808
     atom    5 type  1   force =     0.00000000    0.00000000    3.56897455
     The local contribution  to forces
     atom    1 type  2   force =     0.00000000    0.00000000   -2.80120639
     atom    2 type  3   force =    -0.00000000   -0.00000000    2.03803246
     atom    3 type  1   force =     0.00000000   -0.00000000    1.91438906
     atom    4 type  1   force =    -0.00000000    0.00000000    1.91438906
     atom    5 type  1   force =    -0.00000000   -0.00000000   -3.20414871
     The core correction contribution to forces
     atom    1 type  2   force =     0.00000000    0.00000000    0.00000000
     atom    2 type  3   force =     0.00000000    0.00000000    0.00000000
     atom    3 type  1   force =     0.00000000    0.00000000    0.00000000
     atom    4 type  1   force =     0.00000000    0.00000000    0.00000000
     atom    5 type  1   force =     0.00000000    0.00000000    0.00000000
     The Hubbard contrib.    to forces
     atom    1 type  2   force =     0.00000000    0.00000000    0.00000000
     atom    2 type  3   force =     0.00000000    0.00000000    0.00000000
     atom    3 type  1   force =     0.00000000    0.00000000    0.00000000
     atom    4 type  1   force =     0.00000000    0.00000000    0.00000000
     atom    5 type  1   force =     0.00000000    0.00000000    0.00000000
     The SCF correction term to forces
     atom    1 type  2   force =     0.00000000   -0.00000000    0.00000000
     atom    2 type  3   force =    -0.00000000   -0.00000000    0.00000000
     atom    3 type  1   force =    -0.00000000    0.00000000   -0.00004314
     atom    4 type  1   force =     0.00000000    0.00000000   -0.00004314
     atom    5 type  1   force =    -0.00000000   -0.00000000    0.00007093

     Total force =     0.039845     Total SCF correction =     0.000094


     Computing stress (Cartesian axis) and pressure

          total   stress  (Ry/bohr**3)                   (kbar)     P=       -9.66
  -0.00009354   0.00000000   0.00000000          -13.76        0.00        0.00
   0.00000000  -0.00009354   0.00000000            0.00      -13.76        0.00
   0.00000000   0.00000000  -0.00000998            0.00        0.00       -1.47

     Energy error            =      4.0E-03 Ry
     Gradient error          =      2.5E-02 Ry/Bohr

     number of scf cycles    =   5
     number of bfgs steps    =   4

     energy             old  =    -333.1621851176 Ry
     energy             new  =    -333.1661687173 Ry

     CASE: energy            _new < energy            _old

     new trust radius        =       0.1309267486 bohr
     new conv_thr            =       0.0000000253 Ry


ATOMIC_POSITIONS (angstrom)
Pb            0.0000000000        0.0000000000        0.0000000000    0   0   0
Ti            1.9400000000        1.9400000000        2.2871600000    0   0   0
O             0.0000000000        1.9400000000        2.1128330756
O             1.9400000000        0.0000000000        2.1128330756
O             1.9400000000        1.9400000000        0.2374337069



     Writing config-only to output data dir /home/gridsan/epan1/labutil/lab3_samples/problem2/Lab3/PbTiO3_a_3.88_ecut_30_nk_4_displ_0.08947368421052632/pwscf.save/
     NEW-OLD atomic charge density approx. for the potential

     total cpu time spent up to now is       24.9 secs

     Self-consistent Calculation

     iteration #  1     ecut=    30.00 Ry     beta= 0.70
     Davidson diagonalization with overlap
     ethr =  1.00E-06,  avg # of iterations = 10.8

     total cpu time spent up to now is       25.4 secs

     total energy              =    -333.17008508 Ry
     estimated scf accuracy    <       0.00324192 Ry

     iteration #  2     ecut=    30.00 Ry     beta= 0.70
     Davidson diagonalization with overlap
     ethr =  7.37E-06,  avg # of iterations =  4.2

     total cpu time spent up to now is       25.7 secs

     total energy              =    -333.17010194 Ry
     estimated scf accuracy    <       0.00199051 Ry

     iteration #  3     ecut=    30.00 Ry     beta= 0.70
     Davidson diagonalization with overlap
     ethr =  4.52E-06,  avg # of iterations =  4.3

     total cpu time spent up to now is       26.1 secs

     total energy              =    -333.17060660 Ry
     estimated scf accuracy    <       0.00117460 Ry

     iteration #  4     ecut=    30.00 Ry     beta= 0.70
     Davidson diagonalization with overlap
     ethr =  2.67E-06,  avg # of iterations =  3.3

     total cpu time spent up to now is       26.4 secs

     total energy              =    -333.17071653 Ry
     estimated scf accuracy    <       0.00009039 Ry

     iteration #  5     ecut=    30.00 Ry     beta= 0.70
     Davidson diagonalization with overlap
     ethr =  2.05E-07,  avg # of iterations =  5.3

     total cpu time spent up to now is       26.7 secs

     total energy              =    -333.17079890 Ry
     estimated scf accuracy    <       0.00012580 Ry

     iteration #  6     ecut=    30.00 Ry     beta= 0.70
     Davidson diagonalization with overlap
     ethr =  2.05E-07,  avg # of iterations =  1.3

     total cpu time spent up to now is       27.0 secs

     total energy              =    -333.17078048 Ry
     estimated scf accuracy    <       0.00007783 Ry

     iteration #  7     ecut=    30.00 Ry     beta= 0.70
     Davidson diagonalization with overlap
     ethr =  1.77E-07,  avg # of iterations =  2.7

     total cpu time spent up to now is       27.3 secs

     total energy              =    -333.17079131 Ry
     estimated scf accuracy    <       0.00000529 Ry

     iteration #  8     ecut=    30.00 Ry     beta= 0.70
     Davidson diagonalization with overlap
     ethr =  1.20E-08,  avg # of iterations =  4.8

     total cpu time spent up to now is       27.6 secs

     total energy              =    -333.17079376 Ry
     estimated scf accuracy    <       0.00000057 Ry

     iteration #  9     ecut=    30.00 Ry     beta= 0.70
     Davidson diagonalization with overlap
     ethr =  1.29E-09,  avg # of iterations =  3.3

     total cpu time spent up to now is       27.9 secs

     total energy              =    -333.17079367 Ry
     estimated scf accuracy    <       0.00000061 Ry

     iteration # 10     ecut=    30.00 Ry     beta= 0.70
     Davidson diagonalization with overlap
     ethr =  1.29E-09,  avg # of iterations =  2.3

     total cpu time spent up to now is       28.2 secs

     total energy              =    -333.17079363 Ry
     estimated scf accuracy    <       0.00000018 Ry

     iteration # 11     ecut=    30.00 Ry     beta= 0.70
     Davidson diagonalization with overlap
     ethr =  3.99E-10,  avg # of iterations =  4.8

     total cpu time spent up to now is       28.5 secs

     total energy              =    -333.17079372 Ry
     estimated scf accuracy    <       0.00000011 Ry

     iteration # 12     ecut=    30.00 Ry     beta= 0.70
     Davidson diagonalization with overlap
     ethr =  2.59E-10,  avg # of iterations =  1.0

     total cpu time spent up to now is       28.8 secs

     total energy              =    -333.17079371 Ry
     estimated scf accuracy    <       0.00000006 Ry

     iteration # 13     ecut=    30.00 Ry     beta= 0.70
     Davidson diagonalization with overlap
     ethr =  1.46E-10,  avg # of iterations =  2.8

     total cpu time spent up to now is       29.1 secs

     End of self-consistent calculation

          k = 0.1250 0.1250 0.1250 (  1096 PWs)   bands (ev):

   -44.7102 -21.3477 -21.3213 -21.3205  -6.4220  -5.3604  -5.3275  -4.0387
    -4.0250  -4.0154  -3.8527  -3.8050   4.5562   7.2170   7.2317   8.0516
     8.9097   9.0365   9.6931   9.7644   9.9452  10.0853

          k = 0.1250 0.1250 0.3750 (  1095 PWs)   bands (ev):

   -44.7089 -21.4044 -21.3190 -21.3181  -6.0166  -5.2506  -5.1654  -4.0811
    -4.0316  -4.0067  -3.8974  -3.8226   3.8594   6.7728   7.1962   7.6838
     8.3583   8.6065   9.3338   9.8189  10.0562  10.8739

          k = 0.1250 0.3750 0.3750 (  1093 PWs)   bands (ev):

   -44.7077 -21.4011 -21.3741 -21.3166  -5.8046  -5.1220  -5.0410  -4.0629
    -4.0226  -3.9645  -3.8649  -3.6847   3.4900   6.6521   6.8370   7.0939
     7.4157   8.6220   9.2853   9.4469  10.0689  10.6104

          k = 0.3750 0.3750 0.3750 (  1082 PWs)   bands (ev):

   -44.7064 -21.3985 -21.3715 -21.3713  -5.4111  -5.2480  -5.2179  -3.9798
    -3.9645  -3.7037  -3.6218  -3.5878   4.0011   5.8529   5.8854   6.6169
     7.0719   7.0817   8.1010  10.5612  10.5884  10.6530

          k = 0.3750-0.1250 0.1250 (  1095 PWs)   bands (ev):

   -44.7089 -21.3775 -21.3452 -21.3186  -6.0165  -5.2523  -5.1958  -4.0876
    -4.0250  -4.0139  -3.8921  -3.7968   3.8244   6.7874   7.3077   7.7643
     8.3554   8.7184   9.2446   9.8042   9.9640  10.8049

          k = 0.3750-0.3750 0.1250 (  1093 PWs)   bands (ev):

   -44.7077 -21.3747 -21.3737 -21.3432  -5.7890  -5.1381  -5.0788  -4.0522
    -4.0049  -3.9215  -3.8345  -3.7552   3.4163   6.7293   6.8330   7.1238
     7.4038   8.6436   9.4574   9.4649  10.0114  10.6310

     highest occupied level (ev):    10.8739

!    total energy              =    -333.17079372 Ry
     estimated scf accuracy    <          3.5E-09 Ry

     The total energy is the sum of the following terms:
     one-electron contribution =     -78.45433276 Ry
     hartree contribution      =      67.08659982 Ry
     xc contribution           =     -49.65119711 Ry
     ewald contribution        =    -272.15186367 Ry

     convergence has been achieved in  13 iterations

     Forces acting on atoms (cartesian axes, Ry/au):

     atom    1 type  2   force =     0.00000000    0.00000000    0.03031355
     atom    2 type  3   force =     0.00000000    0.00000000   -0.04937182
     atom    3 type  1   force =     0.00000000    0.00000000    0.01957315
     atom    4 type  1   force =     0.00000000    0.00000000    0.01957315
     atom    5 type  1   force =     0.00000000    0.00000000   -0.02008803
     The non-local contrib.  to forces
     atom    1 type  2   force =     0.00000000    0.00000000   -0.14489106
     atom    2 type  3   force =     0.00000000    0.00000000    0.03407541
     atom    3 type  1   force =     0.00000000    0.00000000    0.26366742
     atom    4 type  1   force =     0.00000000    0.00000000    0.26366742
     atom    5 type  1   force =     0.00000000    0.00000000   -0.30479065
     The ionic contribution  to forces
     atom    1 type  2   force =     0.00000000    0.00000000    3.75067568
     atom    2 type  3   force =     0.00000000    0.00000000   -2.27956927
     atom    3 type  1   force =     0.00000000   -0.00000000   -2.26818768
     atom    4 type  1   force =    -0.00000000    0.00000000   -2.26818768
     atom    5 type  1   force =    -0.00000000   -0.00000000    3.06526895
     The local contribution  to forces
     atom    1 type  2   force =     0.00000000    0.00000000   -3.57547323
     atom    2 type  3   force =    -0.00000000   -0.00000000    2.19613406
     atom    3 type  1   force =     0.00000000   -0.00000000    2.02411124
     atom    4 type  1   force =    -0.00000000    0.00000000    2.02411124
     atom    5 type  1   force =    -0.00000000   -0.00000000   -2.78058255
     The core correction contribution to forces
     atom    1 type  2   force =     0.00000000    0.00000000    0.00000000
     atom    2 type  3   force =     0.00000000    0.00000000    0.00000000
     atom    3 type  1   force =     0.00000000    0.00000000    0.00000000
     atom    4 type  1   force =     0.00000000    0.00000000    0.00000000
     atom    5 type  1   force =     0.00000000    0.00000000    0.00000000
     The Hubbard contrib.    to forces
     atom    1 type  2   force =     0.00000000    0.00000000    0.00000000
     atom    2 type  3   force =     0.00000000    0.00000000    0.00000000
     atom    3 type  1   force =     0.00000000    0.00000000    0.00000000
     atom    4 type  1   force =     0.00000000    0.00000000    0.00000000
     atom    5 type  1   force =     0.00000000    0.00000000    0.00000000
     The SCF correction term to forces
     atom    1 type  2   force =    -0.00000000    0.00000000    0.00000000
     atom    2 type  3   force =    -0.00000000   -0.00000000   -0.00000000
     atom    3 type  1   force =     0.00000000   -0.00000000   -0.00001025
     atom    4 type  1   force =    -0.00000000   -0.00000000   -0.00001025
     atom    5 type  1   force =     0.00000000    0.00000000    0.00002379

     Total force =     0.034202     Total SCF correction =     0.000028


     Computing stress (Cartesian axis) and pressure

          total   stress  (Ry/bohr**3)                   (kbar)     P=       -6.94
  -0.00004163   0.00000000   0.00000000           -6.12        0.00        0.00
   0.00000000  -0.00004163   0.00000000            0.00       -6.12        0.00
   0.00000000   0.00000000  -0.00005828            0.00        0.00       -8.57

     Energy error            =      4.6E-03 Ry
     Gradient error          =      2.0E-02 Ry/Bohr

     number of scf cycles    =   6
     number of bfgs steps    =   5

     energy             old  =    -333.1661687173 Ry
     energy             new  =    -333.1707937150 Ry

     CASE: energy            _new < energy            _old

     new trust radius        =       0.1963901229 bohr
     new conv_thr            =       0.0000000201 Ry


ATOMIC_POSITIONS (angstrom)
Pb            0.0000000000        0.0000000000        0.0000000000    0   0   0
Ti            1.9400000000        1.9400000000        2.2871600000    0   0   0
O             0.0000000000        1.9400000000        2.2167582531
O             1.9400000000        0.0000000000        2.2167582531
O             1.9400000000        1.9400000000        0.2822772510



     Writing config-only to output data dir /home/gridsan/epan1/labutil/lab3_samples/problem2/Lab3/PbTiO3_a_3.88_ecut_30_nk_4_displ_0.08947368421052632/pwscf.save/
     NEW-OLD atomic charge density approx. for the potential

     total cpu time spent up to now is       30.4 secs

     Self-consistent Calculation

     iteration #  1     ecut=    30.00 Ry     beta= 0.70
     Davidson diagonalization with overlap
     ethr =  1.00E-06,  avg # of iterations = 10.3

     total cpu time spent up to now is       31.0 secs

     total energy              =    -333.17359503 Ry
     estimated scf accuracy    <       0.00692306 Ry

     iteration #  2     ecut=    30.00 Ry     beta= 0.70
     Davidson diagonalization with overlap
     ethr =  1.57E-05,  avg # of iterations =  4.2

     total cpu time spent up to now is       31.4 secs

     total energy              =    -333.17368527 Ry
     estimated scf accuracy    <       0.00407886 Ry

     iteration #  3     ecut=    30.00 Ry     beta= 0.70
     Davidson diagonalization with overlap
     ethr =  9.27E-06,  avg # of iterations =  4.3

     total cpu time spent up to now is       31.7 secs

     total energy              =    -333.17471392 Ry
     estimated scf accuracy    <       0.00251578 Ry

     iteration #  4     ecut=    30.00 Ry     beta= 0.70
     Davidson diagonalization with overlap
     ethr =  5.72E-06,  avg # of iterations =  3.7

     total cpu time spent up to now is       32.0 secs

     total energy              =    -333.17500537 Ry
     estimated scf accuracy    <       0.00011009 Ry

     iteration #  5     ecut=    30.00 Ry     beta= 0.70
     Davidson diagonalization with overlap
     ethr =  2.50E-07,  avg # of iterations =  6.3

     total cpu time spent up to now is       32.4 secs

     total energy              =    -333.17512749 Ry
     estimated scf accuracy    <       0.00018445 Ry

     iteration #  6     ecut=    30.00 Ry     beta= 0.70
     Davidson diagonalization with overlap
     ethr =  2.50E-07,  avg # of iterations =  1.8

     total cpu time spent up to now is       32.7 secs

     total energy              =    -333.17510177 Ry
     estimated scf accuracy    <       0.00010667 Ry

     iteration #  7     ecut=    30.00 Ry     beta= 0.70
     Davidson diagonalization with overlap
     ethr =  2.42E-07,  avg # of iterations =  3.8

     total cpu time spent up to now is       33.0 secs

     total energy              =    -333.17512042 Ry
     estimated scf accuracy    <       0.00000287 Ry

     iteration #  8     ecut=    30.00 Ry     beta= 0.70
     Davidson diagonalization with overlap
     ethr =  6.52E-09,  avg # of iterations =  5.3

     total cpu time spent up to now is       33.3 secs

     total energy              =    -333.17512249 Ry
     estimated scf accuracy    <       0.00000102 Ry

     iteration #  9     ecut=    30.00 Ry     beta= 0.70
     Davidson diagonalization with overlap
     ethr =  2.33E-09,  avg # of iterations =  2.3

     total cpu time spent up to now is       33.6 secs

     total energy              =    -333.17512242 Ry
     estimated scf accuracy    <       0.00000036 Ry

     iteration # 10     ecut=    30.00 Ry     beta= 0.70
     Davidson diagonalization with overlap
     ethr =  8.25E-10,  avg # of iterations =  4.5

     total cpu time spent up to now is       33.9 secs

     total energy              =    -333.17512254 Ry
     estimated scf accuracy    <       0.00000004 Ry

     iteration # 11     ecut=    30.00 Ry     beta= 0.70
     Davidson diagonalization with overlap
     ethr =  9.71E-11,  avg # of iterations =  3.5

     total cpu time spent up to now is       34.2 secs

     End of self-consistent calculation

          k = 0.1250 0.1250 0.1250 (  1096 PWs)   bands (ev):

   -44.7815 -21.4022 -21.4013 -21.3790  -6.4938  -5.5102  -5.3124  -3.9842
    -3.9776  -3.9604  -3.8116  -3.7195   4.5885   7.1838   7.2186   8.0711
     8.9822   9.0024   9.7324   9.8563   9.8685  10.0131

          k = 0.1250 0.1250 0.3750 (  1095 PWs)   bands (ev):

   -44.7803 -21.4349 -21.3999 -21.3989  -6.1515  -5.4184  -5.0987  -4.0221
    -3.9688  -3.9568  -3.8059  -3.7736   3.9448   6.8065   7.2804   7.6318
     8.2523   8.6703   9.2084   9.8362   9.9079  10.8267

          k = 0.1250 0.3750 0.3750 (  1093 PWs)   bands (ev):

   -44.7790 -21.4562 -21.4316 -21.3975  -5.9298  -5.2472  -4.9926  -4.0064
    -3.9649  -3.9051  -3.7977  -3.6152   3.5312   6.6382   6.7709   7.0118
     7.3860   8.5100   9.2113   9.4185  10.1126  10.6246

          k = 0.3750 0.3750 0.3750 (  1082 PWs)   bands (ev):

   -44.7777 -21.4535 -21.4532 -21.4290  -5.4966  -5.3632  -5.1679  -3.9212
    -3.9121  -3.6499  -3.5587  -3.5238   3.9166   5.7925   5.9135   6.5948
     6.8834   6.9743   8.2247  10.4525  10.5944  10.6688

          k = 0.3750-0.1250 0.1250 (  1095 PWs)   bands (ev):

   -44.7802 -21.4594 -21.3994 -21.3766  -6.0717  -5.3526  -5.2537  -4.0348
    -3.9704  -3.9563  -3.8080  -3.7203   3.8297   6.6728   7.2255   7.7532
     8.3308   8.6293   9.2627   9.7788  10.0088  10.8416

          k = 0.3750-0.3750 0.1250 (  1093 PWs)   bands (ev):

   -44.7790 -21.4565 -21.4556 -21.3747  -5.7408  -5.2567  -5.2305  -4.0014
    -3.9412  -3.8352  -3.7355  -3.6864   3.3354   6.6457   6.7196   7.0842
     7.3714   8.6475   9.3972   9.4444  10.0906  10.4992

     highest occupied level (ev):    10.8416

!    total energy              =    -333.17512253 Ry
     estimated scf accuracy    <       0.00000001 Ry

     The total energy is the sum of the following terms:
     one-electron contribution =     -79.74383335 Ry
     hartree contribution      =      67.71144528 Ry
     xc contribution           =     -49.66807534 Ry
     ewald contribution        =    -271.47465912 Ry

     convergence has been achieved in  11 iterations

     Forces acting on atoms (cartesian axes, Ry/au):

     atom    1 type  2   force =     0.00000000    0.00000000    0.02972816
     atom    2 type  3   force =     0.00000000    0.00000000   -0.03799677
     atom    3 type  1   force =     0.00000000    0.00000000    0.00906379
     atom    4 type  1   force =     0.00000000    0.00000000    0.00906379
     atom    5 type  1   force =     0.00000000    0.00000000   -0.00985898
     The non-local contrib.  to forces
     atom    1 type  2   force =     0.00000000    0.00000000   -0.21567718
     atom    2 type  3   force =     0.00000000    0.00000000    0.02634477
     atom    3 type  1   force =     0.00000000    0.00000000    0.22867892
     atom    4 type  1   force =     0.00000000    0.00000000    0.22867892
     atom    5 type  1   force =     0.00000000    0.00000000   -0.19271652
     The ionic contribution  to forces
     atom    1 type  2   force =     0.00000000    0.00000000    4.96640060
     atom    2 type  3   force =    -0.00000000   -0.00000000   -2.71873018
     atom    3 type  1   force =     0.00000000    0.00000000   -2.36658145
     atom    4 type  1   force =     0.00000000    0.00000000   -2.36658145
     atom    5 type  1   force =    -0.00000000   -0.00000000    2.48549248
     The local contribution  to forces
     atom    1 type  2   force =     0.00000000   -0.00000000   -4.72098676
     atom    2 type  3   force =    -0.00000000   -0.00000000    2.65440264
     atom    3 type  1   force =     0.00000000   -0.00000000    2.14698807
     atom    4 type  1   force =    -0.00000000   -0.00000000    2.14698807
     atom    5 type  1   force =    -0.00000000   -0.00000000   -2.30263931
     The core correction contribution to forces
     atom    1 type  2   force =     0.00000000    0.00000000    0.00000000
     atom    2 type  3   force =     0.00000000    0.00000000    0.00000000
     atom    3 type  1   force =     0.00000000    0.00000000    0.00000000
     atom    4 type  1   force =     0.00000000    0.00000000    0.00000000
     atom    5 type  1   force =     0.00000000    0.00000000    0.00000000
     The Hubbard contrib.    to forces
     atom    1 type  2   force =     0.00000000    0.00000000    0.00000000
     atom    2 type  3   force =     0.00000000    0.00000000    0.00000000
     atom    3 type  1   force =     0.00000000    0.00000000    0.00000000
     atom    4 type  1   force =     0.00000000    0.00000000    0.00000000
     atom    5 type  1   force =     0.00000000    0.00000000    0.00000000
     The SCF correction term to forces
     atom    1 type  2   force =     0.00000000   -0.00000000    0.00000000
     atom    2 type  3   force =    -0.00000000   -0.00000000   -0.00000000
     atom    3 type  1   force =     0.00000000    0.00000000   -0.00001024
     atom    4 type  1   force =     0.00000000    0.00000000   -0.00001024
     atom    5 type  1   force =    -0.00000000    0.00000000    0.00001589

     Total force =     0.016171     Total SCF correction =     0.000022


     Computing stress (Cartesian axis) and pressure

          total   stress  (Ry/bohr**3)                   (kbar)     P=        1.36
   0.00004168   0.00000000   0.00000000            6.13        0.00        0.00
   0.00000000   0.00004168   0.00000000            0.00        6.13        0.00
   0.00000000   0.00000000  -0.00005559            0.00        0.00       -8.18

     Energy error            =      4.3E-03 Ry
     Gradient error          =      9.9E-03 Ry/Bohr

     number of scf cycles    =   7
     number of bfgs steps    =   6

     energy             old  =    -333.1707937150 Ry
     energy             new  =    -333.1751225336 Ry

     CASE: energy            _new < energy            _old

     new trust radius        =       0.1634901236 bohr
     new conv_thr            =       0.0000000099 Ry


ATOMIC_POSITIONS (angstrom)
Pb            0.0000000000        0.0000000000        0.0000000000    0   0   0
Ti            1.9400000000        1.9400000000        2.2871600000    0   0   0
O             0.0000000000        1.9400000000        2.3032735007
O             1.9400000000        0.0000000000        2.3032735007
O             1.9400000000        1.9400000000        0.3190978114



     Writing config-only to output data dir /home/gridsan/epan1/labutil/lab3_samples/problem2/Lab3/PbTiO3_a_3.88_ecut_30_nk_4_displ_0.08947368421052632/pwscf.save/
     NEW-OLD atomic charge density approx. for the potential

     total cpu time spent up to now is       35.4 secs

     Self-consistent Calculation

     iteration #  1     ecut=    30.00 Ry     beta= 0.70
     Davidson diagonalization with overlap
     ethr =  1.00E-06,  avg # of iterations = 10.7

     total cpu time spent up to now is       35.9 secs

     total energy              =    -333.17525380 Ry
     estimated scf accuracy    <       0.00471698 Ry

     iteration #  2     ecut=    30.00 Ry     beta= 0.70
     Davidson diagonalization with overlap
     ethr =  1.07E-05,  avg # of iterations =  4.2

     total cpu time spent up to now is       36.3 secs

     total energy              =    -333.17533750 Ry
     estimated scf accuracy    <       0.00253940 Ry

     iteration #  3     ecut=    30.00 Ry     beta= 0.70
     Davidson diagonalization with overlap
     ethr =  5.77E-06,  avg # of iterations =  4.5

     total cpu time spent up to now is       36.6 secs

     total energy              =    -333.17599935 Ry
     estimated scf accuracy    <       0.00172729 Ry

     iteration #  4     ecut=    30.00 Ry     beta= 0.70
     Davidson diagonalization with overlap
     ethr =  3.93E-06,  avg # of iterations =  3.3

     total cpu time spent up to now is       36.9 secs

     total energy              =    -333.17617479 Ry
     estimated scf accuracy    <       0.00010323 Ry

     iteration #  5     ecut=    30.00 Ry     beta= 0.70
     Davidson diagonalization with overlap
     ethr =  2.35E-07,  avg # of iterations =  5.8

     total cpu time spent up to now is       37.3 secs

     total energy              =    -333.17627240 Ry
     estimated scf accuracy    <       0.00015271 Ry

     iteration #  6     ecut=    30.00 Ry     beta= 0.70
     Davidson diagonalization with overlap
     ethr =  2.35E-07,  avg # of iterations =  2.0

     total cpu time spent up to now is       37.5 secs

     total energy              =    -333.17625477 Ry
     estimated scf accuracy    <       0.00008552 Ry

     iteration #  7     ecut=    30.00 Ry     beta= 0.70
     Davidson diagonalization with overlap
     ethr =  1.94E-07,  avg # of iterations =  4.3

     total cpu time spent up to now is       37.8 secs

     total energy              =    -333.17626822 Ry
     estimated scf accuracy    <       0.00000346 Ry

     iteration #  8     ecut=    30.00 Ry     beta= 0.70
     Davidson diagonalization with overlap
     ethr =  7.87E-09,  avg # of iterations =  5.2

     total cpu time spent up to now is       38.2 secs

     total energy              =    -333.17627037 Ry
     estimated scf accuracy    <       0.00000070 Ry

     iteration #  9     ecut=    30.00 Ry     beta= 0.70
     Davidson diagonalization with overlap
     ethr =  1.59E-09,  avg # of iterations =  2.3

     total cpu time spent up to now is       38.5 secs

     total energy              =    -333.17627029 Ry
     estimated scf accuracy    <       0.00000035 Ry

     iteration # 10     ecut=    30.00 Ry     beta= 0.70
     Davidson diagonalization with overlap
     ethr =  8.02E-10,  avg # of iterations =  4.3

     total cpu time spent up to now is       38.8 secs

     total energy              =    -333.17627036 Ry
     estimated scf accuracy    <       0.00000001 Ry

     iteration # 11     ecut=    30.00 Ry     beta= 0.70
     Davidson diagonalization with overlap
     ethr =  2.30E-11,  avg # of iterations =  5.8

     total cpu time spent up to now is       39.1 secs

     total energy              =    -333.17627036 Ry
     estimated scf accuracy    <       0.00000001 Ry

     iteration # 12     ecut=    30.00 Ry     beta= 0.70
     Davidson diagonalization with overlap
     ethr =  2.30E-11,  avg # of iterations =  2.7

     total cpu time spent up to now is       39.4 secs

[...]
     Davidson diagonalization with overlap
     ethr =  8.87E-10,  avg # of iterations =  3.3

     total cpu time spent up to now is       66.1 secs

     total energy              =    -333.17657654 Ry
     estimated scf accuracy    <       0.00000007 Ry

     iteration #  7     ecut=    30.00 Ry     beta= 0.70
     Davidson diagonalization with overlap
     ethr =  1.57E-10,  avg # of iterations =  5.2

     total cpu time spent up to now is       66.4 secs

     total energy              =    -333.17657658 Ry
     estimated scf accuracy    <       0.00000004 Ry

     iteration #  8     ecut=    30.00 Ry     beta= 0.70
     Davidson diagonalization with overlap
     ethr =  8.95E-11,  avg # of iterations =  1.2

     total cpu time spent up to now is       66.7 secs

     total energy              =    -333.17657658 Ry
     estimated scf accuracy    <       0.00000002 Ry

     iteration #  9     ecut=    30.00 Ry     beta= 0.70
     Davidson diagonalization with overlap
     ethr =  5.21E-11,  avg # of iterations =  2.8

     total cpu time spent up to now is       67.0 secs

     total energy              =    -333.17657658 Ry
     estimated scf accuracy    <          2.1E-09 Ry

     iteration # 10     ecut=    30.00 Ry     beta= 0.70
     Davidson diagonalization with overlap
     ethr =  4.80E-12,  avg # of iterations =  4.8

     total cpu time spent up to now is       67.3 secs

     End of self-consistent calculation

          k = 0.1250 0.1250 0.1250 (  1096 PWs)   bands (ev):

   -44.8595 -21.4879 -21.4870 -21.4311  -6.6600  -5.7461  -5.2636  -3.8939
    -3.8884  -3.8447  -3.7337  -3.5314   4.6239   7.0437   7.1581   8.0928
     8.9018   9.0027   9.5249   9.7195   9.8374  10.2083

          k = 0.1250 0.1250 0.3750 (  1095 PWs)   bands (ev):

   -44.8583 -21.4877 -21.4846 -21.4842  -6.3836  -5.6751  -4.9961  -3.9250
    -3.8679  -3.8433  -3.6887  -3.6049   4.0385   6.8346   7.1248   7.4612
     8.3063   8.6222   9.1254   9.6285   9.8270  10.8502

          k = 0.1250 0.3750 0.3750 (  1093 PWs)   bands (ev):

   -44.8571 -21.5422 -21.4841 -21.4819  -6.1424  -5.5053  -4.9145  -3.9107
    -3.8530  -3.7965  -3.6646  -3.4542   3.6015   6.4641   6.7082   6.8986
     7.3685   8.3709   9.0158   9.4251  10.2297  10.6192

          k = 0.3750 0.3750 0.3750 (  1082 PWs)   bands (ev):

   -44.8557 -21.5395 -21.5391 -21.4801  -5.7076  -5.5847  -5.0715  -3.8169
    -3.8067  -3.5688  -3.4336  -3.3796   3.7274   5.7519   5.9385   6.4610
     6.7912   6.9723   8.4957  10.2163  10.5826  10.6623

          k = 0.3750-0.1250 0.1250 (  1095 PWs)   bands (ev):

   -44.8582 -21.5454 -21.4851 -21.4286  -6.2355  -5.5866  -5.2618  -3.9304
    -3.8781  -3.8405  -3.6645  -3.5451   3.8307   6.5333   7.1243   7.6849
     8.2172   8.5635   9.2582   9.6999   9.9356  10.9675

          k = 0.3750-0.3750 0.1250 (  1093 PWs)   bands (ev):

   -44.8570 -21.5424 -21.5415 -21.4267  -5.7817  -5.4995  -5.3862  -3.8970
    -3.8294  -3.6885  -3.5619  -3.5414   3.1755   6.5056   6.5877   7.0851
     7.4339   8.6829   9.3621   9.3933  10.2357  10.2892

     highest occupied level (ev):    10.9675

!    total energy              =    -333.17657658 Ry
     estimated scf accuracy    <          8.2E-10 Ry

     The total energy is the sum of the following terms:
     one-electron contribution =     -81.72040180 Ry
     hartree contribution      =      68.67982260 Ry
     xc contribution           =     -49.70161607 Ry
     ewald contribution        =    -270.43438131 Ry

     convergence has been achieved in  10 iterations

     Forces acting on atoms (cartesian axes, Ry/au):

     atom    1 type  2   force =     0.00000000    0.00000000    0.04136670
     atom    2 type  3   force =     0.00000000    0.00000000   -0.04200027
     atom    3 type  1   force =     0.00000000    0.00000000   -0.00037497
     atom    4 type  1   force =     0.00000000    0.00000000   -0.00037497
     atom    5 type  1   force =     0.00000000    0.00000000    0.00138350
     The non-local contrib.  to forces
     atom    1 type  2   force =     0.00000000    0.00000000   -0.31233562
     atom    2 type  3   force =     0.00000000    0.00000000    0.01587438
     atom    3 type  1   force =     0.00000000    0.00000000    0.20430291
     atom    4 type  1   force =     0.00000000    0.00000000    0.20430291
     atom    5 type  1   force =     0.00000000    0.00000000    0.03028327
     The ionic contribution  to forces
     atom    1 type  2   force =     0.00000000    0.00000000    6.48375082
     atom    2 type  3   force =    -0.00000000   -0.00000000   -2.25936195
     atom    3 type  1   force =     0.00000000    0.00000000   -2.26571406
     atom    4 type  1   force =     0.00000000    0.00000000   -2.26571406
     atom    5 type  1   force =    -0.00000000   -0.00000000    0.30703924
     The local contribution  to forces
     atom    1 type  2   force =     0.00000000    0.00000000   -6.13007365
     atom    2 type  3   force =    -0.00000000   -0.00000000    2.20148785
     atom    3 type  1   force =     0.00000000   -0.00000000    2.06102731
     atom    4 type  1   force =    -0.00000000   -0.00000000    2.06102731
     atom    5 type  1   force =    -0.00000000   -0.00000000   -0.33594501
     The core correction contribution to forces
     atom    1 type  2   force =     0.00000000    0.00000000    0.00000000
     atom    2 type  3   force =     0.00000000    0.00000000    0.00000000
     atom    3 type  1   force =     0.00000000    0.00000000    0.00000000
     atom    4 type  1   force =     0.00000000    0.00000000    0.00000000
     atom    5 type  1   force =     0.00000000    0.00000000    0.00000000
     The Hubbard contrib.    to forces
     atom    1 type  2   force =     0.00000000    0.00000000    0.00000000
     atom    2 type  3   force =     0.00000000    0.00000000    0.00000000
     atom    3 type  1   force =     0.00000000    0.00000000    0.00000000
     atom    4 type  1   force =     0.00000000    0.00000000    0.00000000
     atom    5 type  1   force =     0.00000000    0.00000000    0.00000000
     The SCF correction term to forces
     atom    1 type  2   force =     0.00000000   -0.00000000    0.00000000
     atom    2 type  3   force =     0.00000000    0.00000000   -0.00000000
     atom    3 type  1   force =    -0.00000000   -0.00000000    0.00000109
     atom    4 type  1   force =    -0.00000000   -0.00000000    0.00000109
     atom    5 type  1   force =    -0.00000000   -0.00000000   -0.00000179

     Total force =     0.001482     Total SCF correction =     0.000002


     Computing stress (Cartesian axis) and pressure

          total   stress  (Ry/bohr**3)                   (kbar)     P=       18.58
   0.00016724   0.00000000   0.00000000           24.60        0.00        0.00
   0.00000000   0.00016724   0.00000000            0.00       24.60        0.00
   0.00000000   0.00000000   0.00004453            0.00        0.00        6.55

     Energy error            =      6.7E-05 Ry
     Gradient error          =      1.4E-03 Ry/Bohr

     number of scf cycles    =  15
     number of bfgs steps    =  14

     energy             old  =    -333.1765093195 Ry
     energy             new  =    -333.1765765790 Ry

     CASE: energy            _new < energy            _old

     new trust radius        =       0.0376487405 bohr
     new conv_thr            =       0.0000000010 Ry


ATOMIC_POSITIONS (angstrom)
Pb            0.0000000000        0.0000000000        0.0000000000    0   0   0
Ti            1.9400000000        1.9400000000        2.2871600000    0   0   0
O             0.0000000000        1.9400000000        2.3857681647
O             1.9400000000        0.0000000000        2.3857681647
O             1.9400000000        1.9400000000        0.4181677459



     Writing config-only to output data dir /home/gridsan/epan1/labutil/lab3_samples/problem2/Lab3/PbTiO3_a_3.88_ecut_30_nk_4_displ_0.08947368421052632/pwscf.save/
     NEW-OLD atomic charge density approx. for the potential

     total cpu time spent up to now is       68.4 secs

     Self-consistent Calculation

     iteration #  1     ecut=    30.00 Ry     beta= 0.70
     Davidson diagonalization with overlap
     ethr =  1.00E-06,  avg # of iterations =  8.0

     total cpu time spent up to now is       68.9 secs

     total energy              =    -333.17654026 Ry
     estimated scf accuracy    <       0.00030823 Ry

     iteration #  2     ecut=    30.00 Ry     beta= 0.70
     Davidson diagonalization with overlap
     ethr =  7.01E-07,  avg # of iterations =  2.0

     total cpu time spent up to now is       69.2 secs

     total energy              =    -333.17657998 Ry
     estimated scf accuracy    <       0.00001602 Ry

     iteration #  3     ecut=    30.00 Ry     beta= 0.70
     Davidson diagonalization with overlap
     ethr =  3.64E-08,  avg # of iterations =  4.7

     total cpu time spent up to now is       69.5 secs

     total energy              =    -333.17658281 Ry
     estimated scf accuracy    <       0.00000760 Ry

     iteration #  4     ecut=    30.00 Ry     beta= 0.70
     Davidson diagonalization with overlap
     ethr =  1.73E-08,  avg # of iterations =  4.8

     total cpu time spent up to now is       69.8 secs

     total energy              =    -333.17658453 Ry
     estimated scf accuracy    <       0.00000348 Ry

     iteration #  5     ecut=    30.00 Ry     beta= 0.70
     Davidson diagonalization with overlap
     ethr =  7.92E-09,  avg # of iterations =  4.7

     total cpu time spent up to now is       70.1 secs

     total energy              =    -333.17658525 Ry
     estimated scf accuracy    <       0.00000026 Ry

     iteration #  6     ecut=    30.00 Ry     beta= 0.70
     Davidson diagonalization with overlap
     ethr =  5.85E-10,  avg # of iterations =  4.8

     total cpu time spent up to now is       70.5 secs

     total energy              =    -333.17658529 Ry
     estimated scf accuracy    <       0.00000017 Ry

     iteration #  7     ecut=    30.00 Ry     beta= 0.70
     Davidson diagonalization with overlap
     ethr =  3.98E-10,  avg # of iterations =  3.3

     total cpu time spent up to now is       70.8 secs

     total energy              =    -333.17658529 Ry
     estimated scf accuracy    <       0.00000003 Ry

     iteration #  8     ecut=    30.00 Ry     beta= 0.70
     Davidson diagonalization with overlap
     ethr =  6.22E-11,  avg # of iterations =  5.8

     total cpu time spent up to now is       71.1 secs

     total energy              =    -333.17658531 Ry
     estimated scf accuracy    <       0.00000004 Ry

     iteration #  9     ecut=    30.00 Ry     beta= 0.70
     Davidson diagonalization with overlap
     ethr =  6.22E-11,  avg # of iterations =  1.5

     total cpu time spent up to now is       71.4 secs

     total energy              =    -333.17658531 Ry
     estimated scf accuracy    <       0.00000002 Ry

     iteration # 10     ecut=    30.00 Ry     beta= 0.70
     Davidson diagonalization with overlap
     ethr =  4.12E-11,  avg # of iterations =  3.7

     total cpu time spent up to now is       71.7 secs

     End of self-consistent calculation

          k = 0.1250 0.1250 0.1250 (  1096 PWs)   bands (ev):

   -44.8518 -21.4807 -21.4798 -21.4303  -6.6772  -5.7685  -5.2633  -3.8858
    -3.8804  -3.8340  -3.7277  -3.5097   4.6249   7.0279   7.1482   8.1009
     8.8904   8.9888   9.5095   9.6750   9.8225  10.2213

          k = 0.1250 0.1250 0.3750 (  1095 PWs)   bands (ev):

   -44.8505 -21.4861 -21.4780 -21.4774  -6.4049  -5.6990  -4.9921  -3.9166
    -3.8586  -3.8325  -3.6830  -3.5818   4.0399   6.8314   7.0955   7.4505
     8.3161   8.5977   9.1197   9.6070   9.8137  10.8594

          k = 0.1250 0.3750 0.3750 (  1093 PWs)   bands (ev):

   -44.8493 -21.5350 -21.4824 -21.4757  -6.1621  -5.5321  -4.9141  -3.9025
    -3.8423  -3.7869  -3.6514  -3.4354   3.6072   6.4423   6.6928   6.8954
     7.3638   8.3647   8.9972   9.4116  10.2435  10.6098

          k = 0.3750 0.3750 0.3750 (  1082 PWs)   bands (ev):

   -44.8480 -21.5323 -21.5319 -21.4794  -5.7299  -5.6078  -5.0666  -3.8080
    -3.7961  -3.5652  -3.4213  -3.3628   3.7041   5.7485   5.9375   6.4486
     6.7994   6.9777   8.5276  10.1947  10.5673  10.6499

          k = 0.3750-0.1250 0.1250 (  1095 PWs)   bands (ev):

   -44.8505 -21.5382 -21.4779 -21.4279  -6.2535  -5.6113  -5.2668  -3.9200
    -3.8697  -3.8303  -3.6511  -3.5247   3.8301   6.5242   7.1149   7.6778
     8.2009   8.5602   9.2445   9.6858   9.9078  10.9791

          k = 0.3750-0.3750 0.1250 (  1093 PWs)   bands (ev):

   -44.8493 -21.5352 -21.5343 -21.4259  -5.7962  -5.5265  -5.3954  -3.8863
    -3.8197  -3.6767  -3.5502  -3.5203   3.1569   6.4942   6.5848   7.0862
     7.4433   8.6851   9.3569   9.3779  10.2485  10.2683

     highest occupied level (ev):    10.9791

!    total energy              =    -333.17658531 Ry
     estimated scf accuracy    <          1.4E-10 Ry

     The total energy is the sum of the following terms:
     one-electron contribution =     -81.96975448 Ry
     hartree contribution      =      68.80606422 Ry
     xc contribution           =     -49.70842606 Ry
     ewald contribution        =    -270.30446899 Ry

     convergence has been achieved in  10 iterations

     Forces acting on atoms (cartesian axes, Ry/au):

     atom    1 type  2   force =     0.00000000    0.00000000    0.04317874
     atom    2 type  3   force =     0.00000000    0.00000000   -0.04256893
     atom    3 type  1   force =     0.00000000    0.00000000   -0.00004316
     atom    4 type  1   force =     0.00000000    0.00000000   -0.00004316
     atom    5 type  1   force =     0.00000000    0.00000000   -0.00052349
     The non-local contrib.  to forces
     atom    1 type  2   force =     0.00000000    0.00000000   -0.32211641
     atom    2 type  3   force =     0.00000000    0.00000000    0.01350557
     atom    3 type  1   force =     0.00000000    0.00000000    0.20541474
     atom    4 type  1   force =     0.00000000    0.00000000    0.20541474
     atom    5 type  1   force =     0.00000000    0.00000000    0.06282368
     The ionic contribution  to forces
     atom    1 type  2   force =     0.00000000    0.00000000    6.60673617
     atom    2 type  3   force =     0.00000000    0.00000000   -2.01682276
     atom    3 type  1   force =     0.00000000   -0.00000000   -2.22672638
     atom    4 type  1   force =    -0.00000000    0.00000000   -2.22672638
     atom    5 type  1   force =    -0.00000000   -0.00000000   -0.13646064
     The local contribution  to forces
     atom    1 type  2   force =     0.00000000    0.00000000   -6.24142832
     atom    2 type  3   force =    -0.00000000   -0.00000000    1.96074378
     atom    3 type  1   force =     0.00000000   -0.00000000    2.02126253
     atom    4 type  1   force =    -0.00000000    0.00000000    2.02126253
     atom    5 type  1   force =    -0.00000000   -0.00000000    0.07311187
     The core correction contribution to forces
     atom    1 type  2   force =     0.00000000    0.00000000    0.00000000
     atom    2 type  3   force =     0.00000000    0.00000000    0.00000000
     atom    3 type  1   force =     0.00000000    0.00000000    0.00000000
     atom    4 type  1   force =     0.00000000    0.00000000    0.00000000
     atom    5 type  1   force =     0.00000000    0.00000000    0.00000000
     The Hubbard contrib.    to forces
     atom    1 type  2   force =     0.00000000    0.00000000    0.00000000
     atom    2 type  3   force =     0.00000000    0.00000000    0.00000000
     atom    3 type  1   force =     0.00000000    0.00000000    0.00000000
     atom    4 type  1   force =     0.00000000    0.00000000    0.00000000
     atom    5 type  1   force =     0.00000000    0.00000000    0.00000000
     The SCF correction term to forces
     atom    1 type  2   force =     0.00000000    0.00000000   -0.00000000
     atom    2 type  3   force =    -0.00000000   -0.00000000    0.00000000
     atom    3 type  1   force =     0.00000000    0.00000000    0.00000522
     atom    4 type  1   force =     0.00000000    0.00000000    0.00000522
     atom    5 type  1   force =     0.00000000    0.00000000    0.00000087

     Total force =     0.000527     Total SCF correction =     0.000007


     Computing stress (Cartesian axis) and pressure

          total   stress  (Ry/bohr**3)                   (kbar)     P=       22.34
   0.00018454   0.00000000   0.00000000           27.15        0.00        0.00
   0.00000000   0.00018454   0.00000000            0.00       27.15        0.00
   0.00000000   0.00000000   0.00008657            0.00        0.00       12.73

     Energy error            =      8.7E-06 Ry
     Gradient error          =      5.2E-04 Ry/Bohr

     bfgs converged in  16 scf cycles and  15 bfgs steps
     (criteria: energy <  1.0E-04 Ry, force <  1.0E-03 Ry/Bohr)

     End of BFGS Geometry Optimization

     Final energy             =    -333.1765853120 Ry

     File /home/gridsan/epan1/labutil/lab3_samples/problem2/Lab3/PbTiO3_a_3.88_ecut_30_nk_4_displ_0.08947368421052632/pwscf.bfgs deleted, as requested
Begin final coordinates

ATOMIC_POSITIONS (angstrom)
Pb            0.0000000000        0.0000000000        0.0000000000    0   0   0
Ti            1.9400000000        1.9400000000        2.2871600000    0   0   0
O             0.0000000000        1.9400000000        2.3857681647
O             1.9400000000        0.0000000000        2.3857681647
O             1.9400000000        1.9400000000        0.4181677459
End final coordinates



     init_run     :      0.72s CPU      0.70s WALL (       1 calls)
     electrons    :     62.82s CPU     51.55s WALL (      16 calls)
     update_pot   :      0.49s CPU      0.45s WALL (      15 calls)
     forces       :      2.22s CPU      1.77s WALL (      16 calls)
     stress       :     16.64s CPU     14.31s WALL (      16 calls)

     Called by init_run:
     wfcinit      :      0.08s CPU      0.08s WALL (       1 calls)
     potinit      :      0.04s CPU      0.04s WALL (       1 calls)
     hinit0       :      0.47s CPU      0.47s WALL (       1 calls)

     Called by electrons:
     c_bands      :     36.51s CPU     28.31s WALL (     155 calls)
     sum_band     :     16.06s CPU     14.05s WALL (     155 calls)
     v_of_rho     :      0.61s CPU      0.52s WALL (     168 calls)
     newd         :      9.90s CPU      8.66s WALL (     168 calls)
     mix_rho      :      0.32s CPU      0.32s WALL (     155 calls)

     Called by c_bands:
     init_us_2    :      1.09s CPU      0.86s WALL (    2058 calls)
     init_us_2:cp :      1.09s CPU      0.85s WALL (    2058 calls)
     cegterg      :     33.75s CPU     25.78s WALL (     930 calls)

     Called by *egterg:
     cdiaghg      :      5.86s CPU      4.38s WALL (    4865 calls)
     h_psi        :     22.44s CPU     17.44s WALL (    4979 calls)
     s_psi        :      0.99s CPU      0.74s WALL (    4979 calls)
     g_psi        :      0.24s CPU      0.17s WALL (    4043 calls)

     Called by h_psi:
     h_psi:calbec :      1.37s CPU      1.07s WALL (    4979 calls)
     vloc_psi     :     19.92s CPU     15.50s WALL (    4979 calls)
     add_vuspsi   :      1.01s CPU      0.77s WALL (    4979 calls)

     General routines
     calbec       :      1.89s CPU      1.48s WALL (    6389 calls)
     fft          :      0.98s CPU      0.85s WALL (    1074 calls)
     ffts         :      0.10s CPU      0.08s WALL (     323 calls)
     fftw         :     18.91s CPU     14.73s WALL (  147336 calls)
     interpolate  :      0.21s CPU      0.18s WALL (     168 calls)

     Parallel routines

     PWSCF        :   1m24.61s CPU   1m13.25s WALL


   This run was terminated on:  18:15: 7   2Nov2023            

=------------------------------------------------------------------------------=
   JOB DONE.
=------------------------------------------------------------------------------=
