
     Program PWSCF v.7.2 starts on 14Oct2023 at 15:48:51 

     This program is part of the open-source Quantum ESPRESSO suite
     for quantum simulation of materials; please cite
         "P. Giannozzi et al., J. Phys.:Condens. Matter 21 395502 (2009);
         "P. Giannozzi et al., J. Phys.:Condens. Matter 29 465901 (2017);
         "P. Giannozzi et al., J. Chem. Phys. 152 154105 (2020);
          URL http://www.quantum-espresso.org", 
     in publications or presentations arising from this work. More details at
     http://www.quantum-espresso.org/quote

     Parallel version (MPI), running on     1 processors

     MPI processes distributed on     1 nodes
     35653 MiB available memory on the printing compute node when the environment starts

     Waiting for input...
     Reading input from standard input
Warning: card &CELL ignored
Warning: card / ignored

     Current dimensions of program PWSCF are:
     Max number of different atomic species (ntypx) = 10
     Max number of k-points (npk) =  40000
     Max angular momentum in pseudopotentials (lmaxx) =  4
     file Ge.pz-dn-rrkjus_psl.0.2.2.UPF: wavefunction(s)  3D renormalized
     Message from routine find_sym:
     Not a group! Trying with lower acceptance parameter...
     Message from routine find_sym:
     Still not a group! symmetry disabled

     Subspace diagonalization in iterative solution of the eigenvalue problem:
     a serial algorithm will be used


     G-vector sticks info
     --------------------
     sticks:   dense  smooth     PW     G-vecs:    dense   smooth      PW
     Sum         475     475    151                 6879     6879    1243

     Using Slab Decomposition



     bravais-lattice index     =            0
     lattice parameter (alat)  =       7.6368  a.u.
     unit-cell volume          =     314.9276 (a.u.)^3
     number of atoms/cell      =            2
     number of atomic types    =            1
     number of electrons       =        28.00
     number of Kohn-Sham states=           14
     kinetic-energy cutoff     =      30.0000  Ry
     charge density cutoff     =     120.0000  Ry
     scf convergence threshold =      1.0E-07
     mixing beta               =       0.5000
     number of iterations used =            8  plain     mixing
     Exchange-correlation= LDA
                           (   1   1   0   0   0   0   0)

     celldm(1)=   7.636750  celldm(2)=   0.000000  celldm(3)=   0.000000
     celldm(4)=   0.000000  celldm(5)=   0.000000  celldm(6)=   0.000000

     crystal axes: (cart. coord. in units of alat)
               a(1) = (   0.000000   0.707107   0.707107 )  
               a(2) = (   0.707107   0.000000   0.707107 )  
               a(3) = (   0.707107   0.707107   0.000000 )  

     reciprocal axes: (cart. coord. in units 2 pi/alat)
               b(1) = ( -0.707107  0.707107  0.707107 )  
               b(2) = (  0.707107 -0.707107  0.707107 )  
               b(3) = (  0.707107  0.707107 -0.707107 )  


     PseudoPot. # 1 for Ge read from file:
     ../Ge.pz-dn-rrkjus_psl.0.2.2.UPF
     MD5 check sum: 9948ad5293734715c8cf6021b6c26e6d
     Pseudo is Ultrasoft + core correction, Zval = 14.0
     Generated using "atomic" code by A. Dal Corso  v.5.0.2 svn rev. 9415
     Using radial grid of 1207 points,  6 beta functions with: 
                l(1) =   0
                l(2) =   0
                l(3) =   1
                l(4) =   1
                l(5) =   2
                l(6) =   2
     Q(r) pseudized with 0 coefficients 


     atomic species   valence    mass     pseudopotential
        Ge            14.00    72.63000     Ge( 1.00)

     No symmetry found



   Cartesian axes

     site n.     atom                  positions (alat units)
         1           Ge  tau(   1) = (   0.0000000   0.0000000   0.0000000  )
         2           Ge  tau(   2) = (   0.3535539   0.3535539   0.3535539  )

     number of k points=    36
                       cart. coord. in units 2pi/alat
        k(    1) = (   0.0000000   0.0000000   0.0000000), wk =   0.0312500
        k(    2) = (   0.1767767   0.1767767  -0.1767767), wk =   0.0625000
        k(    3) = (  -0.3535534  -0.3535534   0.3535534), wk =   0.0312500
        k(    4) = (   0.3535534   0.0000000   0.0000000), wk =   0.0625000
        k(    5) = (  -0.1767767  -0.5303301   0.5303301), wk =   0.0625000
        k(    6) = (   0.0000000  -0.3535534   0.3535534), wk =   0.0625000
        k(    7) = (  -0.7071068   0.0000000   0.0000000), wk =   0.0312500
        k(    8) = (  -0.7071068   0.3535534   0.0000000), wk =   0.0625000
        k(    9) = (  -0.1767767  -0.1767767  -0.1767767), wk =   0.0625000
        k(   10) = (  -0.1767767   0.1767767   0.1767767), wk =   0.0625000
        k(   11) = (   0.1767767  -0.1767767   0.1767767), wk =   0.0625000
        k(   12) = (   0.3535534   0.3535534   0.3535534), wk =   0.0312500
        k(   13) = (   0.3535534  -0.3535534  -0.3535534), wk =   0.0312500
        k(   14) = (  -0.3535534   0.3535534  -0.3535534), wk =   0.0312500
        k(   15) = (   0.0000000  -0.3535534   0.0000000), wk =   0.0625000
        k(   16) = (   0.0000000   0.0000000  -0.3535534), wk =   0.0625000
        k(   17) = (   0.1767767   0.5303301   0.5303301), wk =   0.0625000
        k(   18) = (   0.1767767  -0.5303301  -0.5303301), wk =   0.0625000
        k(   19) = (  -0.1767767   0.5303301  -0.5303301), wk =   0.0625000
        k(   20) = (   0.5303301   0.1767767  -0.5303301), wk =   0.0625000
        k(   21) = (  -0.5303301   0.5303301   0.1767767), wk =   0.0625000
        k(   22) = (  -0.5303301   0.5303301  -0.1767767), wk =   0.0625000
        k(   23) = (   0.5303301   0.5303301   0.1767767), wk =   0.0625000
        k(   24) = (  -0.5303301  -0.5303301   0.1767767), wk =   0.0625000
        k(   25) = (   0.5303301  -0.1767767  -0.5303301), wk =   0.0625000
        k(   26) = (   0.5303301   0.1767767   0.5303301), wk =   0.0625000
        k(   27) = (  -0.5303301   0.1767767  -0.5303301), wk =   0.0625000
        k(   28) = (   0.0000000   0.3535534   0.3535534), wk =   0.0625000
        k(   29) = (   0.3535534   0.0000000  -0.3535534), wk =   0.0625000
        k(   30) = (  -0.3535534   0.3535534   0.0000000), wk =   0.0625000
        k(   31) = (   0.3535534   0.3535534   0.0000000), wk =   0.0625000
        k(   32) = (   0.3535534   0.0000000   0.3535534), wk =   0.0625000
        k(   33) = (   0.0000000   0.7071068   0.0000000), wk =   0.0312500
        k(   34) = (   0.0000000   0.0000000   0.7071068), wk =   0.0312500
        k(   35) = (  -0.3535534   0.7071068   0.0000000), wk =   0.0625000
        k(   36) = (   0.7071068   0.0000000  -0.3535534), wk =   0.0625000

     Dense  grid:     6879 G-vectors     FFT dimensions: (  32,  32,  32)

     Estimated max dynamical RAM per process >      34.48 MB

     Check: negative core charge=   -0.000243

     Initial potential from superposition of free atoms

     starting charge      27.9988, renormalised to      28.0000
     Starting wfcs are   18 randomized atomic wfcs

     total cpu time spent up to now is        1.5 secs

     Self-consistent Calculation

     iteration #  1     ecut=    30.00 Ry     beta= 0.50
     Davidson diagonalization with overlap
     ethr =  1.00E-02,  avg # of iterations =  1.8

     Threshold (ethr) on eigenvalues was too large:
     Diagonalizing with lowered threshold

     Davidson diagonalization with overlap
     ethr =  1.22E-04,  avg # of iterations =  2.2

     total cpu time spent up to now is        4.5 secs

     total energy              =    -421.74088198 Ry
     estimated scf accuracy    <       0.03885665 Ry

     iteration #  2     ecut=    30.00 Ry     beta= 0.50
     Davidson diagonalization with overlap
     ethr =  1.39E-04,  avg # of iterations =  1.0

     total cpu time spent up to now is        5.9 secs

     total energy              =    -421.73978589 Ry
     estimated scf accuracy    <       0.00680010 Ry

     iteration #  3     ecut=    30.00 Ry     beta= 0.50
     Davidson diagonalization with overlap
     ethr =  2.43E-05,  avg # of iterations =  2.0

     total cpu time spent up to now is        7.5 secs

     total energy              =    -421.74034467 Ry
     estimated scf accuracy    <       0.00007854 Ry

     iteration #  4     ecut=    30.00 Ry     beta= 0.50
     Davidson diagonalization with overlap
     c_bands:  1 eigenvalues not converged
     ethr =  2.80E-07,  avg # of iterations =  3.9

     total cpu time spent up to now is        9.6 secs

     total energy              =    -421.74036871 Ry
     estimated scf accuracy    <       0.00001664 Ry

     iteration #  5     ecut=    30.00 Ry     beta= 0.50
     Davidson diagonalization with overlap
     c_bands:  2 eigenvalues not converged
     ethr =  5.94E-08,  avg # of iterations =  2.7

     total cpu time spent up to now is       11.3 secs

     total energy              =    -421.74037337 Ry
     estimated scf accuracy    <       0.00000466 Ry

     iteration #  6     ecut=    30.00 Ry     beta= 0.50
     Davidson diagonalization with overlap
     c_bands:  2 eigenvalues not converged
     ethr =  1.66E-08,  avg # of iterations =  2.5

     total cpu time spent up to now is       13.0 secs

     total energy              =    -421.74037396 Ry
     estimated scf accuracy    <       0.00000188 Ry

     iteration #  7     ecut=    30.00 Ry     beta= 0.50
     Davidson diagonalization with overlap
     c_bands:  2 eigenvalues not converged
     ethr =  6.72E-09,  avg # of iterations =  3.9

     total cpu time spent up to now is       14.9 secs

     total energy              =    -421.74037431 Ry
     estimated scf accuracy    <       0.00000120 Ry

     iteration #  8     ecut=    30.00 Ry     beta= 0.50
     Davidson diagonalization with overlap
     c_bands:  2 eigenvalues not converged
     ethr =  4.28E-09,  avg # of iterations =  2.5

     total cpu time spent up to now is       16.6 secs

     total energy              =    -421.74037464 Ry
     estimated scf accuracy    <       0.00000014 Ry

     iteration #  9     ecut=    30.00 Ry     beta= 0.50
     Davidson diagonalization with overlap
     c_bands:  2 eigenvalues not converged
     ethr =  5.06E-10,  avg # of iterations =  3.7

     total cpu time spent up to now is       18.4 secs

     total energy              =    -421.74037462 Ry
     estimated scf accuracy    <       0.00000056 Ry

     iteration # 10     ecut=    30.00 Ry     beta= 0.50
     Davidson diagonalization with overlap
     c_bands:  2 eigenvalues not converged
     ethr =  5.06E-10,  avg # of iterations =  3.8

     total cpu time spent up to now is       20.5 secs

     total energy              =    -421.74037502 Ry
     estimated scf accuracy    <       0.00000030 Ry

     iteration # 11     ecut=    30.00 Ry     beta= 0.50
     Davidson diagonalization with overlap
     c_bands:  2 eigenvalues not converged
     ethr =  5.06E-10,  avg # of iterations =  3.6

     total cpu time spent up to now is       22.5 secs

     total energy              =    -421.74038130 Ry
     estimated scf accuracy    <       0.00005454 Ry

     iteration # 12     ecut=    30.00 Ry     beta= 0.50
     Davidson diagonalization with overlap
     c_bands:  2 eigenvalues not converged
     ethr =  5.06E-10,  avg # of iterations =  2.5

     total cpu time spent up to now is       24.2 secs

     total energy              =    -421.74037817 Ry
     estimated scf accuracy    <       0.00004916 Ry

     iteration # 13     ecut=    30.00 Ry     beta= 0.50
     Davidson diagonalization with overlap
     c_bands:  2 eigenvalues not converged
     ethr =  5.06E-10,  avg # of iterations =  3.8

     total cpu time spent up to now is       26.0 secs

     total energy              =    -421.74037869 Ry
     estimated scf accuracy    <       0.00004120 Ry

     iteration # 14     ecut=    30.00 Ry     beta= 0.50
     Davidson diagonalization with overlap
     ethr =  5.06E-10,  avg # of iterations =  1.4

     total cpu time spent up to now is       27.5 secs

     total energy              =    -421.74037868 Ry
     estimated scf accuracy    <       0.00003291 Ry

     iteration # 15     ecut=    30.00 Ry     beta= 0.50
     Davidson diagonalization with overlap
     ethr =  5.06E-10,  avg # of iterations =  1.4

     total cpu time spent up to now is       28.9 secs

     total energy              =    -421.74037889 Ry
     estimated scf accuracy    <       0.00002288 Ry

     iteration # 16     ecut=    30.00 Ry     beta= 0.50
     Davidson diagonalization with overlap
     ethr =  5.06E-10,  avg # of iterations =  1.0

     total cpu time spent up to now is       30.3 secs

     total energy              =    -421.74037891 Ry
     estimated scf accuracy    <       0.00002284 Ry

     iteration # 17     ecut=    30.00 Ry     beta= 0.50
     Davidson diagonalization with overlap
     c_bands:  2 eigenvalues not converged
     ethr =  5.06E-10,  avg # of iterations =  3.1

     total cpu time spent up to now is       32.0 secs

     total energy              =    -421.74037853 Ry
     estimated scf accuracy    <       0.00002660 Ry

     iteration # 18     ecut=    30.00 Ry     beta= 0.50
     Davidson diagonalization with overlap
     c_bands:  2 eigenvalues not converged
     ethr =  5.06E-10,  avg # of iterations =  4.3

     total cpu time spent up to now is       34.3 secs

     total energy              =    -421.74037939 Ry
     estimated scf accuracy    <       0.00003310 Ry

     iteration # 19     ecut=    30.00 Ry     beta= 0.50
     Davidson diagonalization with overlap
     c_bands:  2 eigenvalues not converged
     ethr =  5.06E-10,  avg # of iterations =  3.0

     total cpu time spent up to now is       35.9 secs

     total energy              =    -421.74037113 Ry
     estimated scf accuracy    <       0.00003579 Ry

     iteration # 20     ecut=    30.00 Ry     beta= 0.50
     Davidson diagonalization with overlap
     c_bands:  2 eigenvalues not converged
     ethr =  5.06E-10,  avg # of iterations =  7.5

     total cpu time spent up to now is       39.2 secs

     total energy              =    -421.74040471 Ry
     estimated scf accuracy    <       0.00015974 Ry

     iteration # 21     ecut=    30.00 Ry     beta= 0.50
     Davidson diagonalization with overlap
     c_bands:  2 eigenvalues not converged
     ethr =  5.06E-10,  avg # of iterations =  6.8

     total cpu time spent up to now is       42.2 secs

     total energy              =    -421.74041015 Ry
     estimated scf accuracy    <       0.00011175 Ry

     iteration # 22     ecut=    30.00 Ry     beta= 0.50
     Davidson diagonalization with overlap
     c_bands:  2 eigenvalues not converged
     ethr =  5.06E-10,  avg # of iterations =  4.0

     total cpu time spent up to now is       44.4 secs

     total energy              =    -421.74039256 Ry
     estimated scf accuracy    <       0.00011666 Ry

     iteration # 23     ecut=    30.00 Ry     beta= 0.50
     Davidson diagonalization with overlap
     c_bands:  2 eigenvalues not converged
     ethr =  5.06E-10,  avg # of iterations =  5.7

     total cpu time spent up to now is       47.0 secs

     total energy              =    -421.74039418 Ry
     estimated scf accuracy    <       0.00007915 Ry

     iteration # 24     ecut=    30.00 Ry     beta= 0.50
     Davidson diagonalization with overlap
     c_bands:  2 eigenvalues not converged
     ethr =  5.06E-10,  avg # of iterations =  2.5

     total cpu time spent up to now is       48.6 secs

     total energy              =    -421.74040236 Ry
     estimated scf accuracy    <       0.00008643 Ry

     iteration # 25     ecut=    30.00 Ry     beta= 0.50
     Davidson diagonalization with overlap
     c_bands:  2 eigenvalues not converged
     ethr =  5.06E-10,  avg # of iterations =  6.1

     total cpu time spent up to now is       51.4 secs

     total energy              =    -421.74040195 Ry
     estimated scf accuracy    <       0.00010502 Ry

     iteration # 26     ecut=    30.00 Ry     beta= 0.50
     Davidson diagonalization with overlap
     c_bands:  2 eigenvalues not converged
     ethr =  5.06E-10,  avg # of iterations =  2.6

     total cpu time spent up to now is       53.0 secs

     total energy              =    -421.74039779 Ry
     estimated scf accuracy    <       0.00009973 Ry

     iteration # 27     ecut=    30.00 Ry     beta= 0.50
     Davidson diagonalization with overlap
     c_bands:  2 eigenvalues not converged
     ethr =  5.06E-10,  avg # of iterations =  7.0

     total cpu time spent up to now is       56.0 secs

     total energy              =    -421.74042685 Ry
     estimated scf accuracy    <       0.00011390 Ry

     iteration # 28     ecut=    30.00 Ry     beta= 0.50
     Davidson diagonalization with overlap
     c_bands:  2 eigenvalues not converged
     ethr =  5.06E-10,  avg # of iterations =  5.8

     total cpu time spent up to now is       58.7 secs

     total energy              =    -421.74033130 Ry
     estimated scf accuracy    <       0.00016483 Ry

     iteration # 29     ecut=    30.00 Ry     beta= 0.50
     Davidson diagonalization with overlap
     c_bands:  2 eigenvalues not converged
     ethr =  5.06E-10,  avg # of iterations =  8.7

     total cpu time spent up to now is       62.5 secs

     total energy              =    -421.74036806 Ry
     estimated scf accuracy    <       0.00001984 Ry

     iteration # 30     ecut=    30.00 Ry     beta= 0.50
     Davidson diagonalization with overlap
     c_bands:  2 eigenvalues not converged
     ethr =  5.06E-10,  avg # of iterations =  7.2

     total cpu time spent up to now is       65.7 secs

     total energy              =    -421.74037750 Ry
     estimated scf accuracy    <       0.00005279 Ry

     iteration # 31     ecut=    30.00 Ry     beta= 0.50
     Davidson diagonalization with overlap
     c_bands:  2 eigenvalues not converged
     ethr =  5.06E-10,  avg # of iterations =  5.4

     total cpu time spent up to now is       68.2 secs

     total energy              =    -421.74038520 Ry
     estimated scf accuracy    <       0.00010523 Ry

     iteration # 32     ecut=    30.00 Ry     beta= 0.50
     Davidson diagonalization with overlap
     c_bands:  2 eigenvalues not converged
     ethr =  5.06E-10,  avg # of iterations =  5.6

     total cpu time spent up to now is       70.8 secs

     total energy              =    -421.74036249 Ry
     estimated scf accuracy    <       0.00006104 Ry

     iteration # 33     ecut=    30.00 Ry     beta= 0.50
     Davidson diagonalization with overlap
     c_bands:  2 eigenvalues not converged
     ethr =  5.06E-10,  avg # of iterations =  6.9

     total cpu time spent up to now is       73.8 secs

     total energy              =    -421.74036064 Ry
     estimated scf accuracy    <       0.00001285 Ry

     iteration # 34     ecut=    30.00 Ry     beta= 0.50
     Davidson diagonalization with overlap
     c_bands:  2 eigenvalues not converged
     ethr =  5.06E-10,  avg # of iterations =  5.4

     total cpu time spent up to now is       76.4 secs

     total energy              =    -421.74036033 Ry
     estimated scf accuracy    <       0.00000421 Ry

     iteration # 35     ecut=    30.00 Ry     beta= 0.50
     Davidson diagonalization with overlap
     c_bands:  2 eigenvalues not converged
     ethr =  5.06E-10,  avg # of iterations =  5.2

     total cpu time spent up to now is       78.8 secs

     total energy              =    -421.74039525 Ry
     estimated scf accuracy    <       0.00013246 Ry

     iteration # 36     ecut=    30.00 Ry     beta= 0.50
     Davidson diagonalization with overlap
     c_bands:  1 eigenvalues not converged
     ethr =  5.06E-10,  avg # of iterations =  5.4

     total cpu time spent up to now is       81.2 secs

     total energy              =    -421.74039388 Ry
     estimated scf accuracy    <       0.00008673 Ry

     iteration # 37     ecut=    30.00 Ry     beta= 0.50
     Davidson diagonalization with overlap
     ethr =  5.06E-10,  avg # of iterations =  3.2

     total cpu time spent up to now is       83.0 secs

     total energy              =    -421.74039990 Ry
     estimated scf accuracy    <       0.00007771 Ry

     iteration # 38     ecut=    30.00 Ry     beta= 0.50
     Davidson diagonalization with overlap
     ethr =  5.06E-10,  avg # of iterations =  3.2

     total cpu time spent up to now is       84.8 secs

     total energy              =    -421.74040154 Ry
     estimated scf accuracy    <       0.00009072 Ry

     iteration # 39     ecut=    30.00 Ry     beta= 0.50
     Davidson diagonalization with overlap
     ethr =  5.06E-10,  avg # of iterations =  2.0

     total cpu time spent up to now is       86.4 secs

     total energy              =    -421.74039990 Ry
     estimated scf accuracy    <       0.00009419 Ry

     iteration # 40     ecut=    30.00 Ry     beta= 0.50
     Davidson diagonalization with overlap
     c_bands:  1 eigenvalues not converged
     ethr =  5.06E-10,  avg # of iterations =  3.7

     total cpu time spent up to now is       88.4 secs

     total energy              =    -421.74039936 Ry
     estimated scf accuracy    <       0.00009097 Ry

     iteration # 41     ecut=    30.00 Ry     beta= 0.50
     Davidson diagonalization with overlap
     c_bands:  1 eigenvalues not converged
     ethr =  5.06E-10,  avg # of iterations =  2.5

     total cpu time spent up to now is       90.0 secs

     total energy              =    -421.74039033 Ry
     estimated scf accuracy    <       0.00008956 Ry

     iteration # 42     ecut=    30.00 Ry     beta= 0.50
     Davidson diagonalization with overlap
     ethr =  5.06E-10,  avg # of iterations =  4.1

     total cpu time spent up to now is       92.3 secs

     total energy              =    -421.74040838 Ry
     estimated scf accuracy    <       0.00006970 Ry

     iteration # 43     ecut=    30.00 Ry     beta= 0.50
     Davidson diagonalization with overlap
     c_bands:  2 eigenvalues not converged
     ethr =  5.06E-10,  avg # of iterations =  5.6

     total cpu time spent up to now is       94.8 secs

     total energy              =    -421.74034246 Ry
     estimated scf accuracy    <       0.00011142 Ry

     iteration # 44     ecut=    30.00 Ry     beta= 0.50
     Davidson diagonalization with overlap
     c_bands:  2 eigenvalues not converged
     ethr =  5.06E-10,  avg # of iterations =  8.1

     total cpu time spent up to now is       98.4 secs

     total energy              =    -421.74036561 Ry
     estimated scf accuracy    <       0.00014655 Ry

     iteration # 45     ecut=    30.00 Ry     beta= 0.50
     Davidson diagonalization with overlap
     c_bands:  2 eigenvalues not converged
     ethr =  5.06E-10,  avg # of iterations =  7.4

     total cpu time spent up to now is      101.6 secs

     total energy              =    -421.74038087 Ry
     estimated scf accuracy    <       0.00002812 Ry

     iteration # 46     ecut=    30.00 Ry     beta= 0.50
     Davidson diagonalization with overlap
     c_bands:  2 eigenvalues not converged
     ethr =  5.06E-10,  avg # of iterations =  4.2

     total cpu time spent up to now is      103.8 secs

     total energy              =    -421.74038056 Ry
     estimated scf accuracy    <       0.00003941 Ry

     iteration # 47     ecut=    30.00 Ry     beta= 0.50
     Davidson diagonalization with overlap
     c_bands:  1 eigenvalues not converged
     ethr =  5.06E-10,  avg # of iterations =  3.3

     total cpu time spent up to now is      105.6 secs

     total energy              =    -421.74038354 Ry
     estimated scf accuracy    <       0.00003844 Ry

     iteration # 48     ecut=    30.00 Ry     beta= 0.50
     Davidson diagonalization with overlap
     c_bands:  2 eigenvalues not converged
     ethr =  5.06E-10,  avg # of iterations =  6.6

     total cpu time spent up to now is      108.5 secs

     total energy              =    -421.74040366 Ry
     estimated scf accuracy    <       0.00009126 Ry

     iteration # 49     ecut=    30.00 Ry     beta= 0.50
     Davidson diagonalization with overlap
     c_bands:  2 eigenvalues not converged
     ethr =  5.06E-10,  avg # of iterations =  4.2

     total cpu time spent up to now is      110.8 secs

     total energy              =    -421.74046235 Ry
     estimated scf accuracy    <       0.00012722 Ry

     iteration # 50     ecut=    30.00 Ry     beta= 0.50
     Davidson diagonalization with overlap
     c_bands:  2 eigenvalues not converged
     ethr =  5.06E-10,  avg # of iterations =  7.7

     total cpu time spent up to now is      114.1 secs

     total energy              =    -421.74037443 Ry
     estimated scf accuracy    <       0.00027098 Ry

     iteration # 51     ecut=    30.00 Ry     beta= 0.50
     Davidson diagonalization with overlap
     c_bands:  2 eigenvalues not converged
     ethr =  5.06E-10,  avg # of iterations =  8.2

     total cpu time spent up to now is      117.8 secs

     total energy              =    -421.74038042 Ry
     estimated scf accuracy    <       0.00009491 Ry

     iteration # 52     ecut=    30.00 Ry     beta= 0.50
     Davidson diagonalization with overlap
     c_bands:  2 eigenvalues not converged
     ethr =  5.06E-10,  avg # of iterations =  6.1

     total cpu time spent up to now is      120.5 secs

     total energy              =    -421.74038733 Ry
     estimated scf accuracy    <       0.00006582 Ry

     iteration # 53     ecut=    30.00 Ry     beta= 0.50
     Davidson diagonalization with overlap
     c_bands:  2 eigenvalues not converged
     ethr =  5.06E-10,  avg # of iterations =  7.0

     total cpu time spent up to now is      123.6 secs

     total energy              =    -421.74041406 Ry
     estimated scf accuracy    <       0.00014886 Ry

     iteration # 54     ecut=    30.00 Ry     beta= 0.50
     Davidson diagonalization with overlap
     c_bands:  2 eigenvalues not converged
     ethr =  5.06E-10,  avg # of iterations =  4.7

     total cpu time spent up to now is      125.9 secs

     total energy              =    -421.74035885 Ry
     estimated scf accuracy    <       0.00020338 Ry

     iteration # 55     ecut=    30.00 Ry     beta= 0.50
     Davidson diagonalization with overlap
     c_bands:  2 eigenvalues not converged
     ethr =  5.06E-10,  avg # of iterations =  7.9

     total cpu time spent up to now is      129.4 secs

     total energy              =    -421.74039820 Ry
     estimated scf accuracy    <       0.00008106 Ry

     iteration # 56     ecut=    30.00 Ry     beta= 0.50
     Davidson diagonalization with overlap
     c_bands:  2 eigenvalues not converged
     ethr =  5.06E-10,  avg # of iterations =  5.7

     total cpu time spent up to now is      131.9 secs

     total energy              =    -421.74037202 Ry
     estimated scf accuracy    <       0.00012224 Ry

     iteration # 57     ecut=    30.00 Ry     beta= 0.50
     Davidson diagonalization with overlap
     c_bands:  2 eigenvalues not converged
     ethr =  5.06E-10,  avg # of iterations =  6.9

     total cpu time spent up to now is      135.0 secs

     total energy              =    -421.74036499 Ry
     estimated scf accuracy    <       0.00004134 Ry

     iteration # 58     ecut=    30.00 Ry     beta= 0.50
     Davidson diagonalization with overlap
     c_bands:  2 eigenvalues not converged
     ethr =  5.06E-10,  avg # of iterations =  6.4

     total cpu time spent up to now is      137.8 secs

     total energy              =    -421.74036846 Ry
     estimated scf accuracy    <       0.00001785 Ry

     iteration # 59     ecut=    30.00 Ry     beta= 0.50
     Davidson diagonalization with overlap
     c_bands:  2 eigenvalues not converged
     ethr =  5.06E-10,  avg # of iterations =  6.2

     total cpu time spent up to now is      140.6 secs

     total energy              =    -421.74036930 Ry
     estimated scf accuracy    <       0.00002958 Ry

     iteration # 60     ecut=    30.00 Ry     beta= 0.50
     Davidson diagonalization with overlap
     c_bands:  2 eigenvalues not converged
     ethr =  5.06E-10,  avg # of iterations =  6.0

     total cpu time spent up to now is      143.3 secs

     total energy              =    -421.74037660 Ry
     estimated scf accuracy    <       0.00002349 Ry

     iteration # 61     ecut=    30.00 Ry     beta= 0.50
     Davidson diagonalization with overlap
     c_bands:  2 eigenvalues not converged
     ethr =  5.06E-10,  avg # of iterations =  5.4

     total cpu time spent up to now is      145.7 secs

     total energy              =    -421.74039127 Ry
     estimated scf accuracy    <       0.00007822 Ry

     iteration # 62     ecut=    30.00 Ry     beta= 0.50
     Davidson diagonalization with overlap
     c_bands:  2 eigenvalues not converged
     ethr =  5.06E-10,  avg # of iterations =  5.6

     total cpu time spent up to now is      148.2 secs

     total energy              =    -421.74039563 Ry
     estimated scf accuracy    <       0.00010422 Ry

     iteration # 63     ecut=    30.00 Ry     beta= 0.50
     Davidson diagonalization with overlap
     c_bands:  1 eigenvalues not converged
     ethr =  5.06E-10,  avg # of iterations =  6.0

     total cpu time spent up to now is      150.9 secs

     total energy              =    -421.74040030 Ry
     estimated scf accuracy    <       0.00008429 Ry

     iteration # 64     ecut=    30.00 Ry     beta= 0.50
     Davidson diagonalization with overlap
     c_bands:  2 eigenvalues not converged
     ethr =  5.06E-10,  avg # of iterations =  6.7

     total cpu time spent up to now is      153.8 secs

     total energy              =    -421.74038658 Ry
     estimated scf accuracy    <       0.00013433 Ry

     iteration # 65     ecut=    30.00 Ry     beta= 0.50
     Davidson diagonalization with overlap
     c_bands:  2 eigenvalues not converged
     ethr =  5.06E-10,  avg # of iterations =  6.8

     total cpu time spent up to now is      156.9 secs

     total energy              =    -421.74041311 Ry
     estimated scf accuracy    <       0.00010089 Ry

     iteration # 66     ecut=    30.00 Ry     beta= 0.50
     Davidson diagonalization with overlap
     ethr =  5.06E-10,  avg # of iterations =  4.3

     total cpu time spent up to now is      159.1 secs

     total energy              =    -421.74040375 Ry
     estimated scf accuracy    <       0.00012239 Ry

     iteration # 67     ecut=    30.00 Ry     beta= 0.50
     Davidson diagonalization with overlap
     c_bands:  2 eigenvalues not converged
     ethr =  5.06E-10,  avg # of iterations =  4.3

     total cpu time spent up to now is      161.4 secs

     total energy              =    -421.74042256 Ry
     estimated scf accuracy    <       0.00010118 Ry

     iteration # 68     ecut=    30.00 Ry     beta= 0.50
     Davidson diagonalization with overlap
     c_bands:  2 eigenvalues not converged
     ethr =  5.06E-10,  avg # of iterations =  5.9

     total cpu time spent up to now is      163.9 secs

     total energy              =    -421.74042242 Ry
     estimated scf accuracy    <       0.00014904 Ry

     iteration # 69     ecut=    30.00 Ry     beta= 0.50
     Davidson diagonalization with overlap
     c_bands:  2 eigenvalues not converged
     ethr =  5.06E-10,  avg # of iterations =  5.4

     total cpu time spent up to now is      166.4 secs

     total energy              =    -421.74042772 Ry
     estimated scf accuracy    <       0.00014698 Ry

     iteration # 70     ecut=    30.00 Ry     beta= 0.50
     Davidson diagonalization with overlap
     c_bands:  2 eigenvalues not converged
     ethr =  5.06E-10,  avg # of iterations =  7.9

     total cpu time spent up to now is      169.9 secs

     total energy              =    -421.74031971 Ry
     estimated scf accuracy    <       0.00019301 Ry

     iteration # 71     ecut=    30.00 Ry     beta= 0.50
     Davidson diagonalization with overlap
     c_bands:  2 eigenvalues not converged
     ethr =  5.06E-10,  avg # of iterations =  9.1

     total cpu time spent up to now is      173.8 secs

     total energy              =    -421.74047448 Ry
     estimated scf accuracy    <       0.00005515 Ry

     iteration # 72     ecut=    30.00 Ry     beta= 0.50
     Davidson diagonalization with overlap
     c_bands:  2 eigenvalues not converged
     ethr =  5.06E-10,  avg # of iterations =  8.0

     total cpu time spent up to now is      177.4 secs

     total energy              =    -421.74060775 Ry
     estimated scf accuracy    <       0.00082285 Ry

     iteration # 73     ecut=    30.00 Ry     beta= 0.50
     Davidson diagonalization with overlap
     c_bands:  2 eigenvalues not converged
     ethr =  5.06E-10,  avg # of iterations =  7.0

     total cpu time spent up to now is      180.5 secs

     total energy              =    -421.74029029 Ry
     estimated scf accuracy    <       0.00057897 Ry

     iteration # 74     ecut=    30.00 Ry     beta= 0.50
     Davidson diagonalization with overlap
     c_bands:  2 eigenvalues not converged
     ethr =  5.06E-10,  avg # of iterations =  9.2

     total cpu time spent up to now is      184.4 secs

     total energy              =    -421.74039747 Ry
     estimated scf accuracy    <       0.00010087 Ry

     iteration # 75     ecut=    30.00 Ry     beta= 0.50
     Davidson diagonalization with overlap
     c_bands:  2 eigenvalues not converged
     ethr =  5.06E-10,  avg # of iterations =  3.4

     total cpu time spent up to now is      186.2 secs

     total energy              =    -421.74040012 Ry
     estimated scf accuracy    <       0.00009546 Ry

     iteration # 76     ecut=    30.00 Ry     beta= 0.50
     Davidson diagonalization with overlap
     c_bands:  2 eigenvalues not converged
     ethr =  5.06E-10,  avg # of iterations =  6.8

     total cpu time spent up to now is      189.0 secs

     total energy              =    -421.74041263 Ry
     estimated scf accuracy    <       0.00013538 Ry

     iteration # 77     ecut=    30.00 Ry     beta= 0.50
     Davidson diagonalization with overlap
     c_bands:  2 eigenvalues not converged
     ethr =  5.06E-10,  avg # of iterations =  5.3

     total cpu time spent up to now is      191.5 secs

     total energy              =    -421.74043458 Ry
     estimated scf accuracy    <       0.00012987 Ry

     iteration # 78     ecut=    30.00 Ry     beta= 0.50
     Davidson diagonalization with overlap
     c_bands:  2 eigenvalues not converged
     ethr =  5.06E-10,  avg # of iterations =  5.6

     total cpu time spent up to now is      194.0 secs

     total energy              =    -421.74048072 Ry
     estimated scf accuracy    <       0.00017965 Ry

     iteration # 79     ecut=    30.00 Ry     beta= 0.50
     Davidson diagonalization with overlap
     c_bands:  2 eigenvalues not converged
     ethr =  5.06E-10,  avg # of iterations =  7.6

     total cpu time spent up to now is      197.3 secs

     total energy              =    -421.74043905 Ry
     estimated scf accuracy    <       0.00029887 Ry

     iteration # 80     ecut=    30.00 Ry     beta= 0.50
     Davidson diagonalization with overlap
     c_bands:  2 eigenvalues not converged
     ethr =  5.06E-10,  avg # of iterations =  6.6

     total cpu time spent up to now is      200.2 secs

     total energy              =    -421.74032623 Ry
     estimated scf accuracy    <       0.00018714 Ry

     iteration # 81     ecut=    30.00 Ry     beta= 0.50
     Davidson diagonalization with overlap
     c_bands:  2 eigenvalues not converged
     ethr =  5.06E-10,  avg # of iterations =  9.0

     total cpu time spent up to now is      204.1 secs

     total energy              =    -421.74039953 Ry
     estimated scf accuracy    <       0.00004020 Ry

     iteration # 82     ecut=    30.00 Ry     beta= 0.50
     Davidson diagonalization with overlap
     c_bands:  2 eigenvalues not converged
     ethr =  5.06E-10,  avg # of iterations =  6.6

     total cpu time spent up to now is      207.0 secs

     total energy              =    -421.74029088 Ry
     estimated scf accuracy    <       0.00034641 Ry

     iteration # 83     ecut=    30.00 Ry     beta= 0.50
     Davidson diagonalization with overlap
     c_bands:  2 eigenvalues not converged
     ethr =  5.06E-10,  avg # of iterations =  9.5

     total cpu time spent up to now is      211.1 secs

     total energy              =    -421.74038674 Ry
     estimated scf accuracy    <       0.00006732 Ry

     iteration # 84     ecut=    30.00 Ry     beta= 0.50
     Davidson diagonalization with overlap
     c_bands:  2 eigenvalues not converged
     ethr =  5.06E-10,  avg # of iterations =  3.8

     total cpu time spent up to now is      212.9 secs

     total energy              =    -421.74052349 Ry
     estimated scf accuracy    <       0.00019907 Ry

     iteration # 85     ecut=    30.00 Ry     beta= 0.50
     Davidson diagonalization with overlap
     c_bands:  2 eigenvalues not converged
     ethr =  5.06E-10,  avg # of iterations =  7.2

     total cpu time spent up to now is      216.0 secs

     total energy              =    -421.74049512 Ry
     estimated scf accuracy    <       0.00048565 Ry

     iteration # 86     ecut=    30.00 Ry     beta= 0.50
     Davidson diagonalization with overlap
     c_bands:  2 eigenvalues not converged
     ethr =  5.06E-10,  avg # of iterations =  7.0

     total cpu time spent up to now is      219.1 secs

     total energy              =    -421.74063630 Ry
     estimated scf accuracy    <       0.00031302 Ry

     iteration # 87     ecut=    30.00 Ry     beta= 0.50
     Davidson diagonalization with overlap
     c_bands:  2 eigenvalues not converged
     ethr =  5.06E-10,  avg # of iterations =  7.6

     total cpu time spent up to now is      222.3 secs

     total energy              =    -421.74112951 Ry
     estimated scf accuracy    <       0.00064568 Ry

     iteration # 88     ecut=    30.00 Ry     beta= 0.50
     Davidson diagonalization with overlap
     c_bands:  2 eigenvalues not converged
     ethr =  5.06E-10,  avg # of iterations =  8.9

     total cpu time spent up to now is      225.6 secs

     total energy              =    -421.74104563 Ry
     estimated scf accuracy    <       0.00182474 Ry

     iteration # 89     ecut=    30.00 Ry     beta= 0.50
     Davidson diagonalization with overlap
     c_bands:  2 eigenvalues not converged
     ethr =  5.06E-10,  avg # of iterations =  6.8

     total cpu time spent up to now is      228.5 secs

     total energy              =    -421.74086619 Ry
     estimated scf accuracy    <       0.00154312 Ry

     iteration # 90     ecut=    30.00 Ry     beta= 0.50
     Davidson diagonalization with overlap
     c_bands:  2 eigenvalues not converged
     ethr =  5.06E-10,  avg # of iterations =  7.3

     total cpu time spent up to now is      231.6 secs

     total energy              =    -421.74015656 Ry
     estimated scf accuracy    <       0.00115161 Ry

     iteration # 91     ecut=    30.00 Ry     beta= 0.50
     Davidson diagonalization with overlap
     c_bands:  2 eigenvalues not converged
     ethr =  5.06E-10,  avg # of iterations = 10.2

     total cpu time spent up to now is      235.7 secs

     total energy              =    -421.74035698 Ry
     estimated scf accuracy    <       0.00001632 Ry

     iteration # 92     ecut=    30.00 Ry     beta= 0.50
     Davidson diagonalization with overlap
     c_bands:  2 eigenvalues not converged
     ethr =  5.06E-10,  avg # of iterations =  6.7

     total cpu time spent up to now is      238.5 secs

     total energy              =    -421.74035981 Ry
     estimated scf accuracy    <       0.00000060 Ry

     iteration # 93     ecut=    30.00 Ry     beta= 0.50
     Davidson diagonalization with overlap
     c_bands:  2 eigenvalues not converged
     ethr =  5.06E-10,  avg # of iterations =  3.6

     total cpu time spent up to now is      240.4 secs

     total energy              =    -421.74038601 Ry
     estimated scf accuracy    <       0.00004165 Ry

     iteration # 94     ecut=    30.00 Ry     beta= 0.50
     Davidson diagonalization with overlap
     c_bands:  1 eigenvalues not converged
     ethr =  5.06E-10,  avg # of iterations =  3.7

     total cpu time spent up to now is      242.2 secs

     total energy              =    -421.74041946 Ry
     estimated scf accuracy    <       0.00012979 Ry

     iteration # 95     ecut=    30.00 Ry     beta= 0.50
     Davidson diagonalization with overlap
     c_bands:  2 eigenvalues not converged
     ethr =  5.06E-10,  avg # of iterations =  3.0

     total cpu time spent up to now is      243.9 secs

     total energy              =    -421.74041893 Ry
     estimated scf accuracy    <       0.00013410 Ry

     iteration # 96     ecut=    30.00 Ry     beta= 0.50
     Davidson diagonalization with overlap
     c_bands:  1 eigenvalues not converged
     ethr =  5.06E-10,  avg # of iterations =  2.6

     total cpu time spent up to now is      245.5 secs

     total energy              =    -421.74041594 Ry
     estimated scf accuracy    <       0.00013274 Ry

     iteration # 97     ecut=    30.00 Ry     beta= 0.50
     Davidson diagonalization with overlap
     ethr =  5.06E-10,  avg # of iterations =  2.3

     total cpu time spent up to now is      247.2 secs

     total energy              =    -421.74040096 Ry
     estimated scf accuracy    <       0.00012621 Ry

     iteration # 98     ecut=    30.00 Ry     beta= 0.50
     Davidson diagonalization with overlap
     c_bands:  2 eigenvalues not converged
     ethr =  5.06E-10,  avg # of iterations =  5.8

     total cpu time spent up to now is      249.8 secs

     total energy              =    -421.74041008 Ry
     estimated scf accuracy    <       0.00009879 Ry

     iteration # 99     ecut=    30.00 Ry     beta= 0.50
     Davidson diagonalization with overlap
     c_bands:  2 eigenvalues not converged
     ethr =  5.06E-10,  avg # of iterations =  5.1

     total cpu time spent up to now is      252.1 secs

     total energy              =    -421.74040542 Ry
     estimated scf accuracy    <       0.00011409 Ry

     iteration #100     ecut=    30.00 Ry     beta= 0.50
     Davidson diagonalization with overlap
     c_bands:  1 eigenvalues not converged
     ethr =  5.06E-10,  avg # of iterations =  3.6

     total cpu time spent up to now is      253.9 secs

     total energy              =    -421.74040761 Ry
     estimated scf accuracy    <       0.00010433 Ry

     End of self-consistent calculation

     convergence NOT achieved after 100 iterations: stopping

     Writing config to output data dir /home/gridsan/epan1/labutil/lab2_samples/problem7/Lab2/Problem1/5.7151116/pwscf.save/

     init_run     :      1.55s CPU      1.31s WALL (       1 calls)
     electrons    :    372.08s CPU    252.43s WALL (       1 calls)

     Called by init_run:
     wfcinit      :      1.15s CPU      0.87s WALL (       1 calls)
     potinit      :      0.00s CPU      0.01s WALL (       1 calls)
     hinit0       :      0.39s CPU      0.39s WALL (       1 calls)

     Called by electrons:
     c_bands      :    328.22s CPU    222.39s WALL (     101 calls)
     sum_band     :     39.18s CPU     26.85s WALL (     101 calls)
     v_of_rho     :      0.63s CPU      0.48s WALL (     101 calls)
     newd         :      3.47s CPU      2.29s WALL (     101 calls)
     mix_rho      :      0.45s CPU      0.36s WALL (     101 calls)

     Called by c_bands:
     init_us_2    :      8.66s CPU      5.93s WALL (    7308 calls)
     init_us_2:cp :      8.58s CPU      5.88s WALL (    7308 calls)
     cegterg      :    308.04s CPU    208.07s WALL (    3636 calls)

     Called by *egterg:
     cdiaghg      :     23.22s CPU     15.53s WALL (   22672 calls)
     h_psi        :    249.71s CPU    169.75s WALL (   22744 calls)
     s_psi        :      5.62s CPU      3.77s WALL (   22744 calls)
     g_psi        :      2.81s CPU      1.80s WALL (   19072 calls)

     Called by h_psi:
     h_psi:calbec :      6.14s CPU      4.22s WALL (   22744 calls)
     vloc_psi     :    236.01s CPU    160.46s WALL (   22744 calls)
     add_vuspsi   :      5.94s CPU      4.04s WALL (   22744 calls)

     General routines
     calbec       :      7.19s CPU      4.95s WALL (   26380 calls)
     fft          :      0.43s CPU      0.35s WALL (     406 calls)
     ffts         :      0.09s CPU      0.07s WALL (     101 calls)
     fftw         :    210.73s CPU    143.65s WALL (  444048 calls)
     davcio       :      0.02s CPU      0.02s WALL (      54 calls)

     Parallel routines

     PWSCF        :   6m13.87s CPU   4m14.00s WALL


   This run was terminated on:  15:53: 5  14Oct2023            

=------------------------------------------------------------------------------=
   JOB DONE.
=------------------------------------------------------------------------------=
