
     Program PWSCF v.7.2 starts on  3Nov2023 at 10:52:31 

     This program is part of the open-source Quantum ESPRESSO suite
     for quantum simulation of materials; please cite
         "P. Giannozzi et al., J. Phys.:Condens. Matter 21 395502 (2009);
         "P. Giannozzi et al., J. Phys.:Condens. Matter 29 465901 (2017);
         "P. Giannozzi et al., J. Chem. Phys. 152 154105 (2020);
          URL http://www.quantum-espresso.org", 
     in publications or presentations arising from this work. More details at
     http://www.quantum-espresso.org/quote

     Parallel version (MPI), running on     8 processors

     MPI processes distributed on     8 nodes
     185903 MiB available memory on the printing compute node when the environment starts

     Waiting for input...
     Reading input from standard input

     Current dimensions of program PWSCF are:
     Max number of different atomic species (ntypx) = 10
     Max number of k-points (npk) =  40000
     Max angular momentum in pseudopotentials (lmaxx) =  4
     file Cu.pz-d-rrkjus.UPF: wavefunction(s)  3D renormalized
     Message from routine setup:
     using ibrav=0 with symmetry is DISCOURAGED, use correct ibrav instead

     R & G space division:  proc/nbgrp/npool/nimage =       8
     Subspace diagonalization in iterative solution of the eigenvalue problem:
     a serial algorithm will be used


     Parallelization info
     --------------------
     sticks:   dense  smooth     PW     G-vecs:    dense   smooth      PW
     Min          59      30     10                  858      305      57
     Max          60      31     11                  861      308      58
     Sum         475     241     85                 6879     2445     459

     Using Slab Decomposition



     bravais-lattice index     =            0
     lattice parameter (alat)  =       4.6768  a.u.
     unit-cell volume          =      72.3337 (a.u.)^3
     number of atoms/cell      =            1
     number of atomic types    =            1
     number of electrons       =        11.00
     number of Kohn-Sham states=           10
     kinetic-energy cutoff     =      40.0000  Ry
     charge density cutoff     =     320.0000  Ry
     scf convergence threshold =      1.0E-07
     mixing beta               =       0.5000
     number of iterations used =            8  plain     mixing
     energy convergence thresh.=      1.0E-04
     force convergence thresh. =      1.0E-03
     press convergence thresh. =      5.0E-01
     Exchange-correlation=  SLA  PZ   NOGX NOGC
                           (   1   1   0   0   0   0   0)
     nstep                     =           50


     celldm(1)=   4.676834  celldm(2)=   0.000000  celldm(3)=   0.000000
     celldm(4)=   0.000000  celldm(5)=   0.000000  celldm(6)=   0.000000

     crystal axes: (cart. coord. in units of alat)
               a(1) = (   0.000000   0.707107   0.707107 )  
               a(2) = (   0.707107   0.000000   0.707107 )  
               a(3) = (   0.707107   0.707107   0.000000 )  

     reciprocal axes: (cart. coord. in units 2 pi/alat)
               b(1) = ( -0.707107  0.707107  0.707107 )  
               b(2) = (  0.707107 -0.707107  0.707107 )  
               b(3) = (  0.707107  0.707107 -0.707107 )  


     PseudoPot. # 1 for Cu read from file:
     /home/gridsan/epan1/labutil/lab3_samples/pseudopotentials/Cu.pz-d-rrkjus.UPF
     MD5 check sum: fd38ae683e239c95a66f426e1f8e5fc7
     Pseudo is Ultrasoft, Zval = 11.0
     Generated by new atomic code, or converted to UPF format
     Using radial grid of  899 points,  3 beta functions with: 
                l(1) =   2
                l(2) =   2
                l(3) =   1
     Q(r) pseudized with 0 coefficients 


     atomic species   valence    mass     pseudopotential
        Cu            11.00    63.54600     Cu( 1.00)

     Starting magnetic structure 
     atomic species   magnetization
        Cu           0.700

     48 Sym. Ops., with inversion, found



   Cartesian axes

     site n.     atom                  positions (alat units)
         1           Cu  tau(   1) = (   0.0000000   0.0000000   0.0000000  )

     number of k points=     4  Methfessel-Paxton smearing, width (Ry)=  0.0200
                       cart. coord. in units 2pi/alat
        k(    1) = (   0.0000000   0.0000000   0.0000000), wk =   0.0370370
        k(    2) = (   0.2357023   0.2357023  -0.2357023), wk =   0.2962963
        k(    3) = (   0.4714045   0.0000000   0.0000000), wk =   0.2222222
        k(    4) = (  -0.0000000  -0.4714045   0.4714045), wk =   0.4444444

     Dense  grid:     6879 G-vectors     FFT dimensions: (  27,  27,  27)

     Smooth grid:     2445 G-vectors     FFT dimensions: (  20,  20,  20)

     Estimated max dynamical RAM per process >       3.41 MB

     Estimated total dynamical RAM >      27.30 MB
     Generating pointlists ...
     new r_m :   0.4125 (alat units)  1.9292 (a.u.) for type    1

     Initial potential from superposition of free atoms

     starting charge      10.9997, renormalised to      11.0000
     Starting wfcs are    6 randomized atomic wfcs +    4 random wfcs

     total cpu time spent up to now is        0.3 secs

     Self-consistent Calculation

     iteration #  1     ecut=    40.00 Ry     beta= 0.50
     Davidson diagonalization with overlap
     ethr =  1.00E-02,  avg # of iterations =  6.5

     total cpu time spent up to now is        0.4 secs

     total energy              =     -86.88471072 Ry
     estimated scf accuracy    <       1.49295876 Ry

     total magnetization       =     1.89 Bohr mag/cell
     absolute magnetization    =     1.93 Bohr mag/cell

     iteration #  2     ecut=    40.00 Ry     beta= 0.50
     Davidson diagonalization with overlap
     ethr =  1.00E-02,  avg # of iterations =  1.6

     total cpu time spent up to now is        0.4 secs

     total energy              =     -87.62391081 Ry
     estimated scf accuracy    <       0.85039199 Ry

     total magnetization       =     0.11 Bohr mag/cell
     absolute magnetization    =     0.50 Bohr mag/cell

     iteration #  3     ecut=    40.00 Ry     beta= 0.50
     Davidson diagonalization with overlap
     ethr =  7.73E-03,  avg # of iterations =  1.0

     negative rho (up, down):  0.000E+00 1.555E-07

     total cpu time spent up to now is        0.4 secs

     total energy              =     -87.83129190 Ry
     estimated scf accuracy    <       0.23638612 Ry

     total magnetization       =     0.11 Bohr mag/cell
     absolute magnetization    =     0.58 Bohr mag/cell

     iteration #  4     ecut=    40.00 Ry     beta= 0.50
     Davidson diagonalization with overlap
     ethr =  2.15E-03,  avg # of iterations =  1.9

     total cpu time spent up to now is        0.5 secs

     total energy              =     -87.86250768 Ry
     estimated scf accuracy    <       0.04898758 Ry

     total magnetization       =    -0.16 Bohr mag/cell
     absolute magnetization    =     0.16 Bohr mag/cell

     iteration #  5     ecut=    40.00 Ry     beta= 0.50
     Davidson diagonalization with overlap
     ethr =  4.45E-04,  avg # of iterations =  1.8

     total cpu time spent up to now is        0.5 secs

     total energy              =     -87.86622593 Ry
     estimated scf accuracy    <       0.00674727 Ry

     total magnetization       =    -0.13 Bohr mag/cell
     absolute magnetization    =     0.13 Bohr mag/cell

     iteration #  6     ecut=    40.00 Ry     beta= 0.50
     Davidson diagonalization with overlap
     ethr =  6.13E-05,  avg # of iterations =  1.5
     Minimization algorithm failed to find Fermi energy: reverting to bisection
     Possible cause: smearing is larger than the electronic band-gap.

     total cpu time spent up to now is        0.5 secs

     total energy              =     -87.86748634 Ry
     estimated scf accuracy    <       0.00017597 Ry

     total magnetization       =     0.06 Bohr mag/cell
     absolute magnetization    =     0.06 Bohr mag/cell

     iteration #  7     ecut=    40.00 Ry     beta= 0.50
     Davidson diagonalization with overlap
     ethr =  1.60E-06,  avg # of iterations =  2.0
     Minimization algorithm failed to find Fermi energy: reverting to bisection
     Possible cause: smearing is larger than the electronic band-gap.

     total cpu time spent up to now is        0.5 secs

     total energy              =     -87.86776238 Ry
     estimated scf accuracy    <       0.00033723 Ry

     total magnetization       =     0.18 Bohr mag/cell
     absolute magnetization    =     0.18 Bohr mag/cell

     iteration #  8     ecut=    40.00 Ry     beta= 0.50
     Davidson diagonalization with overlap
     ethr =  1.60E-06,  avg # of iterations =  1.0
     Minimization algorithm failed to find Fermi energy: reverting to bisection
     Possible cause: smearing is larger than the electronic band-gap.

     total cpu time spent up to now is        0.6 secs

     total energy              =     -87.86734076 Ry
     estimated scf accuracy    <       0.00036146 Ry

     total magnetization       =     0.19 Bohr mag/cell
     absolute magnetization    =     0.20 Bohr mag/cell

     iteration #  9     ecut=    40.00 Ry     beta= 0.50
     Davidson diagonalization with overlap
     ethr =  1.60E-06,  avg # of iterations =  1.9
     Minimization algorithm failed to find Fermi energy: reverting to bisection
     Possible cause: smearing is larger than the electronic band-gap.

     total cpu time spent up to now is        0.6 secs

     total energy              =     -87.86568790 Ry
     estimated scf accuracy    <       0.00015205 Ry

     total magnetization       =     0.09 Bohr mag/cell
     absolute magnetization    =     0.09 Bohr mag/cell

     iteration # 10     ecut=    40.00 Ry     beta= 0.50
     Davidson diagonalization with overlap
     ethr =  1.38E-06,  avg # of iterations =  2.0

     total cpu time spent up to now is        0.6 secs

     total energy              =     -87.86752973 Ry
     estimated scf accuracy    <       0.00009730 Ry

     total magnetization       =    -0.21 Bohr mag/cell
     absolute magnetization    =     0.23 Bohr mag/cell

     iteration # 11     ecut=    40.00 Ry     beta= 0.50
     Davidson diagonalization with overlap
     ethr =  8.85E-07,  avg # of iterations =  2.0

     total cpu time spent up to now is        0.7 secs

     total energy              =     -87.85869246 Ry
     estimated scf accuracy    <       0.00156896 Ry

     total magnetization       =    -0.11 Bohr mag/cell
     absolute magnetization    =     0.19 Bohr mag/cell

     iteration # 12     ecut=    40.00 Ry     beta= 0.50
     Davidson diagonalization with overlap
     ethr =  8.85E-07,  avg # of iterations =  2.8

     total cpu time spent up to now is        0.7 secs

     total energy              =     -87.86693594 Ry
     estimated scf accuracy    <       0.00209335 Ry

     total magnetization       =     0.11 Bohr mag/cell
     absolute magnetization    =     0.19 Bohr mag/cell

     iteration # 13     ecut=    40.00 Ry     beta= 0.50
     Davidson diagonalization with overlap
     ethr =  8.85E-07,  avg # of iterations =  1.0

     total cpu time spent up to now is        0.7 secs

     total energy              =     -87.86423337 Ry
     estimated scf accuracy    <       0.00161574 Ry

     total magnetization       =     0.11 Bohr mag/cell
     absolute magnetization    =     0.19 Bohr mag/cell

     iteration # 14     ecut=    40.00 Ry     beta= 0.50
     Davidson diagonalization with overlap
     ethr =  8.85E-07,  avg # of iterations =  2.0
     Minimization algorithm failed to find Fermi energy: reverting to bisection
     Possible cause: smearing is larger than the electronic band-gap.

     total cpu time spent up to now is        0.8 secs

     total energy              =     -87.86093976 Ry
     estimated scf accuracy    <       0.00426799 Ry

     total magnetization       =     0.11 Bohr mag/cell
     absolute magnetization    =     0.22 Bohr mag/cell

     iteration # 15     ecut=    40.00 Ry     beta= 0.50
     Davidson diagonalization with overlap
     ethr =  8.85E-07,  avg # of iterations =  2.0

     total cpu time spent up to now is        0.8 secs

     total energy              =     -87.86756969 Ry
     estimated scf accuracy    <       0.00758969 Ry

     total magnetization       =     0.11 Bohr mag/cell
     absolute magnetization    =     0.25 Bohr mag/cell

     iteration # 16     ecut=    40.00 Ry     beta= 0.50
     Davidson diagonalization with overlap
     ethr =  8.85E-07,  avg # of iterations =  2.6

     total cpu time spent up to now is        0.9 secs

     total energy              =     -87.86586891 Ry
     estimated scf accuracy    <       0.00001074 Ry

     total magnetization       =     0.18 Bohr mag/cell
     absolute magnetization    =     0.21 Bohr mag/cell

     iteration # 17     ecut=    40.00 Ry     beta= 0.50
     Davidson diagonalization with overlap
     ethr =  9.77E-08,  avg # of iterations =  3.0

     total cpu time spent up to now is        0.9 secs

     total energy              =     -87.86727757 Ry
     estimated scf accuracy    <       0.00321745 Ry

     total magnetization       =     0.11 Bohr mag/cell
     absolute magnetization    =     0.21 Bohr mag/cell

     iteration # 18     ecut=    40.00 Ry     beta= 0.50
     Davidson diagonalization with overlap
     ethr =  9.77E-08,  avg # of iterations =  2.2

     total cpu time spent up to now is        0.9 secs

     total energy              =     -87.85609697 Ry
     estimated scf accuracy    <       0.00119023 Ry

     total magnetization       =     0.12 Bohr mag/cell
     absolute magnetization    =     0.18 Bohr mag/cell

     iteration # 19     ecut=    40.00 Ry     beta= 0.50
     Davidson diagonalization with overlap
     ethr =  9.77E-08,  avg # of iterations =  4.1

     total cpu time spent up to now is        1.0 secs

     total energy              =     -87.86815133 Ry
     estimated scf accuracy    <       0.00335892 Ry

     total magnetization       =    -0.11 Bohr mag/cell
     absolute magnetization    =     0.21 Bohr mag/cell

     iteration # 20     ecut=    40.00 Ry     beta= 0.50
     Davidson diagonalization with overlap
     ethr =  9.77E-08,  avg # of iterations =  3.2

     total cpu time spent up to now is        1.0 secs

     total energy              =     -87.86378494 Ry
     estimated scf accuracy    <       0.00019551 Ry

     total magnetization       =    -0.22 Bohr mag/cell
     absolute magnetization    =     0.23 Bohr mag/cell

     iteration # 21     ecut=    40.00 Ry     beta= 0.50
     Davidson diagonalization with overlap
     ethr =  9.77E-08,  avg # of iterations =  3.2

     total cpu time spent up to now is        1.1 secs

     total energy              =     -87.86817786 Ry
     estimated scf accuracy    <       0.00007864 Ry

     total magnetization       =     0.21 Bohr mag/cell
     absolute magnetization    =     0.22 Bohr mag/cell

     iteration # 22     ecut=    40.00 Ry     beta= 0.50
     Davidson diagonalization with overlap
     ethr =  9.77E-08,  avg # of iterations =  1.0

     total cpu time spent up to now is        1.1 secs

     total energy              =     -87.86819019 Ry
     estimated scf accuracy    <       0.00008129 Ry

     total magnetization       =     0.21 Bohr mag/cell
     absolute magnetization    =     0.22 Bohr mag/cell

     iteration # 23     ecut=    40.00 Ry     beta= 0.50
     Davidson diagonalization with overlap
     ethr =  9.77E-08,  avg # of iterations =  1.0

     total cpu time spent up to now is        1.1 secs

     total energy              =     -87.86820195 Ry
     estimated scf accuracy    <       0.00005974 Ry

     total magnetization       =     0.20 Bohr mag/cell
     absolute magnetization    =     0.22 Bohr mag/cell

     iteration # 24     ecut=    40.00 Ry     beta= 0.50
     Davidson diagonalization with overlap
     ethr =  9.77E-08,  avg # of iterations =  1.0

     total cpu time spent up to now is        1.1 secs

     total energy              =     -87.86816439 Ry
     estimated scf accuracy    <       0.00004027 Ry

     total magnetization       =     0.20 Bohr mag/cell
     absolute magnetization    =     0.22 Bohr mag/cell

     iteration # 25     ecut=    40.00 Ry     beta= 0.50
     Davidson diagonalization with overlap
     ethr =  9.77E-08,  avg # of iterations =  1.0

     total cpu time spent up to now is        1.2 secs

     total energy              =     -87.86817532 Ry
     estimated scf accuracy    <       0.00010681 Ry

     total magnetization       =     0.21 Bohr mag/cell
     absolute magnetization    =     0.23 Bohr mag/cell

     iteration # 26     ecut=    40.00 Ry     beta= 0.50
     Davidson diagonalization with overlap
     ethr =  9.77E-08,  avg # of iterations =  1.0

     total cpu time spent up to now is        1.2 secs

     total energy              =     -87.86811162 Ry
     estimated scf accuracy    <       0.00008396 Ry

     total magnetization       =     0.21 Bohr mag/cell
     absolute magnetization    =     0.23 Bohr mag/cell

     iteration # 27     ecut=    40.00 Ry     beta= 0.50
     Davidson diagonalization with overlap
     ethr =  9.77E-08,  avg # of iterations =  1.1

     total cpu time spent up to now is        1.2 secs

     total energy              =     -87.86824853 Ry
     estimated scf accuracy    <       0.00018648 Ry

     total magnetization       =     0.22 Bohr mag/cell
     absolute magnetization    =     0.23 Bohr mag/cell

     iteration # 28     ecut=    40.00 Ry     beta= 0.50
     Davidson diagonalization with overlap
     ethr =  9.77E-08,  avg # of iterations =  2.0

     total cpu time spent up to now is        1.3 secs

     total energy              =     -87.86822350 Ry
     estimated scf accuracy    <       0.00000085 Ry

     total magnetization       =     0.19 Bohr mag/cell
     absolute magnetization    =     0.21 Bohr mag/cell

     iteration # 29     ecut=    40.00 Ry     beta= 0.50
     Davidson diagonalization with overlap
     ethr =  7.71E-09,  avg # of iterations =  1.4

     total cpu time spent up to now is        1.3 secs

     total energy              =     -87.86822333 Ry
     estimated scf accuracy    <       0.00000012 Ry

     total magnetization       =     0.18 Bohr mag/cell
     absolute magnetization    =     0.21 Bohr mag/cell

     iteration # 30     ecut=    40.00 Ry     beta= 0.50
     Davidson diagonalization with overlap
     ethr =  1.09E-09,  avg # of iterations =  1.0

     Magnetic moment per site  (integrated on atomic sphere of radius R)
     atom   1 (R=0.412)  charge=  9.7684  magn=  0.1932

     total cpu time spent up to now is        1.3 secs

     End of self-consistent calculation

 ------ SPIN UP ------------


          k = 0.0000 0.0000 0.0000 (   331 PWs)   bands (ev):

     5.6279  11.8292  11.8292  11.8292  12.7604  12.7604  40.5196  42.9950
    42.9950  42.9950

          k = 0.2357 0.2357-0.2357 (   308 PWs)   bands (ev):

     9.0269  11.9161  11.9161  11.9946  13.1135  13.1135  24.9151  39.3890
    39.7875  39.7875

          k = 0.4714 0.0000 0.0000 (   310 PWs)   bands (ev):

     9.6130  10.6267  13.0566  13.0566  13.1612  13.2331  30.2853  31.7045
    31.7045  35.2173

          k =-0.0000-0.4714 0.4714 (   309 PWs)   bands (ev):

    10.7119  10.9225  11.7330  12.6845  13.2029  19.0669  21.8625  24.9587
    33.5143  37.1186

 ------ SPIN DOWN ----------


          k = 0.0000 0.0000 0.0000 (   331 PWs)   bands (ev):

     5.6367  12.0937  12.0937  12.0937  13.0647  13.0647  40.4950  43.0213
    43.0213  43.0213

          k = 0.2357 0.2357-0.2357 (   308 PWs)   bands (ev):

     9.0966  12.1593  12.1903  12.1903  13.4129  13.4129  24.9956  39.3715
    39.8328  39.8328

          k = 0.4714 0.0000 0.0000 (   310 PWs)   bands (ev):

     9.7328  10.8598  13.3108  13.3420  13.3420  13.5463  30.3497  31.7353
    31.7353  35.2834

          k =-0.0000-0.4714 0.4714 (   309 PWs)   bands (ev):

    10.9374  11.1273  11.9609  12.9816  13.4939  19.1720  21.9378  25.0446
    33.5534  37.1619

     the Fermi energy is    13.6093 ev

!    total energy              =     -87.86822338 Ry
     estimated scf accuracy    <       0.00000005 Ry
     smearing contrib. (-TS)   =       0.00103430 Ry
     internal energy E=F+TS    =     -87.86925768 Ry

     The total energy is F=E-TS. E is the sum of the following terms:
     one-electron contribution =      -8.00128211 Ry
     hartree contribution      =      18.07985140 Ry
     xc contribution           =     -14.07047054 Ry
     ewald contribution        =     -83.87735643 Ry

     total magnetization       =     0.18 Bohr mag/cell
     absolute magnetization    =     0.21 Bohr mag/cell

     convergence has been achieved in  30 iterations

     Forces acting on atoms (cartesian axes, Ry/au):

     atom    1 type  1   force =     0.00000000    0.00000000    0.00000000
     The non-local contrib.  to forces
     atom    1 type  1   force =    -0.00000000   -0.00000000    0.00000000
     The ionic contribution  to forces
     atom    1 type  1   force =    -0.00000000   -0.00000000   -0.00000000
     The local contribution  to forces
     atom    1 type  1   force =    -0.00000000   -0.00000000    0.00000000
     The core correction contribution to forces
     atom    1 type  1   force =     0.00000000    0.00000000    0.00000000
     The Hubbard contrib.    to forces
     atom    1 type  1   force =     0.00000000    0.00000000    0.00000000
     The SCF correction term to forces
     atom    1 type  1   force =    -0.00000000   -0.00000000    0.00000000

     Total force =     0.000000     Total SCF correction =     0.000000


     Computing stress (Cartesian axis) and pressure

          total   stress  (Ry/bohr**3)                   (kbar)     P=       36.64
   0.00024904  -0.00000000  -0.00000000           36.64       -0.00       -0.00
  -0.00000000   0.00024904  -0.00000000           -0.00       36.64       -0.00
  -0.00000000  -0.00000000   0.00024904           -0.00       -0.00       36.64


     BFGS Geometry Optimization
     Energy error            =      0.0E+00 Ry
     Gradient error          =      0.0E+00 Ry/Bohr
     Cell gradient error     =      3.7E+01 kbar

     number of scf cycles    =   1
     number of bfgs steps    =   0

     enthalpy           new  =     -87.8682233756 Ry

     new trust radius        =       0.0105903772 bohr
     new conv_thr            =       0.0000001000 Ry

     new unit-cell volume =     73.69319 a.u.^3 (    10.92020 Ang^3 )
     density =      9.66288 g/cm^3

CELL_PARAMETERS (angstrom)
  -0.000000000   1.760895549   1.760895549
   1.760895549  -0.000000000   1.760895549
   1.760895549   1.760895549  -0.000000000

ATOMIC_POSITIONS (angstrom)
Cu            0.0000000000        0.0000000000        0.0000000000



     Writing config-only to output data dir /home/gridsan/epan1/labutil/lab3_samples/problem3/Lab3/Cu_a_3.5_ecut_40_nk_3/pwscf.save/
     NEW-OLD atomic charge density approx. for the potential
     extrapolated charge   11.20292, renormalised to   11.00000
     Generating pointlists ...

     total cpu time spent up to now is        1.5 secs

     Self-consistent Calculation

     iteration #  1     ecut=    40.00 Ry     beta= 0.50
     Davidson diagonalization with overlap
     ethr =  1.00E-06,  avg # of iterations =  3.0

     total cpu time spent up to now is        1.5 secs

     total energy              =     -87.84522371 Ry
     estimated scf accuracy    <       0.02057534 Ry

     total magnetization       =     0.17 Bohr mag/cell
     absolute magnetization    =     0.20 Bohr mag/cell

     iteration #  2     ecut=    40.00 Ry     beta= 0.50
     Davidson diagonalization with overlap
     ethr =  1.87E-04,  avg # of iterations =  2.0

     total cpu time spent up to now is        1.6 secs

     total energy              =     -87.86664414 Ry
     estimated scf accuracy    <       0.05326574 Ry

     total magnetization       =     0.04 Bohr mag/cell
     absolute magnetization    =     0.04 Bohr mag/cell

     iteration #  3     ecut=    40.00 Ry     beta= 0.50
     Davidson diagonalization with overlap
     ethr =  1.87E-04,  avg # of iterations =  1.0
     Minimization algorithm failed to find Fermi energy: reverting to bisection
     Possible cause: smearing is larger than the electronic band-gap.

     total cpu time spent up to now is        1.6 secs

     total energy              =     -87.86884454 Ry
     estimated scf accuracy    <       0.00652994 Ry

     total magnetization       =     0.19 Bohr mag/cell
     absolute magnetization    =     0.19 Bohr mag/cell

     iteration #  4     ecut=    40.00 Ry     beta= 0.50
     Davidson diagonalization with overlap
     ethr =  5.94E-05,  avg # of iterations =  1.0

     total cpu time spent up to now is        1.6 secs

     total energy              =     -87.86870274 Ry
     estimated scf accuracy    <       0.00240208 Ry

     total magnetization       =     0.20 Bohr mag/cell
     absolute magnetization    =     0.21 Bohr mag/cell

     iteration #  5     ecut=    40.00 Ry     beta= 0.50
     Davidson diagonalization with overlap
     ethr =  2.18E-05,  avg # of iterations =  1.0

     total cpu time spent up to now is        1.7 secs

     total energy              =     -87.86854486 Ry
     estimated scf accuracy    <       0.00120839 Ry

     total magnetization       =     0.19 Bohr mag/cell
     absolute magnetization    =     0.21 Bohr mag/cell

     iteration #  6     ecut=    40.00 Ry     beta= 0.50
     Davidson diagonalization with overlap
     ethr =  1.10E-05,  avg # of iterations =  1.0

     total cpu time spent up to now is        1.7 secs

     total energy              =     -87.86849947 Ry
     estimated scf accuracy    <       0.00058590 Ry

     total magnetization       =     0.19 Bohr mag/cell
     absolute magnetization    =     0.21 Bohr mag/cell

     iteration #  7     ecut=    40.00 Ry     beta= 0.50
     Davidson diagonalization with overlap
     ethr =  5.33E-06,  avg # of iterations =  1.0

     total cpu time spent up to now is        1.7 secs

     total energy              =     -87.86848059 Ry
     estimated scf accuracy    <       0.00037510 Ry

     total magnetization       =     0.19 Bohr mag/cell
     absolute magnetization    =     0.21 Bohr mag/cell

     iteration #  8     ecut=    40.00 Ry     beta= 0.50
     Davidson diagonalization with overlap
     ethr =  3.41E-06,  avg # of iterations =  1.0

     total cpu time spent up to now is        1.7 secs

     total energy              =     -87.86833850 Ry
     estimated scf accuracy    <       0.00029939 Ry

     total magnetization       =     0.19 Bohr mag/cell
     absolute magnetization    =     0.21 Bohr mag/cell

     iteration #  9     ecut=    40.00 Ry     beta= 0.50
     Davidson diagonalization with overlap
     ethr =  2.72E-06,  avg # of iterations =  1.1

     total cpu time spent up to now is        1.8 secs

     total energy              =     -87.86838875 Ry
     estimated scf accuracy    <       0.00000243 Ry

     total magnetization       =     0.18 Bohr mag/cell
     absolute magnetization    =     0.21 Bohr mag/cell

     iteration # 10     ecut=    40.00 Ry     beta= 0.50
     Davidson diagonalization with overlap
     ethr =  2.21E-08,  avg # of iterations =  1.8

     total cpu time spent up to now is        1.8 secs

     total energy              =     -87.86838907 Ry
     estimated scf accuracy    <       0.00000200 Ry

     total magnetization       =     0.18 Bohr mag/cell
     absolute magnetization    =     0.21 Bohr mag/cell

     iteration # 11     ecut=    40.00 Ry     beta= 0.50
     Davidson diagonalization with overlap
     ethr =  1.82E-08,  avg # of iterations =  1.0

     total cpu time spent up to now is        1.8 secs

     total energy              =     -87.86838878 Ry
     estimated scf accuracy    <       0.00000331 Ry

     total magnetization       =     0.18 Bohr mag/cell
     absolute magnetization    =     0.21 Bohr mag/cell

     iteration # 12     ecut=    40.00 Ry     beta= 0.50
     Davidson diagonalization with overlap
     ethr =  1.82E-08,  avg # of iterations =  1.0

     total cpu time spent up to now is        1.9 secs

     total energy              =     -87.86838887 Ry
     estimated scf accuracy    <       0.00000040 Ry

     total magnetization       =     0.18 Bohr mag/cell
     absolute magnetization    =     0.21 Bohr mag/cell

     iteration # 13     ecut=    40.00 Ry     beta= 0.50
     Davidson diagonalization with overlap
     ethr =  3.62E-09,  avg # of iterations =  1.1

     Magnetic moment per site  (integrated on atomic sphere of radius R)
     atom   1 (R=0.412)  charge=  9.7482  magn=  0.1945

     total cpu time spent up to now is        1.9 secs

     End of self-consistent calculation

 ------ SPIN UP ------------


          k = 0.0000 0.0000 0.0000 (   331 PWs)   bands (ev):

     5.3940  11.5116  11.5116  11.5116  12.4170  12.4170  39.9290  42.2702
    42.2702  42.2702

          k = 0.2342 0.2342-0.2342 (   308 PWs)   bands (ev):

     8.7595  11.5970  11.5970  11.6796  12.7598  12.7598  24.3976  38.8059
    39.0794  39.0794

          k = 0.4685 0.0000 0.0000 (   310 PWs)   bands (ev):

     9.3472  10.3444  12.7043  12.7043  12.8175  12.8764  29.7218  31.1235
    31.1235  34.6108

          k =-0.0000-0.4685 0.4685 (   309 PWs)   bands (ev):

    10.4264  10.6358  11.4211  12.3445  12.8461  18.6323  21.4025  24.4243
    32.9040  36.4774

 ------ SPIN DOWN ----------


          k = 0.0000 0.0000 0.0000 (   331 PWs)   bands (ev):

     5.4026  11.7774  11.7774  11.7774  12.7198  12.7198  39.9044  42.2966
    42.2966  42.2966

          k = 0.2342 0.2342-0.2342 (   308 PWs)   bands (ev):

     8.8289  11.8461  11.8714  11.8714  13.0591  13.0591  24.4772  38.7883
    39.1241  39.1241

          k = 0.4685 0.0000 0.0000 (   310 PWs)   bands (ev):

     9.4663  10.5791  12.9668  12.9908  12.9908  13.1879  29.7851  31.1537
    31.1537  34.6763

          k =-0.0000-0.4685 0.4685 (   309 PWs)   bands (ev):

    10.6527  10.8415  11.6509  12.6404  13.1382  18.7360  21.4768  24.5089
    32.9423  36.5204

     the Fermi energy is    13.2536 ev

!    total energy              =     -87.86838888 Ry
     estimated scf accuracy    <       0.00000009 Ry
     smearing contrib. (-TS)   =       0.00103254 Ry
     internal energy E=F+TS    =     -87.86942142 Ry

     The total energy is F=E-TS. E is the sum of the following terms:
     one-electron contribution =      -8.79073847 Ry
     hartree contribution      =      18.33886943 Ry
     xc contribution           =     -14.05918745 Ry
     ewald contribution        =     -83.35836492 Ry

     total magnetization       =     0.18 Bohr mag/cell
     absolute magnetization    =     0.21 Bohr mag/cell

     convergence has been achieved in  13 iterations

     Forces acting on atoms (cartesian axes, Ry/au):

     atom    1 type  1   force =     0.00000000    0.00000000    0.00000000
     The non-local contrib.  to forces
     atom    1 type  1   force =     0.00000000    0.00000000   -0.00000000
     The ionic contribution  to forces
     atom    1 type  1   force =    -0.00000000   -0.00000000   -0.00000000
     The local contribution  to forces
     atom    1 type  1   force =    -0.00000000   -0.00000000    0.00000000
     The core correction contribution to forces
     atom    1 type  1   force =     0.00000000    0.00000000    0.00000000
     The Hubbard contrib.    to forces
     atom    1 type  1   force =     0.00000000    0.00000000    0.00000000
     The SCF correction term to forces
     atom    1 type  1   force =     0.00000000    0.00000000    0.00000000

     Total force =     0.000000     Total SCF correction =     0.000000


     Computing stress (Cartesian axis) and pressure

          total   stress  (Ry/bohr**3)                   (kbar)     P=        4.64
   0.00003152  -0.00000000  -0.00000000            4.64       -0.00       -0.00
  -0.00000000   0.00003152  -0.00000000           -0.00        4.64       -0.00
  -0.00000000  -0.00000000   0.00003152           -0.00       -0.00        4.64

     Energy error            =      1.7E-04 Ry
     Gradient error          =      0.0E+00 Ry/Bohr
     Cell gradient error     =      4.6E+00 kbar

     number of scf cycles    =   2
     number of bfgs steps    =   1

     enthalpy           old  =     -87.8682233756 Ry
     enthalpy           new  =     -87.8683888801 Ry

     CASE: enthalpy          _new < enthalpy          _old

     new trust radius        =       0.0015611505 bohr
     new conv_thr            =       0.0000000010 Ry

     new unit-cell volume =     73.89440 a.u.^3 (    10.95002 Ang^3 )
     density =      9.63657 g/cm^3

CELL_PARAMETERS (angstrom)
  -0.000000000   1.762496709   1.762496709
   1.762496709  -0.000000000   1.762496709
   1.762496709   1.762496709  -0.000000000

ATOMIC_POSITIONS (angstrom)
Cu            0.0000000000        0.0000000000        0.0000000000



     Writing config-only to output data dir /home/gridsan/epan1/labutil/lab3_samples/problem3/Lab3/Cu_a_3.5_ecut_40_nk_3/pwscf.save/
     NEW-OLD atomic charge density approx. for the potential
     extrapolated charge   11.02995, renormalised to   11.00000
     Generating pointlists ...

     total cpu time spent up to now is        2.0 secs

     Self-consistent Calculation

     iteration #  1     ecut=    40.00 Ry     beta= 0.50
     Davidson diagonalization with overlap
     ethr =  1.00E-06,  avg # of iterations =  2.0

     total cpu time spent up to now is        2.1 secs

     total energy              =     -87.86792559 Ry
     estimated scf accuracy    <       0.00042095 Ry

     total magnetization       =     0.18 Bohr mag/cell
     absolute magnetization    =     0.21 Bohr mag/cell

     iteration #  2     ecut=    40.00 Ry     beta= 0.50
     Davidson diagonalization with overlap
     ethr =  3.83E-06,  avg # of iterations =  2.0

     total cpu time spent up to now is        2.1 secs

     total energy              =     -87.86837973 Ry
     estimated scf accuracy    <       0.00065634 Ry

     total magnetization       =     0.19 Bohr mag/cell
     absolute magnetization    =     0.21 Bohr mag/cell

     iteration #  3     ecut=    40.00 Ry     beta= 0.50
     Davidson diagonalization with overlap
     ethr =  3.83E-06,  avg # of iterations =  1.0
     Minimization algorithm failed to find Fermi energy: reverting to bisection
     Possible cause: smearing is larger than the electronic band-gap.

     total cpu time spent up to now is        2.1 secs

     total energy              =     -87.86840245 Ry
     estimated scf accuracy    <       0.00011025 Ry

     total magnetization       =     0.19 Bohr mag/cell
     absolute magnetization    =     0.21 Bohr mag/cell

     iteration #  4     ecut=    40.00 Ry     beta= 0.50
     Davidson diagonalization with overlap
     ethr =  1.00E-06,  avg # of iterations =  1.0
     Minimization algorithm failed to find Fermi energy: reverting to bisection
     Possible cause: smearing is larger than the electronic band-gap.

     total cpu time spent up to now is        2.2 secs

     total energy              =     -87.86839257 Ry
     estimated scf accuracy    <       0.00004872 Ry

     total magnetization       =     0.19 Bohr mag/cell
     absolute magnetization    =     0.21 Bohr mag/cell

     iteration #  5     ecut=    40.00 Ry     beta= 0.50
     Davidson diagonalization with overlap
     ethr =  4.43E-07,  avg # of iterations =  1.0
     Minimization algorithm failed to find Fermi energy: reverting to bisection
     Possible cause: smearing is larger than the electronic band-gap.

     total cpu time spent up to now is        2.2 secs

     total energy              =     -87.86839252 Ry
     estimated scf accuracy    <       0.00001544 Ry

     total magnetization       =     0.19 Bohr mag/cell
     absolute magnetization    =     0.21 Bohr mag/cell

     iteration #  6     ecut=    40.00 Ry     beta= 0.50
     Davidson diagonalization with overlap
     ethr =  1.40E-07,  avg # of iterations =  1.0
     Minimization algorithm failed to find Fermi energy: reverting to bisection
     Possible cause: smearing is larger than the electronic band-gap.

     total cpu time spent up to now is        2.2 secs

     total energy              =     -87.86838864 Ry
     estimated scf accuracy    <       0.00000994 Ry

     total magnetization       =     0.18 Bohr mag/cell
     absolute magnetization    =     0.21 Bohr mag/cell

     iteration #  7     ecut=    40.00 Ry     beta= 0.50
     Davidson diagonalization with overlap
     ethr =  9.04E-08,  avg # of iterations =  1.0

     total cpu time spent up to now is        2.3 secs

     total energy              =     -87.86838931 Ry
     estimated scf accuracy    <       0.00000072 Ry

     total magnetization       =     0.18 Bohr mag/cell
     absolute magnetization    =     0.21 Bohr mag/cell

     iteration #  8     ecut=    40.00 Ry     beta= 0.50
     Davidson diagonalization with overlap
     ethr =  6.54E-09,  avg # of iterations =  1.5

     Magnetic moment per site  (integrated on atomic sphere of radius R)
     atom   1 (R=0.412)  charge=  9.7453  magn=  0.1949

     total cpu time spent up to now is        2.3 secs

     End of self-consistent calculation

 ------ SPIN UP ------------


          k = 0.0000 0.0000 0.0000 (   331 PWs)   bands (ev):

     5.3597  11.4669  11.4669  11.4669  12.3683  12.3683  39.8425  42.1645
    42.1645  42.1645

          k = 0.2340 0.2340-0.2340 (   308 PWs)   bands (ev):

     8.7208  11.5520  11.5520  11.6346  12.7099  12.7099  24.3227  38.7206
    38.9764  38.9764

          k = 0.4681 0.0000 0.0000 (   310 PWs)   bands (ev):

     9.3088  10.3046  12.6548  12.6548  12.7679  12.8259  29.6399  31.0389
    31.0389  34.5228

          k =-0.0000-0.4681 0.4681 (   309 PWs)   bands (ev):

    10.3860  10.5949  11.3770  12.2963  12.7960  18.5695  21.3359  24.3468
    32.8152  36.3842

 ------ SPIN DOWN ----------


          k = 0.0000 0.0000 0.0000 (   331 PWs)   bands (ev):

     5.3689  11.7321  11.7321  11.7321  12.6708  12.6708  39.8188  42.1915
    42.1915  42.1915

          k = 0.2340 0.2340-0.2340 (   308 PWs)   bands (ev):

     8.7904  11.8011  11.8258  11.8258  13.0086  13.0086  24.4024  38.7038
    39.0216  39.0216

          k = 0.4681 0.0000 0.0000 (   310 PWs)   bands (ev):

     9.4281  10.5389  12.9176  12.9406  12.9406  13.1369  29.7035  31.0696
    31.0696  34.5887

          k =-0.0000-0.4681 0.4681 (   309 PWs)   bands (ev):

    10.6119  10.8007  11.6064  12.5918  13.0873  18.6732  21.4104  24.4316
    32.8540  36.4277

     the Fermi energy is    13.2027 ev

!    total energy              =     -87.86838946 Ry
     estimated scf accuracy    <          3.6E-11 Ry
     smearing contrib. (-TS)   =       0.00103685 Ry
     internal energy E=F+TS    =     -87.86942631 Ry

     The total energy is F=E-TS. E is the sum of the following terms:
     one-electron contribution =      -8.90513257 Ry
     hartree contribution      =      18.37566182 Ry
     xc contribution           =     -14.05731847 Ry
     ewald contribution        =     -83.28263709 Ry

     total magnetization       =     0.18 Bohr mag/cell
     absolute magnetization    =     0.21 Bohr mag/cell

     convergence has been achieved in   8 iterations

     Forces acting on atoms (cartesian axes, Ry/au):

     atom    1 type  1   force =     0.00000000    0.00000000    0.00000000
     The non-local contrib.  to forces
     atom    1 type  1   force =    -0.00000000   -0.00000000    0.00000000
     The ionic contribution  to forces
     atom    1 type  1   force =    -0.00000000   -0.00000000   -0.00000000
     The local contribution  to forces
     atom    1 type  1   force =    -0.00000000   -0.00000000    0.00000000
     The core correction contribution to forces
     atom    1 type  1   force =     0.00000000    0.00000000    0.00000000
     The Hubbard contrib.    to forces
     atom    1 type  1   force =     0.00000000    0.00000000    0.00000000
     The SCF correction term to forces
     atom    1 type  1   force =     0.00000000    0.00000000   -0.00000000

     Total force =     0.000000     Total SCF correction =     0.000000


     Computing stress (Cartesian axis) and pressure

          total   stress  (Ry/bohr**3)                   (kbar)     P=       -5.22
  -0.00003550  -0.00000000   0.00000000           -5.22       -0.00        0.00
  -0.00000000  -0.00003550  -0.00000000           -0.00       -5.22       -0.00
  -0.00000000  -0.00000000  -0.00003550           -0.00       -0.00       -5.22

     Energy error            =      5.8E-07 Ry
     Gradient error          =      0.0E+00 Ry/Bohr
     Cell gradient error     =      5.2E+00 kbar

     number of scf cycles    =   3
     number of bfgs steps    =   2

     enthalpy           old  =     -87.8683888801 Ry
     enthalpy           new  =     -87.8683894574 Ry

     CASE: enthalpy          _new < enthalpy          _old

     new trust radius        =       0.0008280901 bohr
     new conv_thr            =       0.0000000010 Ry

     new unit-cell volume =     73.78768 a.u.^3 (    10.93421 Ang^3 )
     density =      9.65051 g/cm^3

CELL_PARAMETERS (angstrom)
  -0.000000000   1.761647782   1.761647782
   1.761647782  -0.000000000   1.761647782
   1.761647782   1.761647782  -0.000000000

ATOMIC_POSITIONS (angstrom)
Cu            0.0000000000        0.0000000000        0.0000000000



     Writing config-only to output data dir /home/gridsan/epan1/labutil/lab3_samples/problem3/Lab3/Cu_a_3.5_ecut_40_nk_3/pwscf.save/
     NEW-OLD atomic charge density approx. for the potential
     extrapolated charge   10.98409, renormalised to   11.00000
     Generating pointlists ...

     total cpu time spent up to now is        2.4 secs

     Self-consistent Calculation

     iteration #  1     ecut=    40.00 Ry     beta= 0.50
     Davidson diagonalization with overlap
     ethr =  1.00E-06,  avg # of iterations =  2.0

     total cpu time spent up to now is        2.5 secs

     total energy              =     -87.86823947 Ry
     estimated scf accuracy    <       0.00013991 Ry

     total magnetization       =     0.19 Bohr mag/cell
     absolute magnetization    =     0.21 Bohr mag/cell

     iteration #  2     ecut=    40.00 Ry     beta= 0.50
     Davidson diagonalization with overlap
     ethr =  1.27E-06,  avg # of iterations =  2.0

     total cpu time spent up to now is        2.5 secs

     total energy              =     -87.86839146 Ry
     estimated scf accuracy    <       0.00019780 Ry

     total magnetization       =     0.18 Bohr mag/cell
     absolute magnetization    =     0.21 Bohr mag/cell

     iteration #  3     ecut=    40.00 Ry     beta= 0.50
     Davidson diagonalization with overlap
     ethr =  1.27E-06,  avg # of iterations =  1.0

     total cpu time spent up to now is        2.5 secs

     total energy              =     -87.86839348 Ry
     estimated scf accuracy    <       0.00003890 Ry

     total magnetization       =     0.18 Bohr mag/cell
     absolute magnetization    =     0.21 Bohr mag/cell

     iteration #  4     ecut=    40.00 Ry     beta= 0.50
     Davidson diagonalization with overlap
     ethr =  3.54E-07,  avg # of iterations =  1.0

     total cpu time spent up to now is        2.5 secs

     total energy              =     -87.86839129 Ry
     estimated scf accuracy    <       0.00001260 Ry

     total magnetization       =     0.18 Bohr mag/cell
     absolute magnetization    =     0.21 Bohr mag/cell

     iteration #  5     ecut=    40.00 Ry     beta= 0.50
     Davidson diagonalization with overlap
     ethr =  1.15E-07,  avg # of iterations =  1.0

     total cpu time spent up to now is        2.6 secs

     total energy              =     -87.86839124 Ry
     estimated scf accuracy    <       0.00000326 Ry

     total magnetization       =     0.18 Bohr mag/cell
     absolute magnetization    =     0.21 Bohr mag/cell

     iteration #  6     ecut=    40.00 Ry     beta= 0.50
     Davidson diagonalization with overlap
     ethr =  2.97E-08,  avg # of iterations =  1.0

     total cpu time spent up to now is        2.6 secs

     total energy              =     -87.86839065 Ry
     estimated scf accuracy    <       0.00000147 Ry

     total magnetization       =     0.18 Bohr mag/cell
     absolute magnetization    =     0.21 Bohr mag/cell

     iteration #  7     ecut=    40.00 Ry     beta= 0.50
     Davidson diagonalization with overlap
     ethr =  1.34E-08,  avg # of iterations =  1.0

     total cpu time spent up to now is        2.6 secs

     total energy              =     -87.86839084 Ry
     estimated scf accuracy    <       0.00000004 Ry

     total magnetization       =     0.18 Bohr mag/cell
     absolute magnetization    =     0.21 Bohr mag/cell

     iteration #  8     ecut=    40.00 Ry     beta= 0.50
     Davidson diagonalization with overlap
     ethr =  3.45E-10,  avg # of iterations =  1.5

     total cpu time spent up to now is        2.7 secs

     total energy              =     -87.86839084 Ry
     estimated scf accuracy    <       0.00000002 Ry

     total magnetization       =     0.18 Bohr mag/cell
     absolute magnetization    =     0.21 Bohr mag/cell

     iteration #  9     ecut=    40.00 Ry     beta= 0.50
     Davidson diagonalization with overlap
     ethr =  1.76E-10,  avg # of iterations =  1.0

     total cpu time spent up to now is        2.7 secs

     total energy              =     -87.86839084 Ry
     estimated scf accuracy    <          2.4E-09 Ry

     total magnetization       =     0.18 Bohr mag/cell
     absolute magnetization    =     0.21 Bohr mag/cell

     iteration # 10     ecut=    40.00 Ry     beta= 0.50
     Davidson diagonalization with overlap
     ethr =  2.15E-11,  avg # of iterations =  1.5

     Magnetic moment per site  (integrated on atomic sphere of radius R)
     atom   1 (R=0.412)  charge=  9.7468  magn=  0.1948

     total cpu time spent up to now is        2.7 secs

     End of self-consistent calculation

 ------ SPIN UP ------------


          k = 0.0000 0.0000 0.0000 (   331 PWs)   bands (ev):

     5.3777  11.4912  11.4912  11.4912  12.3946  12.3946  39.8879  42.2203
    42.2203  42.2203

          k = 0.2341 0.2341-0.2341 (   308 PWs)   bands (ev):

     8.7413  11.5764  11.5764  11.6587  12.7370  12.7370  24.3624  38.7655
    39.0308  39.0308

          k = 0.4683 0.0000 0.0000 (   310 PWs)   bands (ev):

     9.3292  10.3262  12.6817  12.6817  12.7943  12.8532  29.6832  31.0835
    31.0835  34.5693

          k =-0.0000-0.4683 0.4683 (   309 PWs)   bands (ev):

    10.4079  10.6169  11.4009  12.3223  12.8232  18.6028  21.3712  24.3879
    32.8621  36.4335

 ------ SPIN DOWN ----------


          k = 0.0000 0.0000 0.0000 (   331 PWs)   bands (ev):

     5.3869  11.7563  11.7563  11.7563  12.6971  12.6971  39.8642  42.2473
    42.2473  42.2473

          k = 0.2341 0.2341-0.2341 (   308 PWs)   bands (ev):

     8.8109  11.8251  11.8502  11.8502  13.0356  13.0356  24.4421  38.7486
    39.0760  39.0760

          k = 0.4683 0.0000 0.0000 (   310 PWs)   bands (ev):

     9.4485  10.5604  12.9439  12.9674  12.9674  13.1643  29.7469  31.1143
    31.1143  34.6352

          k =-0.0000-0.4683 0.4683 (   309 PWs)   bands (ev):

    10.6337  10.8225  11.6301  12.6179  13.1145  18.7067  21.4457  24.4727
    32.9009  36.4769

     the Fermi energy is    13.2299 ev

!    total energy              =     -87.86839084 Ry
     estimated scf accuracy    <          5.3E-12 Ry
     smearing contrib. (-TS)   =       0.00103722 Ry
     internal energy E=F+TS    =     -87.86942806 Ry

     The total energy is F=E-TS. E is the sum of the following terms:
     one-electron contribution =      -8.84406441 Ry
     hartree contribution      =      18.35560322 Ry
     xc contribution           =     -14.05819642 Ry
     ewald contribution        =     -83.32277045 Ry

     total magnetization       =     0.18 Bohr mag/cell
     absolute magnetization    =     0.21 Bohr mag/cell

     convergence has been achieved in  10 iterations

     Forces acting on atoms (cartesian axes, Ry/au):

     atom    1 type  1   force =     0.00000000    0.00000000    0.00000000
     The non-local contrib.  to forces
     atom    1 type  1   force =    -0.00000000    0.00000000    0.00000000
     The ionic contribution  to forces
     atom    1 type  1   force =    -0.00000000   -0.00000000   -0.00000000
     The local contribution  to forces
     atom    1 type  1   force =    -0.00000000   -0.00000000   -0.00000000
     The core correction contribution to forces
     atom    1 type  1   force =     0.00000000    0.00000000    0.00000000
     The Hubbard contrib.    to forces
     atom    1 type  1   force =     0.00000000    0.00000000    0.00000000
     The SCF correction term to forces
     atom    1 type  1   force =     0.00000000   -0.00000000    0.00000000

     Total force =     0.000000     Total SCF correction =     0.000000


     Computing stress (Cartesian axis) and pressure

          total   stress  (Ry/bohr**3)                   (kbar)     P=       -2.41
  -0.00001640   0.00000000  -0.00000000           -2.41        0.00       -0.00
   0.00000000  -0.00001640   0.00000000            0.00       -2.41        0.00
   0.00000000  -0.00000000  -0.00001640            0.00       -0.00       -2.41

     Energy error            =      1.4E-06 Ry
     Gradient error          =      0.0E+00 Ry/Bohr
     Cell gradient error     =      2.4E+00 kbar

     number of scf cycles    =   4
     number of bfgs steps    =   3

     enthalpy           old  =     -87.8683894574 Ry
     enthalpy           new  =     -87.8683908407 Ry

     CASE: enthalpy          _new < enthalpy          _old

     new trust radius        =       0.0007097207 bohr
     new conv_thr            =       0.0000000010 Ry

     new unit-cell volume =     73.69627 a.u.^3 (    10.92066 Ang^3 )
     density =      9.66248 g/cm^3

CELL_PARAMETERS (angstrom)
  -0.000000000   1.760920028   1.760920028
   1.760920028  -0.000000000   1.760920028
   1.760920028   1.760920028  -0.000000000

ATOMIC_POSITIONS (angstrom)
Cu            0.0000000000        0.0000000000        0.0000000000



     Writing config-only to output data dir /home/gridsan/epan1/labutil/lab3_samples/problem3/Lab3/Cu_a_3.5_ecut_40_nk_3/pwscf.save/
     NEW-OLD atomic charge density approx. for the potential
     extrapolated charge   10.98636, renormalised to   11.00000
     Generating pointlists ...

     total cpu time spent up to now is        2.9 secs

     Self-consistent Calculation

     iteration #  1     ecut=    40.00 Ry     beta= 0.50
     Davidson diagonalization with overlap
     ethr =  1.00E-06,  avg # of iterations =  2.0

     total cpu time spent up to now is        2.9 secs

     total energy              =     -87.86827970 Ry
     estimated scf accuracy    <       0.00010050 Ry

     total magnetization       =     0.19 Bohr mag/cell
     absolute magnetization    =     0.21 Bohr mag/cell

     iteration #  2     ecut=    40.00 Ry     beta= 0.50
     Davidson diagonalization with overlap
     ethr =  9.14E-07,  avg # of iterations =  2.0

     total cpu time spent up to now is        2.9 secs

     total energy              =     -87.86838932 Ry
     estimated scf accuracy    <       0.00014239 Ry

     total magnetization       =     0.18 Bohr mag/cell
     absolute magnetization    =     0.21 Bohr mag/cell

     iteration #  3     ecut=    40.00 Ry     beta= 0.50
     Davidson diagonalization with overlap
     ethr =  9.14E-07,  avg # of iterations =  1.0

     total cpu time spent up to now is        3.0 secs

     total energy              =     -87.86839082 Ry
     estimated scf accuracy    <       0.00002794 Ry

     total magnetization       =     0.18 Bohr mag/cell
     absolute magnetization    =     0.21 Bohr mag/cell

     iteration #  4     ecut=    40.00 Ry     beta= 0.50
     Davidson diagonalization with overlap
     ethr =  2.54E-07,  avg # of iterations =  1.0

     total cpu time spent up to now is        3.0 secs

     total energy              =     -87.86838919 Ry
     estimated scf accuracy    <       0.00000911 Ry

     total magnetization       =     0.18 Bohr mag/cell
     absolute magnetization    =     0.21 Bohr mag/cell

     iteration #  5     ecut=    40.00 Ry     beta= 0.50
     Davidson diagonalization with overlap
     ethr =  8.28E-08,  avg # of iterations =  1.0

     total cpu time spent up to now is        3.0 secs

     total energy              =     -87.86838913 Ry
     estimated scf accuracy    <       0.00000229 Ry

     total magnetization       =     0.18 Bohr mag/cell
     absolute magnetization    =     0.21 Bohr mag/cell

     iteration #  6     ecut=    40.00 Ry     beta= 0.50
     Davidson diagonalization with overlap
     ethr =  2.08E-08,  avg # of iterations =  1.0

     total cpu time spent up to now is        3.1 secs

     total energy              =     -87.86838879 Ry
     estimated scf accuracy    <       0.00000090 Ry

     total magnetization       =     0.18 Bohr mag/cell
     absolute magnetization    =     0.21 Bohr mag/cell

     iteration #  7     ecut=    40.00 Ry     beta= 0.50
     Davidson diagonalization with overlap
     ethr =  8.20E-09,  avg # of iterations =  1.0

     total cpu time spent up to now is        3.1 secs

     total energy              =     -87.86838890 Ry
     estimated scf accuracy    <       0.00000003 Ry

     total magnetization       =     0.18 Bohr mag/cell
     absolute magnetization    =     0.21 Bohr mag/cell

     iteration #  8     ecut=    40.00 Ry     beta= 0.50
     Davidson diagonalization with overlap
     ethr =  2.64E-10,  avg # of iterations =  1.2

     total cpu time spent up to now is        3.1 secs

     total energy              =     -87.86838890 Ry
     estimated scf accuracy    <       0.00000001 Ry

     total magnetization       =     0.18 Bohr mag/cell
     absolute magnetization    =     0.21 Bohr mag/cell

     iteration #  9     ecut=    40.00 Ry     beta= 0.50
     Davidson diagonalization with overlap
     ethr =  1.10E-10,  avg # of iterations =  1.0

     total cpu time spent up to now is        3.1 secs

     total energy              =     -87.86838890 Ry
     estimated scf accuracy    <          1.2E-09 Ry

     total magnetization       =     0.18 Bohr mag/cell
     absolute magnetization    =     0.21 Bohr mag/cell

     iteration # 10     ecut=    40.00 Ry     beta= 0.50
     Davidson diagonalization with overlap
     ethr =  1.14E-11,  avg # of iterations =  1.5

     Magnetic moment per site  (integrated on atomic sphere of radius R)
     atom   1 (R=0.412)  charge=  9.7481  magn=  0.1947

     total cpu time spent up to now is        3.2 secs

     End of self-consistent calculation

 ------ SPIN UP ------------


          k = 0.0000 0.0000 0.0000 (   331 PWs)   bands (ev):

     5.3931  11.5121  11.5121  11.5121  12.4172  12.4172  39.9270  42.2682
    42.2682  42.2682

          k = 0.2342 0.2342-0.2342 (   308 PWs)   bands (ev):

     8.7589  11.5974  11.5974  11.6794  12.7603  12.7603  24.3965  38.8040
    39.0776  39.0776

          k = 0.4685 0.0000 0.0000 (   310 PWs)   bands (ev):

     9.3467  10.3448  12.7049  12.7049  12.8169  12.8766  29.7204  31.1219
    31.1219  34.6093

          k =-0.0000-0.4685 0.4685 (   309 PWs)   bands (ev):

    10.4267  10.6358  11.4214  12.3447  12.8467  18.6314  21.4015  24.4231
    32.9024  36.4758

 ------ SPIN DOWN ----------


          k = 0.0000 0.0000 0.0000 (   331 PWs)   bands (ev):

     5.4022  11.7771  11.7771  11.7771  12.7197  12.7197  39.9032  42.2952
    42.2952  42.2952

          k = 0.2342 0.2342-0.2342 (   308 PWs)   bands (ev):

     8.8285  11.8457  11.8712  11.8712  13.0588  13.0588  24.4763  38.7872
    39.1227  39.1227

          k = 0.4685 0.0000 0.0000 (   310 PWs)   bands (ev):

     9.4660  10.5789  12.9665  12.9905  12.9905  13.1878  29.7841  31.1526
    31.1526  34.6752

          k =-0.0000-0.4685 0.4685 (   309 PWs)   bands (ev):

    10.6524  10.8413  11.6505  12.6402  13.1378  18.7353  21.4760  24.5080
    32.9412  36.5192

     the Fermi energy is    13.2533 ev

!    total energy              =     -87.86838890 Ry
     estimated scf accuracy    <          3.0E-11 Ry
     smearing contrib. (-TS)   =       0.00103745 Ry
     internal energy E=F+TS    =     -87.86942635 Ry

     The total energy is F=E-TS. E is the sum of the following terms:
     one-electron contribution =      -8.79166946 Ry
     hartree contribution      =      18.33839641 Ry
     xc contribution           =     -14.05894717 Ry
     ewald contribution        =     -83.35720613 Ry

     total magnetization       =     0.18 Bohr mag/cell
     absolute magnetization    =     0.21 Bohr mag/cell

     convergence has been achieved in  10 iterations

     Forces acting on atoms (cartesian axes, Ry/au):

     atom    1 type  1   force =     0.00000000    0.00000000    0.00000000
     The non-local contrib.  to forces
     atom    1 type  1   force =     0.00000000   -0.00000000   -0.00000000
     The ionic contribution  to forces
     atom    1 type  1   force =    -0.00000000   -0.00000000   -0.00000000
     The local contribution  to forces
     atom    1 type  1   force =    -0.00000000   -0.00000000   -0.00000000
     The core correction contribution to forces
     atom    1 type  1   force =     0.00000000    0.00000000    0.00000000
     The Hubbard contrib.    to forces
     atom    1 type  1   force =     0.00000000    0.00000000    0.00000000
     The SCF correction term to forces
     atom    1 type  1   force =    -0.00000000   -0.00000000   -0.00000000

     Total force =     0.000000     Total SCF correction =     0.000000


     Computing stress (Cartesian axis) and pressure

          total   stress  (Ry/bohr**3)                   (kbar)     P=       -0.01
  -0.00000009  -0.00000000   0.00000000           -0.01       -0.00        0.00
  -0.00000000  -0.00000009   0.00000000           -0.00       -0.01        0.00
   0.00000000   0.00000000  -0.00000009            0.00        0.00       -0.01

     Energy error            =      1.9E-06 Ry
     Gradient error          =      0.0E+00 Ry/Bohr
     Cell gradient error     =      1.4E-02 kbar

     bfgs converged in   5 scf cycles and   4 bfgs steps
     (criteria: energy <  1.0E-04 Ry, force <  1.0E-03 Ry/Bohr, cell <  5.0E-01 kbar)

     End of BFGS Geometry Optimization

     Final enthalpy           =     -87.8683888980 Ry

     File /home/gridsan/epan1/labutil/lab3_samples/problem3/Lab3/Cu_a_3.5_ecut_40_nk_3/pwscf.bfgs deleted, as requested
Begin final coordinates
     new unit-cell volume =     73.69627 a.u.^3 (    10.92066 Ang^3 )
     density =      9.66248 g/cm^3

CELL_PARAMETERS (angstrom)
  -0.000000000   1.760920028   1.760920028
   1.760920028  -0.000000000   1.760920028
   1.760920028   1.760920028  -0.000000000

ATOMIC_POSITIONS (angstrom)
Cu            0.0000000000        0.0000000000        0.0000000000
End final coordinates



     Writing config-only to output data dir /home/gridsan/epan1/labutil/lab3_samples/problem3/Lab3/Cu_a_3.5_ecut_40_nk_3/pwscf.save/

     Final scf calculation at the relaxed structure.
     The G-vectors are recalculated for the final unit cell
     Results may differ from those at the preceding step.

     Parallelization info
     --------------------
     sticks:   dense  smooth     PW     G-vecs:    dense   smooth      PW
     Min          61      31     10                  889      320      57
     Max          63      32     11                  891      321      58
     Sum         499     253     85                 7119     2565     459

     Using Slab Decomposition



     bravais-lattice index     =            0
     lattice parameter (alat)  =       4.6768  a.u.
     unit-cell volume          =      73.6963 (a.u.)^3
     number of atoms/cell      =            1
     number of atomic types    =            1
     number of electrons       =        11.00
     number of Kohn-Sham states=           10
     kinetic-energy cutoff     =      40.0000  Ry
     charge density cutoff     =     320.0000  Ry
     scf convergence threshold =      1.0E-09
     mixing beta               =       0.5000
     number of iterations used =            8  plain     mixing
     press convergence thresh. =      5.0E-01
     Exchange-correlation=  SLA  PZ   NOGX NOGC
                           (   1   1   0   0   0   0   0)

     celldm(1)=   4.676834  celldm(2)=   0.000000  celldm(3)=   0.000000
     celldm(4)=   0.000000  celldm(5)=   0.000000  celldm(6)=   0.000000

     crystal axes: (cart. coord. in units of alat)
               a(1) = (  -0.000000   0.711519   0.711519 )  
               a(2) = (   0.711519  -0.000000   0.711519 )  
               a(3) = (   0.711519   0.711519  -0.000000 )  

     reciprocal axes: (cart. coord. in units 2 pi/alat)
               b(1) = ( -0.702722  0.702722  0.702722 )  
               b(2) = (  0.702722 -0.702722  0.702722 )  
               b(3) = (  0.702722  0.702722 -0.702722 )  


     PseudoPot. # 1 for Cu read from file:
     /home/gridsan/epan1/labutil/lab3_samples/pseudopotentials/Cu.pz-d-rrkjus.UPF
     MD5 check sum: fd38ae683e239c95a66f426e1f8e5fc7
     Pseudo is Ultrasoft, Zval = 11.0
     Generated by new atomic code, or converted to UPF format
     Using radial grid of  899 points,  3 beta functions with: 
                l(1) =   2
                l(2) =   2
                l(3) =   1
     Q(r) pseudized with 0 coefficients 


     atomic species   valence    mass     pseudopotential
        Cu            11.00    63.54600     Cu( 1.00)

     Starting magnetic structure 
     atomic species   magnetization
        Cu           0.020

     48 Sym. Ops., with inversion, found



   Cartesian axes

     site n.     atom                  positions (alat units)
         1           Cu  tau(   1) = (   0.0000000   0.0000000   0.0000000  )

     number of k points=     4  Methfessel-Paxton smearing, width (Ry)=  0.0200
                       cart. coord. in units 2pi/alat
        k(    1) = (   0.0000000   0.0000000   0.0000000), wk =   0.0370370
        k(    2) = (   0.2342406   0.2342406  -0.2342406), wk =   0.2962963
        k(    3) = (   0.4684812   0.0000000   0.0000000), wk =   0.2222222
        k(    4) = (  -0.0000000  -0.4684812   0.4684812), wk =   0.4444444

     Dense  grid:     7119 G-vectors     FFT dimensions: (  27,  27,  27)

     Smooth grid:     2565 G-vectors     FFT dimensions: (  20,  20,  20)

     Estimated max dynamical RAM per process >       3.50 MB

     Estimated total dynamical RAM >      28.03 MB
     Generating pointlists ...

     Initial potential from superposition of free atoms

     starting charge      10.9997, renormalised to      11.0000
     Starting wfcs are    6 randomized atomic wfcs +    4 random wfcs

     total cpu time spent up to now is        3.4 secs

     Self-consistent Calculation

     iteration #  1     ecut=    40.00 Ry     beta= 0.50
     Davidson diagonalization with overlap
     c_bands:  1 eigenvalues not converged
     c_bands:  2 eigenvalues not converged
     ethr =  1.00E-06,  avg # of iterations = 13.8

     total cpu time spent up to now is        3.5 secs

     total energy              =     -87.79678619 Ry
     estimated scf accuracy    <       0.23374713 Ry

     total magnetization       =     0.18 Bohr mag/cell
     absolute magnetization    =     0.20 Bohr mag/cell

     iteration #  2     ecut=    40.00 Ry     beta= 0.50
     Davidson diagonalization with overlap
     ethr =  2.12E-03,  avg # of iterations =  1.5

     total cpu time spent up to now is        3.5 secs

     total energy              =     -87.85925181 Ry
     estimated scf accuracy    <       0.03739371 Ry

     total magnetization       =     0.08 Bohr mag/cell
     absolute magnetization    =     0.08 Bohr mag/cell

     iteration #  3     ecut=    40.00 Ry     beta= 0.50
     Davidson diagonalization with overlap
     ethr =  3.40E-04,  avg # of iterations =  1.0

     total cpu time spent up to now is        3.5 secs

     total energy              =     -87.86829395 Ry
     estimated scf accuracy    <       0.00113494 Ry

     total magnetization       =     0.22 Bohr mag/cell
     absolute magnetization    =     0.23 Bohr mag/cell

     iteration #  4     ecut=    40.00 Ry     beta= 0.50
     Davidson diagonalization with overlap
     ethr =  1.03E-05,  avg # of iterations =  1.2

     total cpu time spent up to now is        3.6 secs

     total energy              =     -87.86836574 Ry
     estimated scf accuracy    <       0.00031938 Ry

     total magnetization       =     0.21 Bohr mag/cell
     absolute magnetization    =     0.22 Bohr mag/cell

     iteration #  5     ecut=    40.00 Ry     beta= 0.50
     Davidson diagonalization with overlap
     ethr =  2.90E-06,  avg # of iterations =  1.5

     total cpu time spent up to now is        3.6 secs

     total energy              =     -87.86839508 Ry
     estimated scf accuracy    <       0.00003155 Ry

     total magnetization       =     0.17 Bohr mag/cell
     absolute magnetization    =     0.20 Bohr mag/cell

     iteration #  6     ecut=    40.00 Ry     beta= 0.50
     Davidson diagonalization with overlap
     ethr =  2.87E-07,  avg # of iterations =  1.0

     total cpu time spent up to now is        3.6 secs

     total energy              =     -87.86839053 Ry
     estimated scf accuracy    <       0.00000170 Ry

     total magnetization       =     0.18 Bohr mag/cell
     absolute magnetization    =     0.21 Bohr mag/cell

     iteration #  7     ecut=    40.00 Ry     beta= 0.50
     Davidson diagonalization with overlap
     ethr =  1.55E-08,  avg # of iterations =  1.8

     total cpu time spent up to now is        3.7 secs

     total energy              =     -87.86839116 Ry
     estimated scf accuracy    <       0.00000042 Ry

     total magnetization       =     0.19 Bohr mag/cell
     absolute magnetization    =     0.21 Bohr mag/cell

     iteration #  8     ecut=    40.00 Ry     beta= 0.50
     Davidson diagonalization with overlap
     ethr =  3.83E-09,  avg # of iterations =  1.4

     total cpu time spent up to now is        3.7 secs

     total energy              =     -87.86839114 Ry
     estimated scf accuracy    <       0.00000008 Ry

     total magnetization       =     0.18 Bohr mag/cell
     absolute magnetization    =     0.21 Bohr mag/cell

     iteration #  9     ecut=    40.00 Ry     beta= 0.50
     Davidson diagonalization with overlap
     ethr =  7.32E-10,  avg # of iterations =  1.0

     Magnetic moment per site  (integrated on atomic sphere of radius R)
     atom   1 (R=0.412)  charge=  9.7481  magn=  0.1947

     total cpu time spent up to now is        3.7 secs

     End of self-consistent calculation

 ------ SPIN UP ------------


          k = 0.0000 0.0000 0.0000 (   331 PWs)   bands (ev):

     5.3931  11.5121  11.5121  11.5121  12.4172  12.4172  39.9270  42.2682
    42.2682  42.2682

          k = 0.2342 0.2342-0.2342 (   308 PWs)   bands (ev):

     8.7589  11.5973  11.5973  11.6794  12.7602  12.7602  24.3965  38.8040
    39.0776  39.0776

          k = 0.4685 0.0000 0.0000 (   323 PWs)   bands (ev):

     9.3467  10.3447  12.7048  12.7048  12.8169  12.8766  29.7204  31.1219
    31.1219  34.6093

          k =-0.0000-0.4685 0.4685 (   309 PWs)   bands (ev):

    10.4266  10.6357  11.4214  12.3447  12.8466  18.6314  21.4015  24.4231
    32.9024  36.4758

 ------ SPIN DOWN ----------


          k = 0.0000 0.0000 0.0000 (   331 PWs)   bands (ev):

     5.4022  11.7771  11.7771  11.7771  12.7197  12.7197  39.9032  42.2952
    42.2952  42.2952

          k = 0.2342 0.2342-0.2342 (   308 PWs)   bands (ev):

     8.8285  11.8457  11.8711  11.8711  13.0588  13.0588  24.4763  38.7872
    39.1227  39.1227

          k = 0.4685 0.0000 0.0000 (   323 PWs)   bands (ev):

     9.4660  10.5788  12.9665  12.9904  12.9904  13.1878  29.7840  31.1526
    31.1526  34.6752

          k =-0.0000-0.4685 0.4685 (   309 PWs)   bands (ev):

    10.6524  10.8413  11.6505  12.6402  13.1378  18.7353  21.4760  24.5080
    32.9412  36.5192

     the Fermi energy is    13.2532 ev

!    total energy              =     -87.86839112 Ry
     estimated scf accuracy    <          1.5E-10 Ry
     smearing contrib. (-TS)   =       0.00103721 Ry
     internal energy E=F+TS    =     -87.86942834 Ry

     The total energy is F=E-TS. E is the sum of the following terms:
     one-electron contribution =      -8.79167594 Ry
     hartree contribution      =      18.33839915 Ry
     xc contribution           =     -14.05894542 Ry
     ewald contribution        =     -83.35720613 Ry

     total magnetization       =     0.18 Bohr mag/cell
     absolute magnetization    =     0.21 Bohr mag/cell

     convergence has been achieved in   9 iterations

     Forces acting on atoms (cartesian axes, Ry/au):

     atom    1 type  1   force =     0.00000000    0.00000000    0.00000000
     The non-local contrib.  to forces
     atom    1 type  1   force =    -0.00000000   -0.00000000    0.00000000
     The ionic contribution  to forces
     atom    1 type  1   force =    -0.00000000   -0.00000000   -0.00000000
     The local contribution  to forces
     atom    1 type  1   force =    -0.00000000    0.00000000   -0.00000000
     The core correction contribution to forces
     atom    1 type  1   force =     0.00000000    0.00000000    0.00000000
     The Hubbard contrib.    to forces
     atom    1 type  1   force =     0.00000000    0.00000000    0.00000000
     The SCF correction term to forces
     atom    1 type  1   force =    -0.00000000   -0.00000000   -0.00000000

     Total force =     0.000000     Total SCF correction =     0.000000


     Computing stress (Cartesian axis) and pressure

          total   stress  (Ry/bohr**3)                   (kbar)     P=        0.07
   0.00000047  -0.00000000  -0.00000000            0.07       -0.00       -0.00
  -0.00000000   0.00000047  -0.00000000           -0.00        0.07       -0.00
  -0.00000000  -0.00000000   0.00000047           -0.00       -0.00        0.07


     init_run     :      0.36s CPU      0.36s WALL (       2 calls)
     electrons    :      2.72s CPU      2.63s WALL (       6 calls)
     update_pot   :      0.18s CPU      0.15s WALL (       4 calls)
     forces       :      0.14s CPU      0.11s WALL (       6 calls)
     stress       :      0.32s CPU      0.28s WALL (       6 calls)

     Called by init_run:
     wfcinit      :      0.03s CPU      0.03s WALL (       2 calls)
     potinit      :      0.13s CPU      0.14s WALL (       2 calls)
     hinit0       :      0.19s CPU      0.18s WALL (       2 calls)

     Called by electrons:
     c_bands      :      1.67s CPU      1.71s WALL (      80 calls)
     sum_band     :      0.58s CPU      0.51s WALL (      80 calls)
     v_of_rho     :      0.12s CPU      0.10s WALL (      86 calls)
     newd         :      0.19s CPU      0.16s WALL (      86 calls)
     mix_rho      :      0.10s CPU      0.08s WALL (      80 calls)

     Called by c_bands:
     init_us_2    :      0.03s CPU      0.03s WALL (    1392 calls)
     init_us_2:cp :      0.03s CPU      0.03s WALL (    1392 calls)
     cegterg      :      1.40s CPU      1.30s WALL (     640 calls)

     Called by *egterg:
     cdiaghg      :      0.32s CPU      0.30s WALL (    1706 calls)
     h_psi        :      0.84s CPU      0.79s WALL (    1754 calls)
     s_psi        :      0.01s CPU      0.01s WALL (    1754 calls)
     g_psi        :      0.00s CPU      0.00s WALL (    1098 calls)

     Called by h_psi:
     h_psi:calbec :      0.08s CPU      0.07s WALL (    1754 calls)
     vloc_psi     :      0.74s CPU      0.69s WALL (    1754 calls)
     add_vuspsi   :      0.01s CPU      0.01s WALL (    1754 calls)

     General routines
     calbec       :      0.12s CPU      0.11s WALL (    2634 calls)
     fft          :      0.16s CPU      0.14s WALL (     956 calls)
     ffts         :      0.12s CPU      0.12s WALL (     332 calls)
     fftw         :      0.75s CPU      0.70s WALL (   36640 calls)
     interpolate  :      0.14s CPU      0.14s WALL (     172 calls)

     Parallel routines

     PWSCF        :      4.01s CPU      3.88s WALL


   This run was terminated on:  10:52:35   3Nov2023            

=------------------------------------------------------------------------------=
   JOB DONE.
=------------------------------------------------------------------------------=
