Header of the LAMMPS data file 

4 atoms 
1 atom types

0.0 3.9818181818181815  xlo xhi
0.0 3.9818181818181815  ylo yhi
0.0 3.9818181818181815  zlo zhi

Masses 

1  107.8682

Atoms # atomic 

1 1 0.00000 0.00000 0.00000 
2 1 0.00000 1.99091 1.99091 
3 1 1.99091 0.00000 1.99091 
4 1 1.99091 1.99091 0.00000 
