
     Program PWSCF v.7.2 starts on 11Oct2023 at 14: 0:26 

     This program is part of the open-source Quantum ESPRESSO suite
     for quantum simulation of materials; please cite
         "P. Giannozzi et al., J. Phys.:Condens. Matter 21 395502 (2009);
         "P. Giannozzi et al., J. Phys.:Condens. Matter 29 465901 (2017);
         "P. Giannozzi et al., J. Chem. Phys. 152 154105 (2020);
          URL http://www.quantum-espresso.org", 
     in publications or presentations arising from this work. More details at
     http://www.quantum-espresso.org/quote

     Parallel version (MPI), running on     1 processors

     MPI processes distributed on     1 nodes
     41817 MiB available memory on the printing compute node when the environment starts

     Waiting for input...
     Reading input from standard input
Warning: card &CELL ignored
Warning: card / ignored

     Current dimensions of program PWSCF are:
     Max number of different atomic species (ntypx) = 10
     Max number of k-points (npk) =  40000
     Max angular momentum in pseudopotentials (lmaxx) =  4
     file Ge.pz-dn-rrkjus_psl.0.2.2.UPF: wavefunction(s)  3D renormalized
     Message from routine find_sym:
     Not a group! Trying with lower acceptance parameter...
     Message from routine find_sym:
     Still not a group! symmetry disabled

     Subspace diagonalization in iterative solution of the eigenvalue problem:
     a serial algorithm will be used


     G-vector sticks info
     --------------------
     sticks:   dense  smooth     PW     G-vecs:    dense   smooth      PW
     Sum         163     163     55                 1363     1363     283

     Using Slab Decomposition



     bravais-lattice index     =            0
     lattice parameter (alat)  =       7.5660  a.u.
     unit-cell volume          =     306.2604 (a.u.)^3
     number of atoms/cell      =            2
     number of atomic types    =            1
     number of electrons       =        28.00
     number of Kohn-Sham states=           14
     kinetic-energy cutoff     =      10.0000  Ry
     charge density cutoff     =      40.0000  Ry
     scf convergence threshold =      1.0E-07
     mixing beta               =       0.5000
     number of iterations used =            8  plain     mixing
     Exchange-correlation= LDA
                           (   1   1   0   0   0   0   0)

     celldm(1)=   7.566040  celldm(2)=   0.000000  celldm(3)=   0.000000
     celldm(4)=   0.000000  celldm(5)=   0.000000  celldm(6)=   0.000000

     crystal axes: (cart. coord. in units of alat)
               a(1) = (   0.000000   0.707107   0.707107 )  
               a(2) = (   0.707107   0.000000   0.707107 )  
               a(3) = (   0.707107   0.707107   0.000000 )  

     reciprocal axes: (cart. coord. in units 2 pi/alat)
               b(1) = ( -0.707107  0.707107  0.707107 )  
               b(2) = (  0.707107 -0.707107  0.707107 )  
               b(3) = (  0.707107  0.707107 -0.707107 )  


     PseudoPot. # 1 for Ge read from file:
     ../Ge.pz-dn-rrkjus_psl.0.2.2.UPF
     MD5 check sum: 9948ad5293734715c8cf6021b6c26e6d
     Pseudo is Ultrasoft + core correction, Zval = 14.0
     Generated using "atomic" code by A. Dal Corso  v.5.0.2 svn rev. 9415
     Using radial grid of 1207 points,  6 beta functions with: 
                l(1) =   0
                l(2) =   0
                l(3) =   1
                l(4) =   1
                l(5) =   2
                l(6) =   2
     Q(r) pseudized with 0 coefficients 


     atomic species   valence    mass     pseudopotential
        Ge            14.00    72.63000     Ge( 1.00)

     No symmetry found



   Cartesian axes

     site n.     atom                  positions (alat units)
         1           Ge  tau(   1) = (   0.0000000   0.0000000   0.0000000  )
         2           Ge  tau(   2) = (   0.3535538   0.3535538   0.3535538  )

     number of k points=    36
                       cart. coord. in units 2pi/alat
        k(    1) = (   0.0000000   0.0000000   0.0000000), wk =   0.0312500
        k(    2) = (   0.1767767   0.1767767  -0.1767767), wk =   0.0625000
        k(    3) = (  -0.3535534  -0.3535534   0.3535534), wk =   0.0312500
        k(    4) = (   0.3535534   0.0000000   0.0000000), wk =   0.0625000
        k(    5) = (  -0.1767767  -0.5303301   0.5303301), wk =   0.0625000
        k(    6) = (   0.0000000  -0.3535534   0.3535534), wk =   0.0625000
        k(    7) = (  -0.7071068   0.0000000   0.0000000), wk =   0.0312500
        k(    8) = (  -0.7071068   0.3535534   0.0000000), wk =   0.0625000
        k(    9) = (  -0.1767767  -0.1767767  -0.1767767), wk =   0.0625000
        k(   10) = (  -0.1767767   0.1767767   0.1767767), wk =   0.0625000
        k(   11) = (   0.1767767  -0.1767767   0.1767767), wk =   0.0625000
        k(   12) = (   0.3535534   0.3535534   0.3535534), wk =   0.0312500
        k(   13) = (   0.3535534  -0.3535534  -0.3535534), wk =   0.0312500
        k(   14) = (  -0.3535534   0.3535534  -0.3535534), wk =   0.0312500
        k(   15) = (   0.0000000  -0.3535534   0.0000000), wk =   0.0625000
        k(   16) = (   0.0000000   0.0000000  -0.3535534), wk =   0.0625000
        k(   17) = (   0.1767767   0.5303301   0.5303301), wk =   0.0625000
        k(   18) = (   0.1767767  -0.5303301  -0.5303301), wk =   0.0625000
        k(   19) = (  -0.1767767   0.5303301  -0.5303301), wk =   0.0625000
        k(   20) = (   0.5303301   0.1767767  -0.5303301), wk =   0.0625000
        k(   21) = (  -0.5303301   0.5303301   0.1767767), wk =   0.0625000
        k(   22) = (  -0.5303301   0.5303301  -0.1767767), wk =   0.0625000
        k(   23) = (   0.5303301   0.5303301   0.1767767), wk =   0.0625000
        k(   24) = (  -0.5303301  -0.5303301   0.1767767), wk =   0.0625000
        k(   25) = (   0.5303301  -0.1767767  -0.5303301), wk =   0.0625000
        k(   26) = (   0.5303301   0.1767767   0.5303301), wk =   0.0625000
        k(   27) = (  -0.5303301   0.1767767  -0.5303301), wk =   0.0625000
        k(   28) = (   0.0000000   0.3535534   0.3535534), wk =   0.0625000
        k(   29) = (   0.3535534   0.0000000  -0.3535534), wk =   0.0625000
        k(   30) = (  -0.3535534   0.3535534   0.0000000), wk =   0.0625000
        k(   31) = (   0.3535534   0.3535534   0.0000000), wk =   0.0625000
        k(   32) = (   0.3535534   0.0000000   0.3535534), wk =   0.0625000
        k(   33) = (   0.0000000   0.7071068   0.0000000), wk =   0.0312500
        k(   34) = (   0.0000000   0.0000000   0.7071068), wk =   0.0312500
        k(   35) = (  -0.3535534   0.7071068   0.0000000), wk =   0.0625000
        k(   36) = (   0.7071068   0.0000000  -0.3535534), wk =   0.0625000

     Dense  grid:     1363 G-vectors     FFT dimensions: (  16,  16,  16)

     Estimated max dynamical RAM per process >       6.92 MB

     Check: negative core charge=   -0.014372

     Initial potential from superposition of free atoms

     starting charge      27.9988, renormalised to      28.0000

     negative rho (up, down):  2.516E-01 0.000E+00
     Starting wfcs are   18 randomized atomic wfcs

     total cpu time spent up to now is        0.4 secs

     Self-consistent Calculation

     iteration #  1     ecut=    10.00 Ry     beta= 0.50
     Davidson diagonalization with overlap
     ethr =  1.00E-02,  avg # of iterations =  5.2

     total cpu time spent up to now is        1.0 secs

     total energy              =    -301.85419416 Ry
     estimated scf accuracy    <     107.14549871 Ry

     iteration #  2     ecut=    10.00 Ry     beta= 0.50
     Davidson diagonalization with overlap
     ethr =  1.00E-02,  avg # of iterations =  7.5

     negative rho (up, down):  4.852E-02 0.000E+00

     total cpu time spent up to now is        1.7 secs

     total energy              =    -330.67636124 Ry
     estimated scf accuracy    <       5.11323625 Ry

     iteration #  3     ecut=    10.00 Ry     beta= 0.50
     Davidson diagonalization with overlap
     ethr =  1.00E-02,  avg # of iterations =  1.2

     negative rho (up, down):  2.656E-01 0.000E+00

     total cpu time spent up to now is        2.0 secs

     total energy              =    -330.01843869 Ry
     estimated scf accuracy    <       1.05407163 Ry

     iteration #  4     ecut=    10.00 Ry     beta= 0.50
     Davidson diagonalization with overlap
     ethr =  3.76E-03,  avg # of iterations =  2.3

     negative rho (up, down):  2.349E-01 0.000E+00

     total cpu time spent up to now is        2.3 secs

     total energy              =    -330.18624496 Ry
     estimated scf accuracy    <       0.01198511 Ry

     iteration #  5     ecut=    10.00 Ry     beta= 0.50
     Davidson diagonalization with overlap
     ethr =  4.28E-05,  avg # of iterations =  7.5

     negative rho (up, down):  2.366E-01 0.000E+00

     total cpu time spent up to now is        3.0 secs

     total energy              =    -330.30729893 Ry
     estimated scf accuracy    <       0.02546872 Ry

     iteration #  6     ecut=    10.00 Ry     beta= 0.50
     Davidson diagonalization with overlap
     ethr =  4.28E-05,  avg # of iterations =  1.0

     negative rho (up, down):  2.410E-01 0.000E+00

     total cpu time spent up to now is        3.2 secs

     total energy              =    -330.29408698 Ry
     estimated scf accuracy    <       0.01663914 Ry

     iteration #  7     ecut=    10.00 Ry     beta= 0.50
     Davidson diagonalization with overlap
     ethr =  4.28E-05,  avg # of iterations =  2.8

     negative rho (up, down):  2.355E-01 0.000E+00

     total cpu time spent up to now is        3.6 secs

     total energy              =    -330.29881186 Ry
     estimated scf accuracy    <       0.00070131 Ry

     iteration #  8     ecut=    10.00 Ry     beta= 0.50
     Davidson diagonalization with overlap
     ethr =  2.50E-06,  avg # of iterations =  8.4

     negative rho (up, down):  2.355E-01 0.000E+00

     total cpu time spent up to now is        4.1 secs

     total energy              =    -330.32394142 Ry
     estimated scf accuracy    <       0.00384438 Ry

     iteration #  9     ecut=    10.00 Ry     beta= 0.50
     Davidson diagonalization with overlap
     ethr =  2.50E-06,  avg # of iterations =  1.0

     negative rho (up, down):  2.360E-01 0.000E+00

     total cpu time spent up to now is        4.3 secs

     total energy              =    -330.32427974 Ry
     estimated scf accuracy    <       0.00388159 Ry

     iteration # 10     ecut=    10.00 Ry     beta= 0.50
     Davidson diagonalization with overlap
     ethr =  2.50E-06,  avg # of iterations =  1.0

     negative rho (up, down):  2.288E-01 0.000E+00

     total cpu time spent up to now is        4.6 secs

     total energy              =    -330.32117088 Ry
     estimated scf accuracy    <       0.00445179 Ry

     iteration # 11     ecut=    10.00 Ry     beta= 0.50
     Davidson diagonalization with overlap
     ethr =  2.50E-06,  avg # of iterations =  7.5

     negative rho (up, down):  2.276E-01 0.000E+00

     total cpu time spent up to now is        5.2 secs

     total energy              =    -330.32421466 Ry
     estimated scf accuracy    <       0.00271995 Ry

     iteration # 12     ecut=    10.00 Ry     beta= 0.50
     Davidson diagonalization with overlap
     ethr =  2.50E-06,  avg # of iterations =  1.4

     negative rho (up, down):  2.272E-01 0.000E+00

     total cpu time spent up to now is        5.5 secs

     total energy              =    -330.32420674 Ry
     estimated scf accuracy    <       0.00352902 Ry

     iteration # 13     ecut=    10.00 Ry     beta= 0.50
     Davidson diagonalization with overlap
     ethr =  2.50E-06,  avg # of iterations =  1.0

     negative rho (up, down):  2.341E-01 0.000E+00

     total cpu time spent up to now is        5.8 secs

     total energy              =    -330.32202909 Ry
     estimated scf accuracy    <       0.00349032 Ry

     iteration # 14     ecut=    10.00 Ry     beta= 0.50
     Davidson diagonalization with overlap
     ethr =  2.50E-06,  avg # of iterations =  5.4

     negative rho (up, down):  2.356E-01 0.000E+00

     total cpu time spent up to now is        6.3 secs

     total energy              =    -330.32287552 Ry
     estimated scf accuracy    <       0.00052179 Ry

     iteration # 15     ecut=    10.00 Ry     beta= 0.50
     Davidson diagonalization with overlap
     ethr =  1.86E-06,  avg # of iterations =  3.8

     negative rho (up, down):  2.351E-01 0.000E+00

     total cpu time spent up to now is        6.7 secs

     total energy              =    -330.32257859 Ry
     estimated scf accuracy    <       0.00130302 Ry

     iteration # 16     ecut=    10.00 Ry     beta= 0.50
     Davidson diagonalization with overlap
     ethr =  1.86E-06,  avg # of iterations =  2.2

     negative rho (up, down):  2.318E-01 0.000E+00

     total cpu time spent up to now is        7.0 secs

     total energy              =    -330.32453746 Ry
     estimated scf accuracy    <       0.00071257 Ry

     iteration # 17     ecut=    10.00 Ry     beta= 0.50
     Davidson diagonalization with overlap
     c_bands:  1 eigenvalues not converged
     ethr =  1.86E-06,  avg # of iterations =  8.9

     negative rho (up, down):  2.329E-01 0.000E+00

     total cpu time spent up to now is        7.7 secs

     total energy              =    -330.32705511 Ry
     estimated scf accuracy    <       0.01113613 Ry

     iteration # 18     ecut=    10.00 Ry     beta= 0.50
     Davidson diagonalization with overlap
     ethr =  1.86E-06,  avg # of iterations =  2.1

     negative rho (up, down):  2.329E-01 0.000E+00

     total cpu time spent up to now is        8.0 secs

     total energy              =    -330.32290132 Ry
     estimated scf accuracy    <       0.00966556 Ry

     iteration # 19     ecut=    10.00 Ry     beta= 0.50
     Davidson diagonalization with overlap
     ethr =  1.86E-06,  avg # of iterations =  7.0

     negative rho (up, down):  2.330E-01 0.000E+00

     total cpu time spent up to now is        8.6 secs

     total energy              =    -330.32251938 Ry
     estimated scf accuracy    <       0.00251625 Ry

     iteration # 20     ecut=    10.00 Ry     beta= 0.50
     Davidson diagonalization with overlap
     ethr =  1.86E-06,  avg # of iterations =  4.0

     negative rho (up, down):  2.330E-01 0.000E+00

     total cpu time spent up to now is        9.1 secs

     total energy              =    -330.32271913 Ry
     estimated scf accuracy    <       0.00101953 Ry

     iteration # 21     ecut=    10.00 Ry     beta= 0.50
     Davidson diagonalization with overlap
     ethr =  1.86E-06,  avg # of iterations =  1.0

     negative rho (up, down):  2.332E-01 0.000E+00

     total cpu time spent up to now is        9.3 secs

     total energy              =    -330.32254577 Ry
     estimated scf accuracy    <       0.00102046 Ry

     iteration # 22     ecut=    10.00 Ry     beta= 0.50
     Davidson diagonalization with overlap
     ethr =  1.86E-06,  avg # of iterations =  1.3

     negative rho (up, down):  2.336E-01 0.000E+00

     total cpu time spent up to now is        9.6 secs

     total energy              =    -330.32247799 Ry
     estimated scf accuracy    <       0.00071597 Ry

     iteration # 23     ecut=    10.00 Ry     beta= 0.50
     Davidson diagonalization with overlap
     ethr =  1.86E-06,  avg # of iterations =  5.2

     negative rho (up, down):  2.335E-01 0.000E+00

     total cpu time spent up to now is       10.1 secs

     total energy              =    -330.32261423 Ry
     estimated scf accuracy    <       0.00191733 Ry

     iteration # 24     ecut=    10.00 Ry     beta= 0.50
     Davidson diagonalization with overlap
     ethr =  1.86E-06,  avg # of iterations =  1.8

     negative rho (up, down):  2.336E-01 0.000E+00

     total cpu time spent up to now is       10.4 secs

     total energy              =    -330.32232278 Ry
     estimated scf accuracy    <       0.00092267 Ry

     iteration # 25     ecut=    10.00 Ry     beta= 0.50
     Davidson diagonalization with overlap
     ethr =  1.86E-06,  avg # of iterations =  3.6

     negative rho (up, down):  2.336E-01 0.000E+00

     total cpu time spent up to now is       10.7 secs

     total energy              =    -330.32242642 Ry
     estimated scf accuracy    <       0.00025738 Ry

     iteration # 26     ecut=    10.00 Ry     beta= 0.50
     Davidson diagonalization with overlap
     ethr =  9.19E-07,  avg # of iterations =  1.7

     negative rho (up, down):  2.333E-01 0.000E+00

     total cpu time spent up to now is       11.0 secs

     total energy              =    -330.32261890 Ry
     estimated scf accuracy    <       0.00029709 Ry

     iteration # 27     ecut=    10.00 Ry     beta= 0.50
     Davidson diagonalization with overlap
     c_bands:  1 eigenvalues not converged
     ethr =  9.19E-07,  avg # of iterations =  4.7

     negative rho (up, down):  2.333E-01 0.000E+00

     total cpu time spent up to now is       11.4 secs

     total energy              =    -330.32222167 Ry
     estimated scf accuracy    <       0.00128770 Ry

     iteration # 28     ecut=    10.00 Ry     beta= 0.50
     Davidson diagonalization with overlap
     ethr =  9.19E-07,  avg # of iterations =  7.2

     negative rho (up, down):  2.335E-01 0.000E+00

     total cpu time spent up to now is       12.0 secs

     total energy              =    -330.32299208 Ry
     estimated scf accuracy    <       0.00285376 Ry

     iteration # 29     ecut=    10.00 Ry     beta= 0.50
     Davidson diagonalization with overlap
     ethr =  9.19E-07,  avg # of iterations =  1.0

     negative rho (up, down):  2.335E-01 0.000E+00

     total cpu time spent up to now is       12.3 secs

     total energy              =    -330.32294542 Ry
     estimated scf accuracy    <       0.00221300 Ry

     iteration # 30     ecut=    10.00 Ry     beta= 0.50
     Davidson diagonalization with overlap
     ethr =  9.19E-07,  avg # of iterations =  1.3

     negative rho (up, down):  2.334E-01 0.000E+00

     total cpu time spent up to now is       12.6 secs

     total energy              =    -330.32303829 Ry
     estimated scf accuracy    <       0.00210431 Ry

     iteration # 31     ecut=    10.00 Ry     beta= 0.50
     Davidson diagonalization with overlap
     ethr =  9.19E-07,  avg # of iterations =  1.0

     negative rho (up, down):  2.333E-01 0.000E+00

     total cpu time spent up to now is       12.8 secs

     total energy              =    -330.32305123 Ry
     estimated scf accuracy    <       0.00223545 Ry

     iteration # 32     ecut=    10.00 Ry     beta= 0.50
     Davidson diagonalization with overlap
     ethr =  9.19E-07,  avg # of iterations =  1.3

     negative rho (up, down):  2.333E-01 0.000E+00

     total cpu time spent up to now is       13.1 secs

     total energy              =    -330.32312126 Ry
     estimated scf accuracy    <       0.00227381 Ry

     iteration # 33     ecut=    10.00 Ry     beta= 0.50
     Davidson diagonalization with overlap
     ethr =  9.19E-07,  avg # of iterations =  1.0

     negative rho (up, down):  2.333E-01 0.000E+00

     total cpu time spent up to now is       13.4 secs

     total energy              =    -330.32254117 Ry
     estimated scf accuracy    <       0.00237660 Ry

     iteration # 34     ecut=    10.00 Ry     beta= 0.50
     Davidson diagonalization with overlap
     ethr =  9.19E-07,  avg # of iterations =  2.9

     negative rho (up, down):  2.332E-01 0.000E+00

     total cpu time spent up to now is       13.7 secs

     total energy              =    -330.32305049 Ry
     estimated scf accuracy    <       0.00112696 Ry

     iteration # 35     ecut=    10.00 Ry     beta= 0.50
     Davidson diagonalization with overlap
     ethr =  9.19E-07,  avg # of iterations =  2.5

     negative rho (up, down):  2.332E-01 0.000E+00

     total cpu time spent up to now is       14.1 secs

     total energy              =    -330.32284144 Ry
     estimated scf accuracy    <       0.00194208 Ry

     iteration # 36     ecut=    10.00 Ry     beta= 0.50
     Davidson diagonalization with overlap
     ethr =  9.19E-07,  avg # of iterations =  1.0

     negative rho (up, down):  2.337E-01 0.000E+00

     total cpu time spent up to now is       14.3 secs

     total energy              =    -330.32178671 Ry
     estimated scf accuracy    <       0.00158070 Ry

     iteration # 37     ecut=    10.00 Ry     beta= 0.50
     Davidson diagonalization with overlap
     c_bands:  1 eigenvalues not converged
     c_bands:  1 eigenvalues not converged
     c_bands:  1 eigenvalues not converged
     ethr =  9.19E-07,  avg # of iterations = 10.6

     negative rho (up, down):  2.332E-01 0.000E+00

     total cpu time spent up to now is       15.1 secs

     total energy              =    -330.32261221 Ry
     estimated scf accuracy    <       0.00619341 Ry

     iteration # 38     ecut=    10.00 Ry     beta= 0.50
     Davidson diagonalization with overlap
     c_bands:  1 eigenvalues not converged
     c_bands:  1 eigenvalues not converged
     ethr =  9.19E-07,  avg # of iterations =  7.6

     negative rho (up, down):  2.334E-01 0.000E+00

     total cpu time spent up to now is       15.7 secs

     total energy              =    -330.32261884 Ry
     estimated scf accuracy    <       0.00205112 Ry

     iteration # 39     ecut=    10.00 Ry     beta= 0.50
     Davidson diagonalization with overlap
     ethr =  9.19E-07,  avg # of iterations =  2.7

     negative rho (up, down):  2.334E-01 0.000E+00

     total cpu time spent up to now is       16.1 secs

     total energy              =    -330.32246148 Ry
     estimated scf accuracy    <       0.00144599 Ry

     iteration # 40     ecut=    10.00 Ry     beta= 0.50
     Davidson diagonalization with overlap
     ethr =  9.19E-07,  avg # of iterations =  2.1

     negative rho (up, down):  2.334E-01 0.000E+00

     total cpu time spent up to now is       16.4 secs

     total energy              =    -330.32250942 Ry
     estimated scf accuracy    <       0.00086411 Ry

     iteration # 41     ecut=    10.00 Ry     beta= 0.50
     Davidson diagonalization with overlap
     ethr =  9.19E-07,  avg # of iterations =  1.0

     negative rho (up, down):  2.333E-01 0.000E+00

     total cpu time spent up to now is       16.6 secs

     total energy              =    -330.32239412 Ry
     estimated scf accuracy    <       0.00081738 Ry

     iteration # 42     ecut=    10.00 Ry     beta= 0.50
     Davidson diagonalization with overlap
     ethr =  9.19E-07,  avg # of iterations =  1.1

     negative rho (up, down):  2.333E-01 0.000E+00

     total cpu time spent up to now is       16.9 secs

     total energy              =    -330.32216527 Ry
     estimated scf accuracy    <       0.00059912 Ry

     iteration # 43     ecut=    10.00 Ry     beta= 0.50
     Davidson diagonalization with overlap
     c_bands:  2 eigenvalues not converged
     ethr =  9.19E-07,  avg # of iterations =  5.2

     negative rho (up, down):  2.333E-01 0.000E+00

     total cpu time spent up to now is       17.3 secs

     total energy              =    -330.32269307 Ry
     estimated scf accuracy    <       0.00034008 Ry

     iteration # 44     ecut=    10.00 Ry     beta= 0.50
     Davidson diagonalization with overlap
     c_bands:  1 eigenvalues not converged
     ethr =  9.19E-07,  avg # of iterations =  6.3

     negative rho (up, down):  2.333E-01 0.000E+00

     total cpu time spent up to now is       17.8 secs

     total energy              =    -330.32325652 Ry
     estimated scf accuracy    <       0.00173058 Ry

     iteration # 45     ecut=    10.00 Ry     beta= 0.50
     Davidson diagonalization with overlap
     ethr =  9.19E-07,  avg # of iterations =  1.0

     negative rho (up, down):  2.333E-01 0.000E+00

     total cpu time spent up to now is       18.1 secs

     total energy              =    -330.32323562 Ry
     estimated scf accuracy    <       0.00178365 Ry

     iteration # 46     ecut=    10.00 Ry     beta= 0.50
     Davidson diagonalization with overlap
     ethr =  9.19E-07,  avg # of iterations =  1.0

     negative rho (up, down):  2.333E-01 0.000E+00

     total cpu time spent up to now is       18.4 secs

     total energy              =    -330.32305875 Ry
     estimated scf accuracy    <       0.00176015 Ry

     iteration # 47     ecut=    10.00 Ry     beta= 0.50
     Davidson diagonalization with overlap
     ethr =  9.19E-07,  avg # of iterations =  1.0

     negative rho (up, down):  2.334E-01 0.000E+00

     total cpu time spent up to now is       18.6 secs

     total energy              =    -330.32284186 Ry
     estimated scf accuracy    <       0.00146000 Ry

     iteration # 48     ecut=    10.00 Ry     beta= 0.50
     Davidson diagonalization with overlap
     ethr =  9.19E-07,  avg # of iterations =  1.2

     negative rho (up, down):  2.333E-01 0.000E+00

     total cpu time spent up to now is       18.9 secs

     total energy              =    -330.32292652 Ry
     estimated scf accuracy    <       0.00107100 Ry

     iteration # 49     ecut=    10.00 Ry     beta= 0.50
     Davidson diagonalization with overlap
     ethr =  9.19E-07,  avg # of iterations =  2.4

     negative rho (up, down):  2.333E-01 0.000E+00

     total cpu time spent up to now is       19.2 secs

     total energy              =    -330.32293470 Ry
     estimated scf accuracy    <       0.00131865 Ry

     iteration # 50     ecut=    10.00 Ry     beta= 0.50
     Davidson diagonalization with overlap
     ethr =  9.19E-07,  avg # of iterations =  1.0

     negative rho (up, down):  2.333E-01 0.000E+00

     total cpu time spent up to now is       19.4 secs

     total energy              =    -330.32280147 Ry
     estimated scf accuracy    <       0.00126800 Ry

     iteration # 51     ecut=    10.00 Ry     beta= 0.50
     Davidson diagonalization with overlap
     ethr =  9.19E-07,  avg # of iterations =  1.3

     negative rho (up, down):  2.334E-01 0.000E+00

     total cpu time spent up to now is       19.7 secs

     total energy              =    -330.32216012 Ry
     estimated scf accuracy    <       0.00099213 Ry

     iteration # 52     ecut=    10.00 Ry     beta= 0.50
     Davidson diagonalization with overlap
     c_bands:  1 eigenvalues not converged
     ethr =  9.19E-07,  avg # of iterations =  9.7

     negative rho (up, down):  2.334E-01 0.000E+00

     total cpu time spent up to now is       20.5 secs

     total energy              =    -330.32245335 Ry
     estimated scf accuracy    <       0.00400041 Ry

     iteration # 53     ecut=    10.00 Ry     beta= 0.50
     Davidson diagonalization with overlap
     c_bands:  1 eigenvalues not converged
     ethr =  9.19E-07,  avg # of iterations =  9.1

     negative rho (up, down):  2.334E-01 0.000E+00

     total cpu time spent up to now is       21.2 secs

     total energy              =    -330.32328299 Ry
     estimated scf accuracy    <       0.00391248 Ry

     iteration # 54     ecut=    10.00 Ry     beta= 0.50
     Davidson diagonalization with overlap
     ethr =  9.19E-07,  avg # of iterations =  1.1

     negative rho (up, down):  2.334E-01 0.000E+00

     total cpu time spent up to now is       21.4 secs

     total energy              =    -330.32273446 Ry
     estimated scf accuracy    <       0.00333419 Ry

     iteration # 55     ecut=    10.00 Ry     beta= 0.50
     Davidson diagonalization with overlap
     ethr =  9.19E-07,  avg # of iterations =  3.1

     negative rho (up, down):  2.334E-01 0.000E+00

     total cpu time spent up to now is       21.8 secs

     total energy              =    -330.32266253 Ry
     estimated scf accuracy    <       0.00233273 Ry

     iteration # 56     ecut=    10.00 Ry     beta= 0.50
     Davidson diagonalization with overlap
     ethr =  9.19E-07,  avg # of iterations =  1.2

     negative rho (up, down):  2.333E-01 0.000E+00

     total cpu time spent up to now is       22.0 secs

     total energy              =    -330.32220272 Ry
     estimated scf accuracy    <       0.00215855 Ry

     iteration # 57     ecut=    10.00 Ry     beta= 0.50
     Davidson diagonalization with overlap
     ethr =  9.19E-07,  avg # of iterations =  4.9

     negative rho (up, down):  2.333E-01 0.000E+00

     total cpu time spent up to now is       22.5 secs

     total energy              =    -330.32245480 Ry
     estimated scf accuracy    <       0.00070987 Ry

     iteration # 58     ecut=    10.00 Ry     beta= 0.50
     Davidson diagonalization with overlap
     ethr =  9.19E-07,  avg # of iterations =  4.5

     negative rho (up, down):  2.333E-01 0.000E+00

     total cpu time spent up to now is       22.9 secs

     total energy              =    -330.32245254 Ry
     estimated scf accuracy    <       0.00153911 Ry

     iteration # 59     ecut=    10.00 Ry     beta= 0.50
     Davidson diagonalization with overlap
     ethr =  9.19E-07,  avg # of iterations =  5.6

     negative rho (up, down):  2.334E-01 0.000E+00

     total cpu time spent up to now is       23.4 secs

     total energy              =    -330.32269894 Ry
     estimated scf accuracy    <       0.00126262 Ry

     iteration # 60     ecut=    10.00 Ry     beta= 0.50
     Davidson diagonalization with overlap
     ethr =  9.19E-07,  avg # of iterations =  1.7

     negative rho (up, down):  2.333E-01 0.000E+00

     total cpu time spent up to now is       23.7 secs

     total energy              =    -330.32273693 Ry
     estimated scf accuracy    <       0.00112161 Ry

     iteration # 61     ecut=    10.00 Ry     beta= 0.50
     Davidson diagonalization with overlap
     ethr =  9.19E-07,  avg # of iterations =  7.9

     negative rho (up, down):  2.333E-01 0.000E+00

     total cpu time spent up to now is       24.3 secs

     total energy              =    -330.32309427 Ry
     estimated scf accuracy    <       0.00357711 Ry

     iteration # 62     ecut=    10.00 Ry     beta= 0.50
     Davidson diagonalization with overlap
     ethr =  9.19E-07,  avg # of iterations =  2.2

     negative rho (up, down):  2.333E-01 0.000E+00

     total cpu time spent up to now is       24.6 secs

     total energy              =    -330.32267889 Ry
     estimated scf accuracy    <       0.00240733 Ry

     iteration # 63     ecut=    10.00 Ry     beta= 0.50
     Davidson diagonalization with overlap
     ethr =  9.19E-07,  avg # of iterations =  3.9

     negative rho (up, down):  2.333E-01 0.000E+00

     total cpu time spent up to now is       24.9 secs

     total energy              =    -330.32298923 Ry
     estimated scf accuracy    <       0.00155291 Ry

     iteration # 64     ecut=    10.00 Ry     beta= 0.50
     Davidson diagonalization with overlap
     ethr =  9.19E-07,  avg # of iterations =  1.0

     negative rho (up, down):  2.332E-01 0.000E+00

     total cpu time spent up to now is       25.2 secs

     total energy              =    -330.32297569 Ry
     estimated scf accuracy    <       0.00196562 Ry

     iteration # 65     ecut=    10.00 Ry     beta= 0.50
     Davidson diagonalization with overlap
     ethr =  9.19E-07,  avg # of iterations =  1.0

     negative rho (up, down):  2.334E-01 0.000E+00

     total cpu time spent up to now is       25.5 secs

     total energy              =    -330.32207680 Ry
     estimated scf accuracy    <       0.00189932 Ry

     iteration # 66     ecut=    10.00 Ry     beta= 0.50
     Davidson diagonalization with overlap
     c_bands:  1 eigenvalues not converged
     ethr =  9.19E-07,  avg # of iterations =  9.2

     negative rho (up, down):  2.334E-01 0.000E+00

     total cpu time spent up to now is       26.2 secs

     total energy              =    -330.32549635 Ry
     estimated scf accuracy    <       0.00450471 Ry

     iteration # 67     ecut=    10.00 Ry     beta= 0.50
     Davidson diagonalization with overlap
     ethr =  9.19E-07,  avg # of iterations =  7.3

     negative rho (up, down):  2.333E-01 0.000E+00

     total cpu time spent up to now is       26.8 secs

     total energy              =    -330.32313749 Ry
     estimated scf accuracy    <       0.00769876 Ry

     iteration # 68     ecut=    10.00 Ry     beta= 0.50
     Davidson diagonalization with overlap
     ethr =  9.19E-07,  avg # of iterations =  7.7

     negative rho (up, down):  2.333E-01 0.000E+00

     total cpu time spent up to now is       27.4 secs

     total energy              =    -330.32343409 Ry
     estimated scf accuracy    <       0.00416229 Ry

     iteration # 69     ecut=    10.00 Ry     beta= 0.50
     Davidson diagonalization with overlap
     ethr =  9.19E-07,  avg # of iterations =  1.0

     negative rho (up, down):  2.333E-01 0.000E+00

     total cpu time spent up to now is       27.7 secs

     total energy              =    -330.32258290 Ry
     estimated scf accuracy    <       0.00381068 Ry

     iteration # 70     ecut=    10.00 Ry     beta= 0.50
     Davidson diagonalization with overlap
     ethr =  9.19E-07,  avg # of iterations =  4.4

     negative rho (up, down):  2.333E-01 0.000E+00

     total cpu time spent up to now is       28.1 secs

     total energy              =    -330.32249979 Ry
     estimated scf accuracy    <       0.00220724 Ry

     iteration # 71     ecut=    10.00 Ry     beta= 0.50
     Davidson diagonalization with overlap
     ethr =  9.19E-07,  avg # of iterations =  2.1

     negative rho (up, down):  2.333E-01 0.000E+00

     total cpu time spent up to now is       28.4 secs

     total energy              =    -330.32314441 Ry
     estimated scf accuracy    <       0.00155319 Ry

     iteration # 72     ecut=    10.00 Ry     beta= 0.50
     Davidson diagonalization with overlap
     c_bands:  1 eigenvalues not converged
     ethr =  9.19E-07,  avg # of iterations =  5.9

     negative rho (up, down):  2.333E-01 0.000E+00

     total cpu time spent up to now is       28.9 secs

     total energy              =    -330.32320904 Ry
     estimated scf accuracy    <       0.00375996 Ry

     iteration # 73     ecut=    10.00 Ry     beta= 0.50
     Davidson diagonalization with overlap
     ethr =  9.19E-07,  avg # of iterations =  4.2

     negative rho (up, down):  2.333E-01 0.000E+00

     total cpu time spent up to now is       29.3 secs

     total energy              =    -330.32335330 Ry
     estimated scf accuracy    <       0.00339459 Ry

     iteration # 74     ecut=    10.00 Ry     beta= 0.50
     Davidson diagonalization with overlap
     ethr =  9.19E-07,  avg # of iterations =  1.0

     negative rho (up, down):  2.333E-01 0.000E+00

     total cpu time spent up to now is       29.6 secs

     total energy              =    -330.32134531 Ry
     estimated scf accuracy    <       0.00338233 Ry

     iteration # 75     ecut=    10.00 Ry     beta= 0.50
     Davidson diagonalization with overlap
     c_bands:  1 eigenvalues not converged
     c_bands:  1 eigenvalues not converged
     ethr =  9.19E-07,  avg # of iterations = 10.4

     negative rho (up, down):  2.333E-01 0.000E+00

     total cpu time spent up to now is       30.3 secs

     total energy              =    -330.32216274 Ry
     estimated scf accuracy    <       0.00653412 Ry

     iteration # 76     ecut=    10.00 Ry     beta= 0.50
     Davidson diagonalization with overlap
     ethr =  9.19E-07,  avg # of iterations =  6.8

     negative rho (up, down):  2.333E-01 0.000E+00

     total cpu time spent up to now is       30.9 secs

     total energy              =    -330.32254766 Ry
     estimated scf accuracy    <       0.00071842 Ry

     iteration # 77     ecut=    10.00 Ry     beta= 0.50
     Davidson diagonalization with overlap
     ethr =  9.19E-07,  avg # of iterations =  1.4

     negative rho (up, down):  2.333E-01 0.000E+00

     total cpu time spent up to now is       31.2 secs

     total energy              =    -330.32234587 Ry
     estimated scf accuracy    <       0.00057469 Ry

     iteration # 78     ecut=    10.00 Ry     beta= 0.50
     Davidson diagonalization with overlap
     ethr =  9.19E-07,  avg # of iterations =  2.4

     negative rho (up, down):  2.334E-01 0.000E+00

     total cpu time spent up to now is       31.5 secs

     total energy              =    -330.32227343 Ry
     estimated scf accuracy    <       0.00021825 Ry

     iteration # 79     ecut=    10.00 Ry     beta= 0.50
     Davidson diagonalization with overlap
     c_bands:  1 eigenvalues not converged
     ethr =  7.79E-07,  avg # of iterations =  7.7

     negative rho (up, down):  2.334E-01 0.000E+00

     total cpu time spent up to now is       32.1 secs

     total energy              =    -330.32263223 Ry
     estimated scf accuracy    <       0.00296091 Ry

     iteration # 80     ecut=    10.00 Ry     beta= 0.50
     Davidson diagonalization with overlap
     ethr =  7.79E-07,  avg # of iterations =  4.2

     negative rho (up, down):  2.333E-01 0.000E+00

     total cpu time spent up to now is       32.5 secs

     total energy              =    -330.32266680 Ry
     estimated scf accuracy    <       0.00122454 Ry

     iteration # 81     ecut=    10.00 Ry     beta= 0.50
     Davidson diagonalization with overlap
     ethr =  7.79E-07,  avg # of iterations =  1.2

     negative rho (up, down):  2.334E-01 0.000E+00

     total cpu time spent up to now is       32.8 secs

     total energy              =    -330.32293616 Ry
     estimated scf accuracy    <       0.00111267 Ry

     iteration # 82     ecut=    10.00 Ry     beta= 0.50
     Davidson diagonalization with overlap
     c_bands:  2 eigenvalues not converged
     ethr =  7.79E-07,  avg # of iterations =  5.2

     negative rho (up, down):  2.334E-01 0.000E+00

     total cpu time spent up to now is       33.2 secs

     total energy              =    -330.32232022 Ry
     estimated scf accuracy    <       0.00236169 Ry

     iteration # 83     ecut=    10.00 Ry     beta= 0.50
     Davidson diagonalization with overlap
     ethr =  7.79E-07,  avg # of iterations =  5.4

     negative rho (up, down):  2.334E-01 0.000E+00

     total cpu time spent up to now is       33.7 secs

     total energy              =    -330.32266185 Ry
     estimated scf accuracy    <       0.00068577 Ry

     iteration # 84     ecut=    10.00 Ry     beta= 0.50
     Davidson diagonalization with overlap
     ethr =  7.79E-07,  avg # of iterations =  2.4

     negative rho (up, down):  2.334E-01 0.000E+00

     total cpu time spent up to now is       34.0 secs

     total energy              =    -330.32278060 Ry
     estimated scf accuracy    <       0.00133740 Ry

     iteration # 85     ecut=    10.00 Ry     beta= 0.50
     Davidson diagonalization with overlap
     ethr =  7.79E-07,  avg # of iterations =  1.0

     negative rho (up, down):  2.334E-01 0.000E+00

     total cpu time spent up to now is       34.2 secs

     total energy              =    -330.32279218 Ry
     estimated scf accuracy    <       0.00110309 Ry

     iteration # 86     ecut=    10.00 Ry     beta= 0.50
     Davidson diagonalization with overlap
     ethr =  7.79E-07,  avg # of iterations =  1.0

     negative rho (up, down):  2.334E-01 0.000E+00

     total cpu time spent up to now is       34.5 secs

     total energy              =    -330.32292298 Ry
     estimated scf accuracy    <       0.00112171 Ry

     iteration # 87     ecut=    10.00 Ry     beta= 0.50
     Davidson diagonalization with overlap
     ethr =  7.79E-07,  avg # of iterations =  1.3

     negative rho (up, down):  2.335E-01 0.000E+00

     total cpu time spent up to now is       34.8 secs

     total energy              =    -330.32221947 Ry
     estimated scf accuracy    <       0.00147462 Ry

     iteration # 88     ecut=    10.00 Ry     beta= 0.50
     Davidson diagonalization with overlap
     c_bands:  1 eigenvalues not converged
     ethr =  7.79E-07,  avg # of iterations =  6.6

     negative rho (up, down):  2.334E-01 0.000E+00

     total cpu time spent up to now is       35.4 secs

     total energy              =    -330.32256960 Ry
     estimated scf accuracy    <       0.00020890 Ry

     iteration # 89     ecut=    10.00 Ry     beta= 0.50
     Davidson diagonalization with overlap
     ethr =  7.46E-07,  avg # of iterations =  7.6

     negative rho (up, down):  2.334E-01 0.000E+00

     total cpu time spent up to now is       36.0 secs

     total energy              =    -330.32259339 Ry
     estimated scf accuracy    <       0.00181696 Ry

     iteration # 90     ecut=    10.00 Ry     beta= 0.50
     Davidson diagonalization with overlap
     ethr =  7.46E-07,  avg # of iterations =  2.3

     negative rho (up, down):  2.334E-01 0.000E+00

     total cpu time spent up to now is       36.3 secs

     total energy              =    -330.32237296 Ry
     estimated scf accuracy    <       0.00095215 Ry

     iteration # 91     ecut=    10.00 Ry     beta= 0.50
     Davidson diagonalization with overlap
     ethr =  7.46E-07,  avg # of iterations =  4.6

     negative rho (up, down):  2.334E-01 0.000E+00

     total cpu time spent up to now is       36.7 secs

     total energy              =    -330.32252396 Ry
     estimated scf accuracy    <       0.00055058 Ry

     iteration # 92     ecut=    10.00 Ry     beta= 0.50
     Davidson diagonalization with overlap
     ethr =  7.46E-07,  avg # of iterations =  1.0

     negative rho (up, down):  2.334E-01 0.000E+00

     total cpu time spent up to now is       37.0 secs

     total energy              =    -330.32249924 Ry
     estimated scf accuracy    <       0.00045792 Ry

     iteration # 93     ecut=    10.00 Ry     beta= 0.50
     Davidson diagonalization with overlap
     ethr =  7.46E-07,  avg # of iterations =  1.0

     negative rho (up, down):  2.334E-01 0.000E+00

     total cpu time spent up to now is       37.2 secs

     total energy              =    -330.32242751 Ry
     estimated scf accuracy    <       0.00041518 Ry

     iteration # 94     ecut=    10.00 Ry     beta= 0.50
     Davidson diagonalization with overlap
     ethr =  7.46E-07,  avg # of iterations =  1.1

     negative rho (up, down):  2.334E-01 0.000E+00

     total cpu time spent up to now is       37.5 secs

     total energy              =    -330.32236634 Ry
     estimated scf accuracy    <       0.00028717 Ry

     iteration # 95     ecut=    10.00 Ry     beta= 0.50
     Davidson diagonalization with overlap
     ethr =  7.46E-07,  avg # of iterations =  1.9

     negative rho (up, down):  2.334E-01 0.000E+00

     total cpu time spent up to now is       37.8 secs

     total energy              =    -330.32246684 Ry
     estimated scf accuracy    <       0.00031889 Ry

     iteration # 96     ecut=    10.00 Ry     beta= 0.50
     Davidson diagonalization with overlap
     ethr =  7.46E-07,  avg # of iterations =  1.0

     negative rho (up, down):  2.334E-01 0.000E+00

     total cpu time spent up to now is       38.1 secs

     total energy              =    -330.32248801 Ry
     estimated scf accuracy    <       0.00030269 Ry

     iteration # 97     ecut=    10.00 Ry     beta= 0.50
     Davidson diagonalization with overlap
     ethr =  7.46E-07,  avg # of iterations =  1.0

     negative rho (up, down):  2.333E-01 0.000E+00

     total cpu time spent up to now is       38.3 secs

     total energy              =    -330.32255025 Ry
     estimated scf accuracy    <       0.00034070 Ry

     iteration # 98     ecut=    10.00 Ry     beta= 0.50
     Davidson diagonalization with overlap
     ethr =  7.46E-07,  avg # of iterations =  1.2

     negative rho (up, down):  2.333E-01 0.000E+00

     total cpu time spent up to now is       38.6 secs

     total energy              =    -330.32260709 Ry
     estimated scf accuracy    <       0.00045710 Ry

     iteration # 99     ecut=    10.00 Ry     beta= 0.50
     Davidson diagonalization with overlap
     ethr =  7.46E-07,  avg # of iterations =  1.6

     negative rho (up, down):  2.334E-01 0.000E+00

     total cpu time spent up to now is       38.9 secs

     total energy              =    -330.32221081 Ry
     estimated scf accuracy    <       0.00071128 Ry

     iteration #100     ecut=    10.00 Ry     beta= 0.50
     Davidson diagonalization with overlap
     c_bands:  2 eigenvalues not converged
     ethr =  7.46E-07,  avg # of iterations =  7.4

     negative rho (up, down):  2.334E-01 0.000E+00

     total cpu time spent up to now is       39.4 secs

     total energy              =    -330.32283468 Ry
     estimated scf accuracy    <       0.00234824 Ry

     End of self-consistent calculation

     convergence NOT achieved after 100 iterations: stopping

     Writing config to output data dir /home/gridsan/epan1/labutil/lab2_samples/problem5/Lab2/Problem1/5.6621939/pwscf.save/

     init_run     :      0.39s CPU      0.32s WALL (       1 calls)
     electrons    :     54.91s CPU     39.01s WALL (       1 calls)

     Called by init_run:
     wfcinit      :      0.22s CPU      0.15s WALL (       1 calls)
     potinit      :      0.00s CPU      0.00s WALL (       1 calls)
     hinit0       :      0.16s CPU      0.16s WALL (       1 calls)

     Called by electrons:
     c_bands      :     47.77s CPU     33.93s WALL (     100 calls)
     sum_band     :      6.21s CPU      4.45s WALL (     100 calls)
     v_of_rho     :      0.12s CPU      0.08s WALL (     101 calls)
     newd         :      0.65s CPU      0.45s WALL (     101 calls)
     mix_rho      :      0.12s CPU      0.07s WALL (     100 calls)

     Called by c_bands:
     init_us_2    :      1.80s CPU      1.28s WALL (    7236 calls)
     init_us_2:cp :      1.74s CPU      1.25s WALL (    7236 calls)
     cegterg      :     43.15s CPU     30.61s WALL (    3600 calls)

     Called by *egterg:
     cdiaghg      :     13.76s CPU      9.81s WALL (   16340 calls)
     h_psi        :     23.74s CPU     16.81s WALL (   16376 calls)
     s_psi        :      1.01s CPU      0.71s WALL (   16376 calls)
     g_psi        :      0.31s CPU      0.22s WALL (   12740 calls)

     Called by h_psi:
     h_psi:calbec :      1.04s CPU      0.74s WALL (   16376 calls)
     vloc_psi     :     21.07s CPU     14.93s WALL (   16376 calls)
     add_vuspsi   :      1.14s CPU      0.80s WALL (   16376 calls)

     General routines
     calbec       :      1.14s CPU      0.81s WALL (   19976 calls)
     fft          :      0.07s CPU      0.05s WALL (     405 calls)
     ffts         :      0.01s CPU      0.01s WALL (     100 calls)
     fftw         :     18.45s CPU     13.14s WALL (  318264 calls)
     davcio       :      0.00s CPU      0.00s WALL (      54 calls)

     Parallel routines

     PWSCF        :     55.44s CPU     39.47s WALL


   This run was terminated on:  14: 1: 5  11Oct2023            

=------------------------------------------------------------------------------=
   JOB DONE.
=------------------------------------------------------------------------------=
