
     Program PWSCF v.7.2 starts on  2Nov2023 at 17:55:17 

     This program is part of the open-source Quantum ESPRESSO suite
     for quantum simulation of materials; please cite
         "P. Giannozzi et al., J. Phys.:Condens. Matter 21 395502 (2009);
         "P. Giannozzi et al., J. Phys.:Condens. Matter 29 465901 (2017);
         "P. Giannozzi et al., J. Chem. Phys. 152 154105 (2020);
          URL http://www.quantum-espresso.org", 
     in publications or presentations arising from this work. More details at
     http://www.quantum-espresso.org/quote

     Parallel version (MPI), running on     2 processors

     MPI processes distributed on     2 nodes
     187056 MiB available memory on the printing compute node when the environment starts

     Waiting for input...
     Reading input from standard input
Warning: card &CELL ignored
Warning: card / ignored

     Current dimensions of program PWSCF are:
     Max number of different atomic species (ntypx) = 10
     Max number of k-points (npk) =  40000
     Max angular momentum in pseudopotentials (lmaxx) =  4
     file O.pz-rrkjus.UPF: wavefunction(s)  2S renormalized
     Message from routine setup:
     using ibrav=0 with symmetry is DISCOURAGED, use correct ibrav instead

     R & G space division:  proc/nbgrp/npool/nimage =       2
     Subspace diagonalization in iterative solution of the eigenvalue problem:
     a serial algorithm will be used


     Parallelization info
     --------------------
     sticks:   dense  smooth     PW     G-vecs:    dense   smooth      PW
     Min         516     254     74                12418     4366     709
     Max         517     255     75                12419     4367     710
     Sum        1033     509    149                24837     8733    1419

     Using Slab Decomposition



     bravais-lattice index     =            0
     lattice parameter (alat)  =       7.3321  a.u.
     unit-cell volume          =     394.1775 (a.u.)^3
     number of atoms/cell      =            5
     number of atomic types    =            3
     number of electrons       =        44.00
     number of Kohn-Sham states=           22
     kinetic-energy cutoff     =      30.0000  Ry
     charge density cutoff     =     240.0000  Ry
     scf convergence threshold =      1.0E-07
     mixing beta               =       0.7000
     number of iterations used =            8  plain     mixing
     energy convergence thresh.=      1.0E-04
     force convergence thresh. =      1.0E-03
     Exchange-correlation= SLA  PZ   NOGX NOGC
                           (   1   1   0   0   0   0   0)
     nstep                     =           50


     celldm(1)=   7.332137  celldm(2)=   0.000000  celldm(3)=   0.000000
     celldm(4)=   0.000000  celldm(5)=   0.000000  celldm(6)=   0.000000

     crystal axes: (cart. coord. in units of alat)
               a(1) = (   1.000000   0.000000   0.000000 )  
               a(2) = (   0.000000   1.000000   0.000000 )  
               a(3) = (   0.000000   0.000000   1.000000 )  

     reciprocal axes: (cart. coord. in units 2 pi/alat)
               b(1) = (  1.000000  0.000000  0.000000 )  
               b(2) = (  0.000000  1.000000  0.000000 )  
               b(3) = (  0.000000  0.000000  1.000000 )  


     PseudoPot. # 1 for O  read from file:
     /home/gridsan/epan1/labutil/lab3_samples/pseudopotentials/O.pz-rrkjus.UPF
     MD5 check sum: 24fb942a68ef5d262e498166c462ef4a
     Pseudo is Ultrasoft, Zval =  6.0
     Generated by new atomic code, or converted to UPF format
     Using radial grid of 1269 points,  4 beta functions with: 
                l(1) =   0
                l(2) =   0
                l(3) =   1
                l(4) =   1
     Q(r) pseudized with 0 coefficients 


     PseudoPot. # 2 for Pb read from file:
     /home/gridsan/epan1/labutil/lab3_samples/pseudopotentials/Pb.pz-d-van.UPF
     MD5 check sum: 4e1e5920686a026ae26139ac417581ff
     Pseudo is Ultrasoft, Zval = 14.0
     Generated by new atomic code, or converted to UPF format
     Using radial grid of  899 points,  6 beta functions with: 
                l(1) =   0
                l(2) =   0
                l(3) =   1
                l(4) =   1
                l(5) =   2
                l(6) =   2
     Q(r) pseudized with  8 coefficients,  rinner =    1.000   1.000   1.000
                                                       1.000   1.000

     PseudoPot. # 3 for Ti read from file:
     /home/gridsan/epan1/labutil/lab3_samples/pseudopotentials/Ti.pz-sp-van_ak.UPF
     MD5 check sum: 545d0e6e05332b8871a8093f427cb0ca
     Pseudo is Ultrasoft, Zval = 12.0
     Generated by new atomic code, or converted to UPF format
     Using radial grid of  851 points,  6 beta functions with: 
                l(1) =   0
                l(2) =   0
                l(3) =   1
                l(4) =   1
                l(5) =   2
                l(6) =   2
     Q(r) pseudized with  8 coefficients,  rinner =    1.000   1.000   1.000
                                                       1.000   1.000

     atomic species   valence    mass     pseudopotential
        O              6.00    15.99900     O ( 1.00)
        Pb            14.00   207.20000     Pb( 1.00)
        Ti            12.00    47.86700     Ti( 1.00)

      8 Sym. Ops. (no inversion) found



   Cartesian axes

     site n.     atom                  positions (alat units)
         1           Pb  tau(   1) = (   0.0000000   0.0000000   0.0000000  )
         2           Ti  tau(   2) = (   0.5000000   0.5000000   0.4000000  )
         3           O   tau(   3) = (   0.0000000   0.5000000   0.5000000  )
         4           O   tau(   4) = (   0.5000000   0.0000000   0.5000000  )
         5           O   tau(   5) = (   0.5000000   0.5000000   0.0000000  )

     number of k points=     6
                       cart. coord. in units 2pi/alat
        k(    1) = (   0.1250000   0.1250000   0.1250000), wk =   0.2500000
        k(    2) = (   0.1250000   0.1250000   0.3750000), wk =   0.2500000
        k(    3) = (   0.1250000   0.3750000   0.3750000), wk =   0.5000000
        k(    4) = (   0.3750000   0.3750000   0.3750000), wk =   0.2500000
        k(    5) = (   0.3750000  -0.1250000   0.1250000), wk =   0.5000000
        k(    6) = (   0.3750000  -0.3750000   0.1250000), wk =   0.2500000

     Dense  grid:    24837 G-vectors     FFT dimensions: (  40,  40,  40)

     Smooth grid:     8733 G-vectors     FFT dimensions: (  25,  25,  25)

     Estimated max dynamical RAM per process >      51.66 MB

     Estimated total dynamical RAM >     103.32 MB

     Initial potential from superposition of free atoms

     starting charge      42.9982, renormalised to      44.0000
     Starting wfcs are   31 randomized atomic wfcs

     total cpu time spent up to now is        1.0 secs

     Self-consistent Calculation

     iteration #  1     ecut=    30.00 Ry     beta= 0.70
     Davidson diagonalization with overlap
     ethr =  1.00E-02,  avg # of iterations =  2.0

     total cpu time spent up to now is        1.3 secs

     total energy              =    -332.59462267 Ry
     estimated scf accuracy    <       1.05215302 Ry

     iteration #  2     ecut=    30.00 Ry     beta= 0.70
     Davidson diagonalization with overlap
     ethr =  2.39E-03,  avg # of iterations =  6.2

     total cpu time spent up to now is        1.7 secs

     total energy              =    -332.55829315 Ry
     estimated scf accuracy    <       2.41984241 Ry

     iteration #  3     ecut=    30.00 Ry     beta= 0.70
     Davidson diagonalization with overlap
     ethr =  2.39E-03,  avg # of iterations =  4.8

     total cpu time spent up to now is        2.0 secs

     total energy              =    -333.07652968 Ry
     estimated scf accuracy    <       0.18539800 Ry

     iteration #  4     ecut=    30.00 Ry     beta= 0.70
     Davidson diagonalization with overlap
     ethr =  4.21E-04,  avg # of iterations =  2.7

     total cpu time spent up to now is        2.3 secs

     total energy              =    -333.07626133 Ry
     estimated scf accuracy    <       0.03905344 Ry

     iteration #  5     ecut=    30.00 Ry     beta= 0.70
     Davidson diagonalization with overlap
     ethr =  8.88E-05,  avg # of iterations =  5.0

     total cpu time spent up to now is        2.7 secs

     total energy              =    -333.10236849 Ry
     estimated scf accuracy    <       0.04639996 Ry

     iteration #  6     ecut=    30.00 Ry     beta= 0.70
     Davidson diagonalization with overlap
     ethr =  8.88E-05,  avg # of iterations =  1.0

     total cpu time spent up to now is        2.9 secs

     total energy              =    -333.09487831 Ry
     estimated scf accuracy    <       0.02745766 Ry

     iteration #  7     ecut=    30.00 Ry     beta= 0.70
     Davidson diagonalization with overlap
     ethr =  6.24E-05,  avg # of iterations =  3.0

     total cpu time spent up to now is        3.2 secs

     total energy              =    -333.09950146 Ry
     estimated scf accuracy    <       0.00088542 Ry

     iteration #  8     ecut=    30.00 Ry     beta= 0.70
     Davidson diagonalization with overlap
     ethr =  2.01E-06,  avg # of iterations =  5.7

     total cpu time spent up to now is        3.6 secs

     total energy              =    -333.10034072 Ry
     estimated scf accuracy    <       0.00069248 Ry

     iteration #  9     ecut=    30.00 Ry     beta= 0.70
     Davidson diagonalization with overlap
     ethr =  1.57E-06,  avg # of iterations =  1.0

     total cpu time spent up to now is        3.8 secs

     total energy              =    -333.10023100 Ry
     estimated scf accuracy    <       0.00040576 Ry

     iteration # 10     ecut=    30.00 Ry     beta= 0.70
     Davidson diagonalization with overlap
     ethr =  9.22E-07,  avg # of iterations =  2.7

     total cpu time spent up to now is        4.1 secs

     total energy              =    -333.10027524 Ry
     estimated scf accuracy    <       0.00003413 Ry

     iteration # 11     ecut=    30.00 Ry     beta= 0.70
     Davidson diagonalization with overlap
     ethr =  7.76E-08,  avg # of iterations =  5.2

     total cpu time spent up to now is        4.4 secs

     total energy              =    -333.10029255 Ry
     estimated scf accuracy    <       0.00000989 Ry

     iteration # 12     ecut=    30.00 Ry     beta= 0.70
     Davidson diagonalization with overlap
     ethr =  2.25E-08,  avg # of iterations =  4.2

     total cpu time spent up to now is        4.7 secs

     total energy              =    -333.10029358 Ry
     estimated scf accuracy    <       0.00000057 Ry

     iteration # 13     ecut=    30.00 Ry     beta= 0.70
     Davidson diagonalization with overlap
     ethr =  1.30E-09,  avg # of iterations =  5.8

     total cpu time spent up to now is        5.1 secs

     total energy              =    -333.10029395 Ry
     estimated scf accuracy    <       0.00000115 Ry

     iteration # 14     ecut=    30.00 Ry     beta= 0.70
     Davidson diagonalization with overlap
     ethr =  1.30E-09,  avg # of iterations =  4.0

     total cpu time spent up to now is        5.5 secs

     End of self-consistent calculation

          k = 0.1250 0.1250 0.1250 (  1096 PWs)   bands (ev):

   -44.1096 -21.4946 -20.6307 -20.6298  -6.3337  -5.2689  -5.0537  -4.2342
    -4.1639  -4.1513  -3.9666  -3.9048   4.3630   6.8410   7.3186   7.8633
     8.2740   8.3441   9.2379   9.6669  10.0708  10.3357

          k = 0.1250 0.1250 0.3750 (  1095 PWs)   bands (ev):

   -44.1082 -21.5505 -20.6279 -20.6269  -5.7541  -5.2683  -4.8834  -4.2638
    -4.2308  -4.1336  -4.0117  -3.9526   3.4614   6.3844   6.5953   7.4813
     8.2596   8.5974   9.5863   9.5867  10.4543  11.0530

          k = 0.1250 0.3750 0.3750 (  1093 PWs)   bands (ev):

   -44.1069 -21.5467 -20.6818 -20.6256  -5.5648  -5.2066  -4.8399  -4.2440
    -4.2107  -4.1056  -3.9962  -3.7534   3.2445   6.1619   6.7677   7.3027
     7.8084   8.5858   9.0134   9.5105   9.8585  10.6241

          k = 0.3750 0.3750 0.3750 (  1082 PWs)   bands (ev):

   -44.1056 -21.5437 -20.6793 -20.6790  -5.4956  -5.1398  -5.0562  -4.1657
    -4.1023  -3.9069  -3.6957  -3.6423   3.9052   5.4553   5.9415   6.5673
     7.5098   7.8376   7.8392  10.1103  10.1802  10.9619

          k = 0.3750-0.1250 0.1250 (  1095 PWs)   bands (ev):

   -44.1082 -21.4916 -20.6858 -20.6281  -6.0146  -5.0761  -4.9539  -4.2501
    -4.2001  -4.1531  -4.0588  -3.9156   3.6408   7.0257   7.1488   7.5887
     8.2797   8.6404   9.1545   9.4974   9.7082  10.7786

          k = 0.3750-0.3750 0.1250 (  1093 PWs)   bands (ev):

   -44.1070 -21.4896 -20.6829 -20.6821  -5.9510  -4.8845  -4.8092  -4.1839
    -4.1778  -4.0723  -3.9782  -3.9546   3.4437   6.4060   6.5596   7.0504
     7.7396   8.7231   9.4401   9.6349  10.0312  10.9315

     highest occupied level (ev):    11.0530

!    total energy              =    -333.10029416 Ry
     estimated scf accuracy    <          3.4E-09 Ry

     The total energy is the sum of the following terms:
     one-electron contribution =     -81.45602686 Ry
     hartree contribution      =      68.74160239 Ry
     xc contribution           =     -49.81073212 Ry
     ewald contribution        =    -270.57513757 Ry

     convergence has been achieved in  14 iterations

     Forces acting on atoms (cartesian axes, Ry/au):

     atom    1 type  2   force =     0.00000000    0.00000000   -0.04349743
     atom    2 type  3   force =     0.00000000    0.00000000    0.39517540
     atom    3 type  1   force =     0.00000000    0.00000000   -0.01983759
     atom    4 type  1   force =     0.00000000    0.00000000   -0.01983759
     atom    5 type  1   force =     0.00000000    0.00000000   -0.31200280
     The non-local contrib.  to forces
     atom    1 type  2   force =     0.00000000    0.00000000    0.02088776
     atom    2 type  3   force =     0.00000000    0.00000000   -0.22075934
     atom    3 type  1   force =     0.00000000    0.00000000   -0.30410408
     atom    4 type  1   force =     0.00000000    0.00000000   -0.30410408
     atom    5 type  1   force =     0.00000000    0.00000000    0.64009777
     The ionic contribution  to forces
     atom    1 type  2   force =     0.00000000    0.00000000   -2.46446453
     atom    2 type  3   force =    -0.00000000   -0.00000000    7.06207997
     atom    3 type  1   force =     0.00000000   -0.00000000    2.65193316
     atom    4 type  1   force =    -0.00000000    0.00000000    2.65193316
     atom    5 type  1   force =    -0.00000000   -0.00000000   -9.90148176
     The local contribution  to forces
     atom    1 type  2   force =     0.00000000    0.00000000    2.40011650
     atom    2 type  3   force =    -0.00000000   -0.00000000   -6.44616160
     atom    3 type  1   force =     0.00000000   -0.00000000   -2.36771312
     atom    4 type  1   force =    -0.00000000    0.00000000   -2.36771312
     atom    5 type  1   force =    -0.00000000   -0.00000000    8.94944312
     The core correction contribution to forces
     atom    1 type  2   force =     0.00000000    0.00000000    0.00000000
     atom    2 type  3   force =     0.00000000    0.00000000    0.00000000
     atom    3 type  1   force =     0.00000000    0.00000000    0.00000000
     atom    4 type  1   force =     0.00000000    0.00000000    0.00000000
     atom    5 type  1   force =     0.00000000    0.00000000    0.00000000
     The Hubbard contrib.    to forces
     atom    1 type  2   force =     0.00000000    0.00000000    0.00000000
     atom    2 type  3   force =     0.00000000    0.00000000    0.00000000
     atom    3 type  1   force =     0.00000000    0.00000000    0.00000000
     atom    4 type  1   force =     0.00000000    0.00000000    0.00000000
     atom    5 type  1   force =     0.00000000    0.00000000    0.00000000
     The SCF correction term to forces
     atom    1 type  2   force =     0.00000000   -0.00000000   -0.00000000
     atom    2 type  3   force =    -0.00000000   -0.00000000    0.00000000
     atom    3 type  1   force =     0.00000000    0.00000000    0.00003171
     atom    4 type  1   force =    -0.00000000   -0.00000000    0.00003171
     atom    5 type  1   force =    -0.00000000    0.00000000   -0.00007667

     Total force =     0.313262     Total SCF correction =     0.000089


     Computing stress (Cartesian axis) and pressure

          total   stress  (Ry/bohr**3)                   (kbar)     P=      109.36
   0.00002971   0.00000000   0.00000000            4.37        0.00        0.00
   0.00000000   0.00002971   0.00000000            0.00        4.37        0.00
   0.00000000   0.00000000   0.00217083            0.00        0.00      319.34


     BFGS Geometry Optimization
     Energy error            =      0.0E+00 Ry
     Gradient error          =      3.1E-01 Ry/Bohr

     number of scf cycles    =   1
     number of bfgs steps    =   0

     energy             new  =    -333.1002941630 Ry

     new trust radius        =       0.3120028021 bohr
     new conv_thr            =       0.0000001000 Ry


ATOMIC_POSITIONS (angstrom)
Pb            0.0000000000        0.0000000000        0.0000000000    0   0   0
Ti            1.9400000000        1.9400000000        1.5520000000    0   0   0
O             0.0000000000        1.9400000000        1.9295024012
O             1.9400000000        0.0000000000        1.9295024012
O             1.9400000000        1.9400000000       -0.1651047726



     Writing config-only to output data dir /home/gridsan/epan1/labutil/lab3_samples/problem2/Lab3/PbTiO3_a_3.88_ecut_30_nk_4_displ_-0.1/pwscf.save/
     NEW-OLD atomic charge density approx. for the potential

     total cpu time spent up to now is        6.6 secs

     Self-consistent Calculation

     iteration #  1     ecut=    30.00 Ry     beta= 0.70
     Davidson diagonalization with overlap
     ethr =  1.00E-06,  avg # of iterations = 11.5

     total cpu time spent up to now is        7.2 secs

     total energy              =    -333.12844606 Ry
     estimated scf accuracy    <       0.04051566 Ry

     iteration #  2     ecut=    30.00 Ry     beta= 0.70
     Davidson diagonalization with overlap
     ethr =  9.21E-05,  avg # of iterations =  6.0

     total cpu time spent up to now is        7.5 secs

     total energy              =    -333.11846900 Ry
     estimated scf accuracy    <       0.16528915 Ry

     iteration #  3     ecut=    30.00 Ry     beta= 0.70
     Davidson diagonalization with overlap
     ethr =  9.21E-05,  avg # of iterations =  5.0

     total cpu time spent up to now is        7.9 secs

     total energy              =    -333.14722817 Ry
     estimated scf accuracy    <       0.00255720 Ry

     iteration #  4     ecut=    30.00 Ry     beta= 0.70
     Davidson diagonalization with overlap
     ethr =  5.81E-06,  avg # of iterations =  3.5

     total cpu time spent up to now is        8.2 secs

     total energy              =    -333.14754521 Ry
     estimated scf accuracy    <       0.00074063 Ry

     iteration #  5     ecut=    30.00 Ry     beta= 0.70
     Davidson diagonalization with overlap
     ethr =  1.68E-06,  avg # of iterations =  3.7

     total cpu time spent up to now is        8.5 secs

     total energy              =    -333.14766363 Ry
     estimated scf accuracy    <       0.00007322 Ry

     iteration #  6     ecut=    30.00 Ry     beta= 0.70
     Davidson diagonalization with overlap
     ethr =  1.66E-07,  avg # of iterations =  4.5

     total cpu time spent up to now is        8.8 secs

     total energy              =    -333.14769452 Ry
     estimated scf accuracy    <       0.00000416 Ry

     iteration #  7     ecut=    30.00 Ry     beta= 0.70
     Davidson diagonalization with overlap
     ethr =  9.46E-09,  avg # of iterations =  3.8

     total cpu time spent up to now is        9.2 secs

     total energy              =    -333.14769503 Ry
     estimated scf accuracy    <       0.00000255 Ry

     iteration #  8     ecut=    30.00 Ry     beta= 0.70
     Davidson diagonalization with overlap
     ethr =  5.80E-09,  avg # of iterations =  2.7

     total cpu time spent up to now is        9.4 secs

     total energy              =    -333.14769499 Ry
     estimated scf accuracy    <       0.00000073 Ry

     iteration #  9     ecut=    30.00 Ry     beta= 0.70
     Davidson diagonalization with overlap
     ethr =  1.66E-09,  avg # of iterations =  4.5

     total cpu time spent up to now is        9.8 secs

     End of self-consistent calculation

          k = 0.1250 0.1250 0.1250 (  1096 PWs)   bands (ev):

   -44.5159 -21.3241 -21.0986 -21.0978  -6.4058  -5.2824  -5.1236  -4.1273
    -4.0859  -4.0758  -3.8992  -3.8640   4.4755   7.1353   7.2574   7.9802
     8.6460   8.8629   9.3921   9.6373  10.1594  10.2079

          k = 0.1250 0.1250 0.3750 (  1095 PWs)   bands (ev):

   -44.5146 -21.3826 -21.0961 -21.0952  -5.8690  -5.2368  -4.9757  -4.1693
    -4.1235  -4.0637  -3.9664  -3.8833   3.6737   6.6856   6.8028   7.5670
     8.5327   8.6496   9.5316   9.6415  10.3282  11.0457

          k = 0.1250 0.3750 0.3750 (  1093 PWs)   bands (ev):

   -44.5134 -21.3790 -21.1472 -21.0940  -5.6594  -5.1661  -4.9270  -4.1456
    -4.1066  -4.0349  -3.9356  -3.7229   3.4129   6.4313   6.9468   7.2006
     7.7241   8.7316   9.2433   9.6482   9.9487  10.6131

          k = 0.3750 0.3750 0.3750 (  1082 PWs)   bands (ev):

   -44.5120 -21.3762 -21.1448 -21.1445  -5.4763  -5.1862  -5.1177  -4.0636
    -4.0261  -3.8047  -3.6705  -3.6298   4.0396   5.8037   6.0061   6.5040
     7.4748   7.6416   8.0351  10.3972  10.4730  10.8526

          k = 0.3750-0.1250 0.1250 (  1095 PWs)   bands (ev):

   -44.5147 -21.3215 -21.1508 -21.0961  -6.0561  -5.1245  -5.0339  -4.1576
    -4.1080  -4.0762  -3.9879  -3.8646   3.7758   7.0432   7.4056   7.7431
     8.3710   8.8254   9.2542   9.6556   9.8153  10.8116

          k = 0.3750-0.3750 0.1250 (  1093 PWs)   bands (ev):

   -44.5134 -21.3195 -21.1481 -21.1473  -5.9392  -4.9724  -4.8980  -4.1103
    -4.0872  -4.0106  -3.9278  -3.8581   3.4862   6.8364   6.9034   7.1675
     7.6473   8.7147   9.5878   9.6087   9.9903  10.8392

     highest occupied level (ev):    11.0457

!    total energy              =    -333.14769521 Ry
     estimated scf accuracy    <       0.00000009 Ry

     The total energy is the sum of the following terms:
     one-electron contribution =     -77.22687828 Ry
     hartree contribution      =      66.53108335 Ry
     xc contribution           =     -49.65179812 Ry
     ewald contribution        =    -272.80010215 Ry

     convergence has been achieved in   9 iterations

     Forces acting on atoms (cartesian axes, Ry/au):

     atom    1 type  2   force =     0.00000000    0.00000000   -0.04496384
     atom    2 type  3   force =     0.00000000    0.00000000    0.14064093
     atom    3 type  1   force =     0.00000000    0.00000000   -0.03722999
     atom    4 type  1   force =     0.00000000    0.00000000   -0.03722999
     atom    5 type  1   force =     0.00000000    0.00000000   -0.02121713
     The non-local contrib.  to forces
     atom    1 type  2   force =     0.00000000    0.00000000    0.02760208
     atom    2 type  3   force =     0.00000000    0.00000000   -0.08160043
     atom    3 type  1   force =     0.00000000    0.00000000   -0.35758970
     atom    4 type  1   force =     0.00000000    0.00000000   -0.35758970
     atom    5 type  1   force =     0.00000000    0.00000000    0.54229989
     The ionic contribution  to forces
     atom    1 type  2   force =     0.00000000    0.00000000   -2.02076770
     atom    2 type  3   force =    -0.00000000   -0.00000000    2.68345214
     atom    3 type  1   force =     0.00000000   -0.00000000    2.21324955
     atom    4 type  1   force =    -0.00000000    0.00000000    2.21324955
     atom    5 type  1   force =    -0.00000000   -0.00000000   -5.08918354
     The local contribution  to forces
     atom    1 type  2   force =     0.00000000   -0.00000000    1.94804470
     atom    2 type  3   force =    -0.00000000   -0.00000000   -2.46108019
     atom    3 type  1   force =     0.00000000   -0.00000000   -1.89271143
     atom    4 type  1   force =    -0.00000000    0.00000000   -1.89271143
     atom    5 type  1   force =    -0.00000000   -0.00000000    4.52542011
     The core correction contribution to forces
     atom    1 type  2   force =     0.00000000    0.00000000    0.00000000
     atom    2 type  3   force =     0.00000000    0.00000000    0.00000000
     atom    3 type  1   force =     0.00000000    0.00000000    0.00000000
     atom    4 type  1   force =     0.00000000    0.00000000    0.00000000
     atom    5 type  1   force =     0.00000000    0.00000000    0.00000000
     The Hubbard contrib.    to forces
     atom    1 type  2   force =     0.00000000    0.00000000    0.00000000
     atom    2 type  3   force =     0.00000000    0.00000000    0.00000000
     atom    3 type  1   force =     0.00000000    0.00000000    0.00000000
     atom    4 type  1   force =     0.00000000    0.00000000    0.00000000
     atom    5 type  1   force =     0.00000000    0.00000000    0.00000000
     The SCF correction term to forces
     atom    1 type  2   force =     0.00000000   -0.00000000    0.00000000
     atom    2 type  3   force =    -0.00000000   -0.00000000   -0.00000000
     atom    3 type  1   force =    -0.00000000    0.00000000   -0.00015095
     atom    4 type  1   force =    -0.00000000    0.00000000   -0.00015095
     atom    5 type  1   force =     0.00000000    0.00000000    0.00027387

     Total force =     0.056765     Total SCF correction =     0.000347


     Computing stress (Cartesian axis) and pressure

          total   stress  (Ry/bohr**3)                   (kbar)     P=       -1.21
  -0.00014973   0.00000000   0.00000000          -22.03        0.00        0.00
   0.00000000  -0.00014973   0.00000000            0.00      -22.03        0.00
   0.00000000   0.00000000   0.00027471            0.00        0.00       40.41

     Energy error            =      4.7E-02 Ry
     Gradient error          =      3.7E-02 Ry/Bohr

     number of scf cycles    =   2
     number of bfgs steps    =   1

     energy             old  =    -333.1002941630 Ry
     energy             new  =    -333.1476952134 Ry

     CASE: energy            _new < energy            _old

     new trust radius        =       0.0411914554 bohr
     new conv_thr            =       0.0000000372 Ry


ATOMIC_POSITIONS (angstrom)
Pb            0.0000000000        0.0000000000        0.0000000000    0   0   0
Ti            1.9400000000        1.9400000000        1.5520000000    0   0   0
O             0.0000000000        1.9400000000        1.9077048217
O             1.9400000000        0.0000000000        1.9077048217
O             1.9400000000        1.9400000000       -0.1824471820



     Writing config-only to output data dir /home/gridsan/epan1/labutil/lab3_samples/problem2/Lab3/PbTiO3_a_3.88_ecut_30_nk_4_displ_-0.1/pwscf.save/
     NEW-OLD atomic charge density approx. for the potential

     total cpu time spent up to now is       10.9 secs

     Self-consistent Calculation

     iteration #  1     ecut=    30.00 Ry     beta= 0.70
     Davidson diagonalization with overlap
     ethr =  1.00E-06,  avg # of iterations =  8.5

     total cpu time spent up to now is       11.3 secs

     total energy              =    -333.15104991 Ry
     estimated scf accuracy    <       0.00045412 Ry

     iteration #  2     ecut=    30.00 Ry     beta= 0.70
     Davidson diagonalization with overlap
     ethr =  1.03E-06,  avg # of iterations =  5.2

     total cpu time spent up to now is       11.7 secs

     total energy              =    -333.15100199 Ry
     estimated scf accuracy    <       0.00057103 Ry

     iteration #  3     ecut=    30.00 Ry     beta= 0.70
     Davidson diagonalization with overlap
     ethr =  1.03E-06,  avg # of iterations =  4.2

     total cpu time spent up to now is       12.0 secs

     total energy              =    -333.15115077 Ry
     estimated scf accuracy    <       0.00011905 Ry

     iteration #  4     ecut=    30.00 Ry     beta= 0.70
     Davidson diagonalization with overlap
     ethr =  2.71E-07,  avg # of iterations =  3.0

     total cpu time spent up to now is       12.3 secs

     total energy              =    -333.15115679 Ry
     estimated scf accuracy    <       0.00001939 Ry

     iteration #  5     ecut=    30.00 Ry     beta= 0.70
     Davidson diagonalization with overlap
     ethr =  4.41E-08,  avg # of iterations =  4.5

     total cpu time spent up to now is       12.6 secs

     total energy              =    -333.15116570 Ry
     estimated scf accuracy    <       0.00000377 Ry

     iteration #  6     ecut=    30.00 Ry     beta= 0.70
     Davidson diagonalization with overlap
     ethr =  8.56E-09,  avg # of iterations =  1.7

     total cpu time spent up to now is       12.9 secs

     total energy              =    -333.15116525 Ry
     estimated scf accuracy    <       0.00000188 Ry

     iteration #  7     ecut=    30.00 Ry     beta= 0.70
     Davidson diagonalization with overlap
     ethr =  4.27E-09,  avg # of iterations =  3.3

     total cpu time spent up to now is       13.2 secs

     End of self-consistent calculation

          k = 0.1250 0.1250 0.1250 (  1096 PWs)   bands (ev):

   -44.5508 -21.3238 -21.1385 -21.1377  -6.4028  -5.2921  -5.1511  -4.1174
    -4.0794  -4.0698  -3.8949  -3.8621   4.4856   7.1529   7.2497   7.9883
     8.6885   8.9164   9.4148   9.6519  10.1596  10.1777

          k = 0.1250 0.1250 0.3750 (  1095 PWs)   bands (ev):

   -44.5495 -21.3821 -21.1360 -21.1351  -5.8817  -5.2323  -5.0085  -4.1596
    -4.1135  -4.0580  -3.9626  -3.8774   3.6992   6.6991   6.8576   7.5834
     8.5425   8.6185   9.5122   9.6670  10.2963  11.0260

          k = 0.1250 0.3750 0.3750 (  1093 PWs)   bands (ev):

   -44.5483 -21.3785 -21.1876 -21.1338  -5.6725  -5.1571  -4.9446  -4.1364
    -4.0969  -4.0284  -3.9295  -3.7226   3.4240   6.4640   6.9733   7.1532
     7.6754   8.7291   9.2550   9.6242   9.9759  10.6084

          k = 0.3750 0.3750 0.3750 (  1082 PWs)   bands (ev):

   -44.5470 -21.3758 -21.1851 -21.1849  -5.4597  -5.1955  -5.1315  -4.0542
    -4.0198  -3.7927  -3.6685  -3.6289   4.0397   5.8204   5.9859   6.5199
     7.4292   7.5640   8.0397  10.4281  10.5033  10.8241

          k = 0.3750-0.1250 0.1250 (  1095 PWs)   bands (ev):

   -44.5496 -21.3212 -21.1911 -21.1359  -6.0456  -5.1420  -5.0545  -4.1497
    -4.0997  -4.0699  -3.9785  -3.8598   3.7843   7.0114   7.4056   7.7427
     8.3677   8.8354   9.2398   9.6929   9.8296  10.8090

          k = 0.3750-0.3750 0.1250 (  1093 PWs)   bands (ev):

   -44.5483 -21.3192 -21.1884 -21.1876  -5.9190  -4.9910  -4.9170  -4.1043
    -4.0787  -4.0036  -3.9212  -3.8471   3.4802   6.8284   6.9200   7.1720
     7.6032   8.7022   9.5692   9.6011   9.9809  10.8143

     highest occupied level (ev):    11.0260

!    total energy              =    -333.15116565 Ry
     estimated scf accuracy    <          8.6E-09 Ry

     The total energy is the sum of the following terms:
     one-electron contribution =     -77.26815072 Ry
     hartree contribution      =      66.54101831 Ry
     xc contribution           =     -49.64681820 Ry
     ewald contribution        =    -272.77721504 Ry

     convergence has been achieved in   7 iterations

     Forces acting on atoms (cartesian axes, Ry/au):

     atom    1 type  2   force =     0.00000000    0.00000000   -0.04318982
     atom    2 type  3   force =     0.00000000    0.00000000    0.12219796
     atom    3 type  1   force =     0.00000000    0.00000000   -0.03600590
     atom    4 type  1   force =     0.00000000    0.00000000   -0.03600590
     atom    5 type  1   force =     0.00000000    0.00000000   -0.00699635
     The non-local contrib.  to forces
     atom    1 type  2   force =     0.00000000    0.00000000    0.04404930
     atom    2 type  3   force =     0.00000000    0.00000000   -0.07223493
     atom    3 type  1   force =     0.00000000    0.00000000   -0.35304646
     atom    4 type  1   force =     0.00000000    0.00000000   -0.35304646
     atom    5 type  1   force =     0.00000000    0.00000000    0.51568278
     The ionic contribution  to forces
     atom    1 type  2   force =     0.00000000    0.00000000   -2.26003250
     atom    2 type  3   force =    -0.00000000   -0.00000000    2.49618675
     atom    3 type  1   force =     0.00000000   -0.00000000    2.24981902
     atom    4 type  1   force =    -0.00000000    0.00000000    2.24981902
     atom    5 type  1   force =    -0.00000000   -0.00000000   -4.73579228
     The local contribution  to forces
     atom    1 type  2   force =     0.00000000   -0.00000000    2.17283078
     atom    2 type  3   force =    -0.00000000   -0.00000000   -2.30166397
     atom    3 type  1   force =     0.00000000   -0.00000000   -1.93274404
     atom    4 type  1   force =    -0.00000000   -0.00000000   -1.93274404
     atom    5 type  1   force =    -0.00000000   -0.00000000    4.21311609
     The core correction contribution to forces
     atom    1 type  2   force =     0.00000000    0.00000000    0.00000000
     atom    2 type  3   force =     0.00000000    0.00000000    0.00000000
     atom    3 type  1   force =     0.00000000    0.00000000    0.00000000
     atom    4 type  1   force =     0.00000000    0.00000000    0.00000000
     atom    5 type  1   force =     0.00000000    0.00000000    0.00000000
     The Hubbard contrib.    to forces
     atom    1 type  2   force =     0.00000000    0.00000000    0.00000000
     atom    2 type  3   force =     0.00000000    0.00000000    0.00000000
     atom    3 type  1   force =     0.00000000    0.00000000    0.00000000
     atom    4 type  1   force =     0.00000000    0.00000000    0.00000000
     atom    5 type  1   force =     0.00000000    0.00000000    0.00000000
     The SCF correction term to forces
     atom    1 type  2   force =     0.00000000   -0.00000000   -0.00000000
     atom    2 type  3   force =     0.00000000   -0.00000000   -0.00000000
     atom    3 type  1   force =     0.00000000    0.00000000   -0.00002783
     atom    4 type  1   force =    -0.00000000    0.00000000   -0.00002783
     atom    5 type  1   force =     0.00000000    0.00000000    0.00000364

     Total force =     0.051398     Total SCF correction =     0.000040


     Computing stress (Cartesian axis) and pressure

          total   stress  (Ry/bohr**3)                   (kbar)     P=       -4.51
  -0.00013740   0.00000000   0.00000000          -20.21        0.00        0.00
   0.00000000  -0.00013740   0.00000000            0.00      -20.21        0.00
   0.00000000   0.00000000   0.00018280            0.00        0.00       26.89

     Energy error            =      3.5E-03 Ry
     Gradient error          =      3.6E-02 Ry/Bohr

     number of scf cycles    =   3
     number of bfgs steps    =   2

     energy             old  =    -333.1476952134 Ry
     energy             new  =    -333.1511656521 Ry

     CASE: energy            _new < energy            _old


     WARNING: bfgs curvature condition failed, Theta= 0.942
     new trust radius        =       0.0453106009 bohr
     new conv_thr            =       0.0000000347 Ry


ATOMIC_POSITIONS (angstrom)
Pb            0.0000000000        0.0000000000        0.0000000000    0   0   0
Ti            1.9400000000        1.9400000000        1.5520000000    0   0   0
O             0.0000000000        1.9400000000        1.8837274843
O             1.9400000000        0.0000000000        1.8837274843
O             1.9400000000        1.9400000000       -0.1952037214



     Writing config-only to output data dir /home/gridsan/epan1/labutil/lab3_samples/problem2/Lab3/PbTiO3_a_3.88_ecut_30_nk_4_displ_-0.1/pwscf.save/
     NEW-OLD atomic charge density approx. for the potential

     total cpu time spent up to now is       14.3 secs

     Self-consistent Calculation

     iteration #  1     ecut=    30.00 Ry     beta= 0.70
     Davidson diagonalization with overlap
     ethr =  1.00E-06,  avg # of iterations =  8.3

     total cpu time spent up to now is       14.7 secs

     total energy              =    -333.15431336 Ry
     estimated scf accuracy    <       0.00041458 Ry

     iteration #  2     ecut=    30.00 Ry     beta= 0.70
     Davidson diagonalization with overlap
     ethr =  9.42E-07,  avg # of iterations =  4.0

     total cpu time spent up to now is       15.1 secs

     total energy              =    -333.15430815 Ry
     estimated scf accuracy    <       0.00032766 Ry

     iteration #  3     ecut=    30.00 Ry     beta= 0.70
     Davidson diagonalization with overlap
     ethr =  7.45E-07,  avg # of iterations =  4.0

     total cpu time spent up to now is       15.4 secs

     total energy              =    -333.15439012 Ry
     estimated scf accuracy    <       0.00013981 Ry

     iteration #  4     ecut=    30.00 Ry     beta= 0.70
     Davidson diagonalization with overlap
     ethr =  3.18E-07,  avg # of iterations =  3.3

     total cpu time spent up to now is       15.7 secs

     total energy              =    -333.15440121 Ry
     estimated scf accuracy    <       0.00001600 Ry

     iteration #  5     ecut=    30.00 Ry     beta= 0.70
     Davidson diagonalization with overlap
     ethr =  3.64E-08,  avg # of iterations =  4.8

     total cpu time spent up to now is       16.1 secs

     total energy              =    -333.15441281 Ry
     estimated scf accuracy    <       0.00001656 Ry

     iteration #  6     ecut=    30.00 Ry     beta= 0.70
     Davidson diagonalization with overlap
     ethr =  3.64E-08,  avg # of iterations =  1.0

     total cpu time spent up to now is       16.3 secs

     total energy              =    -333.15441070 Ry
     estimated scf accuracy    <       0.00000949 Ry

     iteration #  7     ecut=    30.00 Ry     beta= 0.70
     Davidson diagonalization with overlap
     ethr =  2.16E-08,  avg # of iterations =  2.5

     total cpu time spent up to now is       16.6 secs

     total energy              =    -333.15441220 Ry
     estimated scf accuracy    <       0.00000049 Ry

     iteration #  8     ecut=    30.00 Ry     beta= 0.70
     Davidson diagonalization with overlap
     ethr =  1.11E-09,  avg # of iterations =  4.8

     total cpu time spent up to now is       16.9 secs

     total energy              =    -333.15441245 Ry
     estimated scf accuracy    <       0.00000004 Ry

     iteration #  9     ecut=    30.00 Ry     beta= 0.70
     Davidson diagonalization with overlap
     ethr =  1.00E-10,  avg # of iterations =  4.8

     total cpu time spent up to now is       17.3 secs

     total energy              =    -333.15441244 Ry
     estimated scf accuracy    <       0.00000014 Ry

     iteration # 10     ecut=    30.00 Ry     beta= 0.70
     Davidson diagonalization with overlap
     ethr =  1.00E-10,  avg # of iterations =  4.2

     total cpu time spent up to now is       17.6 secs

     End of self-consistent calculation

          k = 0.1250 0.1250 0.1250 (  1096 PWs)   bands (ev):

   -44.5756 -21.3247 -21.1676 -21.1668  -6.4009  -5.3039  -5.1808  -4.1087
    -4.0736  -4.0644  -3.8916  -3.8589   4.4944   7.1676   7.2455   7.9985
     8.7176   8.9488   9.4378   9.6672  10.1466  10.1524

          k = 0.1250 0.1250 0.3750 (  1095 PWs)   bands (ev):

   -44.5743 -21.3829 -21.1652 -21.1642  -5.8954  -5.2303  -5.0435  -4.1503
    -4.1046  -4.0528  -3.9576  -3.8723   3.7219   6.7115   6.9089   7.6027
     8.5417   8.5786   9.4890   9.6911  10.2633  11.0036

          k = 0.1250 0.3750 0.3750 (  1093 PWs)   bands (ev):

   -44.5730 -21.3794 -21.2174 -21.1630  -5.6870  -5.1511  -4.9632  -4.1282
    -4.0885  -4.0223  -3.9234  -3.7213   3.4318   6.4928   6.9955   7.1068
     7.6257   8.7232   9.2561   9.5960   9.9964  10.6023

          k = 0.3750 0.3750 0.3750 (  1082 PWs)   bands (ev):

   -44.5717 -21.3767 -21.2149 -21.2147  -5.4454  -5.2059  -5.1464  -4.0460
    -4.0140  -3.7822  -3.6659  -3.6267   4.0345   5.8293   5.9623   6.5377
     7.3782   7.4854   8.0441  10.4495  10.5244  10.7944

          k = 0.3750-0.1250 0.1250 (  1095 PWs)   bands (ev):

   -44.5743 -21.3222 -21.2209 -21.1651  -6.0367  -5.1622  -5.0758  -4.1428
    -4.0922  -4.0642  -3.9685  -3.8545   3.7896   6.9775   7.3985   7.7435
     8.3626   8.8303   9.2266   9.7194   9.8410  10.8042

          k = 0.3750-0.3750 0.1250 (  1093 PWs)   bands (ev):

   -44.5731 -21.3202 -21.2181 -21.2174  -5.9007  -5.0112  -4.9377  -4.0989
    -4.0707  -3.9956  -3.9132  -3.8373   3.4710   6.8161   6.9229   7.1670
     7.5569   8.6895   9.5497   9.5844   9.9749  10.7880

     highest occupied level (ev):    11.0036

!    total energy              =    -333.15441243 Ry
     estimated scf accuracy    <       0.00000001 Ry

     The total energy is the sum of the following terms:
     one-electron contribution =     -77.44596681 Ry
     hartree contribution      =      66.62059313 Ry
     xc contribution           =     -49.64656232 Ry
     ewald contribution        =    -272.68247643 Ry

     convergence has been achieved in  10 iterations

     Forces acting on atoms (cartesian axes, Ry/au):

     atom    1 type  2   force =     0.00000000    0.00000000   -0.04105474
     atom    2 type  3   force =     0.00000000    0.00000000    0.10881511
     atom    3 type  1   force =     0.00000000    0.00000000   -0.03393323
     atom    4 type  1   force =     0.00000000    0.00000000   -0.03393323
     atom    5 type  1   force =     0.00000000    0.00000000    0.00010608
     The non-local contrib.  to forces
     atom    1 type  2   force =     0.00000000    0.00000000    0.06234957
     atom    2 type  3   force =     0.00000000    0.00000000   -0.06531940
     atom    3 type  1   force =     0.00000000    0.00000000   -0.34528545
     atom    4 type  1   force =     0.00000000    0.00000000   -0.34528545
     atom    5 type  1   force =     0.00000000    0.00000000    0.49048069
     The ionic contribution  to forces
     atom    1 type  2   force =     0.00000000    0.00000000   -2.54495405
     atom    2 type  3   force =    -0.00000000   -0.00000000    2.46243914
     atom    3 type  1   force =     0.00000000   -0.00000000    2.30343100
     atom    4 type  1   force =    -0.00000000    0.00000000    2.30343100
     atom    5 type  1   force =    -0.00000000   -0.00000000   -4.52434709
     The local contribution  to forces
     atom    1 type  2   force =    -0.00000000   -0.00000000    2.44148907
     atom    2 type  3   force =    -0.00000000   -0.00000000   -2.28824556
     atom    3 type  1   force =     0.00000000   -0.00000000   -1.99203173
     atom    4 type  1   force =    -0.00000000    0.00000000   -1.99203173
     atom    5 type  1   force =    -0.00000000   -0.00000000    4.03388115
     The core correction contribution to forces
     atom    1 type  2   force =     0.00000000    0.00000000    0.00000000
     atom    2 type  3   force =     0.00000000    0.00000000    0.00000000
     atom    3 type  1   force =     0.00000000    0.00000000    0.00000000
     atom    4 type  1   force =     0.00000000    0.00000000    0.00000000
     atom    5 type  1   force =     0.00000000    0.00000000    0.00000000
     The Hubbard contrib.    to forces
     atom    1 type  2   force =     0.00000000    0.00000000    0.00000000
     atom    2 type  3   force =     0.00000000    0.00000000    0.00000000
     atom    3 type  1   force =     0.00000000    0.00000000    0.00000000
     atom    4 type  1   force =     0.00000000    0.00000000    0.00000000
     atom    5 type  1   force =     0.00000000    0.00000000    0.00000000
     The SCF correction term to forces
     atom    1 type  2   force =     0.00000000   -0.00000000    0.00000000
     atom    2 type  3   force =    -0.00000000    0.00000000   -0.00000000
     atom    3 type  1   force =    -0.00000000    0.00000000   -0.00004985
     atom    4 type  1   force =     0.00000000   -0.00000000   -0.00004985
     atom    5 type  1   force =    -0.00000000   -0.00000000    0.00008855

     Total force =     0.047989     Total SCF correction =     0.000113


     Computing stress (Cartesian axis) and pressure

          total   stress  (Ry/bohr**3)                   (kbar)     P=       -5.63
  -0.00012292   0.00000000   0.00000000          -18.08        0.00        0.00
   0.00000000  -0.00012292   0.00000000            0.00      -18.08        0.00
   0.00000000   0.00000000   0.00013093            0.00        0.00       19.26

     Energy error            =      3.2E-03 Ry
     Gradient error          =      3.4E-02 Ry/Bohr

     number of scf cycles    =   4
     number of bfgs steps    =   3

     energy             old  =    -333.1511656521 Ry
     energy             new  =    -333.1544124328 Ry

     CASE: energy            _new < energy            _old

     new trust radius        =       0.0679659014 bohr
     new conv_thr            =       0.0000000325 Ry


ATOMIC_POSITIONS (angstrom)
Pb            0.0000000000        0.0000000000        0.0000000000    0   0   0
Ti            1.9400000000        1.9400000000        1.5520000000    0   0   0
O             0.0000000000        1.9400000000        1.8477614781
O             1.9400000000        0.0000000000        1.8477614781
O             1.9400000000        1.9400000000       -0.2099483444



     Writing config-only to output data dir /home/gridsan/epan1/labutil/lab3_samples/problem2/Lab3/PbTiO3_a_3.88_ecut_30_nk_4_displ_-0.1/pwscf.save/
     NEW-OLD atomic charge density approx. for the potential

     total cpu time spent up to now is       19.0 secs

     Self-consistent Calculation

     iteration #  1     ecut=    30.00 Ry     beta= 0.70
     Davidson diagonalization with overlap
     ethr =  1.00E-06,  avg # of iterations =  9.0

     total cpu time spent up to now is       19.5 secs

     total energy              =    -333.15852890 Ry
     estimated scf accuracy    <       0.00081437 Ry

     iteration #  2     ecut=    30.00 Ry     beta= 0.70
     Davidson diagonalization with overlap
     ethr =  1.85E-06,  avg # of iterations =  4.0

     total cpu time spent up to now is       19.8 secs

     total energy              =    -333.15859910 Ry
     estimated scf accuracy    <       0.00027120 Ry

     iteration #  3     ecut=    30.00 Ry     beta= 0.70
     Davidson diagonalization with overlap
     ethr =  6.16E-07,  avg # of iterations =  4.3

     total cpu time spent up to now is       20.2 secs

     total energy              =    -333.15865819 Ry
     estimated scf accuracy    <       0.00020962 Ry

     iteration #  4     ecut=    30.00 Ry     beta= 0.70
     Davidson diagonalization with overlap
     ethr =  4.76E-07,  avg # of iterations =  4.0

     total cpu time spent up to now is       20.5 secs

     total energy              =    -333.15869535 Ry
     estimated scf accuracy    <       0.00000191 Ry

     iteration #  5     ecut=    30.00 Ry     beta= 0.70
     Davidson diagonalization with overlap
     ethr =  4.33E-09,  avg # of iterations =  7.5

     total cpu time spent up to now is       20.9 secs

     total energy              =    -333.15869955 Ry
     estimated scf accuracy    <       0.00000809 Ry

     iteration #  6     ecut=    30.00 Ry     beta= 0.70
     Davidson diagonalization with overlap
     ethr =  4.33E-09,  avg # of iterations =  4.0

     total cpu time spent up to now is       21.3 secs

     total energy              =    -333.15869932 Ry
     estimated scf accuracy    <       0.00000204 Ry

     iteration #  7     ecut=    30.00 Ry     beta= 0.70
     Davidson diagonalization with overlap
     ethr =  4.33E-09,  avg # of iterations =  4.5

     total cpu time spent up to now is       21.6 secs

     total energy              =    -333.15869982 Ry
     estimated scf accuracy    <       0.00000010 Ry

     iteration #  8     ecut=    30.00 Ry     beta= 0.70
     Davidson diagonalization with overlap
     ethr =  2.26E-10,  avg # of iterations =  3.2

     total cpu time spent up to now is       21.9 secs

     total energy              =    -333.15869981 Ry
     estimated scf accuracy    <       0.00000009 Ry

     iteration #  9     ecut=    30.00 Ry     beta= 0.70
     Davidson diagonalization with overlap
     ethr =  2.02E-10,  avg # of iterations =  4.0

     total cpu time spent up to now is       22.2 secs

     End of self-consistent calculation

          k = 0.1250 0.1250 0.1250 (  1096 PWs)   bands (ev):

   -44.6037 -21.3273 -21.2016 -21.2008  -6.4017  -5.3202  -5.2265  -4.0955
    -4.0647  -4.0560  -3.8862  -3.8502   4.5068   7.1848   7.2422   8.0144
     8.7503   8.9770   9.4745   9.6887  10.0998  10.1357

          k = 0.1250 0.1250 0.3750 (  1095 PWs)   bands (ev):

   -44.6024 -21.3851 -21.1992 -21.1982  -5.9197  -5.2264  -5.0970  -4.1360
    -4.0911  -4.0445  -3.9467  -3.8642   3.7535   6.7278   6.9796   7.6304
     8.5153   8.5361   9.4514   9.7228  10.2137  10.9707

          k = 0.1250 0.3750 0.3750 (  1093 PWs)   bands (ev):

   -44.6011 -21.3817 -21.2524 -21.1969  -5.7119  -5.1433  -4.9925  -4.1155
    -4.0760  -4.0121  -3.9128  -3.7163   3.4418   6.5313   7.0004   7.0635
     7.5571   8.7086   9.2524   9.5525  10.0201  10.5936

          k = 0.3750 0.3750 0.3750 (  1082 PWs)   bands (ev):

   -44.5998 -21.3790 -21.2498 -21.2496  -5.4285  -5.2213  -5.1705  -4.0335
    -4.0048  -3.7673  -3.6595  -3.6204   4.0218   5.8377   5.9269   6.5627
     7.3020   7.3753   8.0561  10.4726  10.5467  10.7497

          k = 0.3750-0.1250 0.1250 (  1095 PWs)   bands (ev):

   -44.6024 -21.3248 -21.2558 -21.1990  -6.0275  -5.1932  -5.1077  -4.1324
    -4.0803  -4.0553  -3.9516  -3.8443   3.7946   6.9280   7.3805   7.7469
     8.3562   8.8091   9.2121   9.7447   9.8579  10.7968

          k = 0.3750-0.3750 0.1250 (  1093 PWs)   bands (ev):

   -44.6012 -21.3229 -21.2530 -21.2522  -5.8761  -5.0435  -4.9715  -4.0903
    -4.0580  -3.9807  -3.8976  -3.8224   3.4542   6.7952   6.9142   7.1514
     7.4937   8.6734   9.5236   9.5536   9.9733  10.7481

     highest occupied level (ev):    10.9707

!    total energy              =    -333.15869982 Ry
     estimated scf accuracy    <          5.6E-09 Ry

     The total energy is the sum of the following terms:
     one-electron contribution =     -77.81725171 Ry
     hartree contribution      =      66.79509289 Ry
     xc contribution           =     -49.64964429 Ry
     ewald contribution        =    -272.48689670 Ry

     convergence has been achieved in   9 iterations

     Forces acting on atoms (cartesian axes, Ry/au):

     atom    1 type  2   force =     0.00000000    0.00000000   -0.03822788
     atom    2 type  3   force =     0.00000000    0.00000000    0.09389265
     atom    3 type  1   force =     0.00000000    0.00000000   -0.03023908
     atom    4 type  1   force =     0.00000000    0.00000000   -0.03023908
     atom    5 type  1   force =     0.00000000    0.00000000    0.00481339
     The non-local contrib.  to forces
     atom    1 type  2   force =     0.00000000    0.00000000    0.08936542
     atom    2 type  3   force =     0.00000000    0.00000000   -0.05753413
     atom    3 type  1   force =     0.00000000    0.00000000   -0.33120817
     atom    4 type  1   force =     0.00000000    0.00000000   -0.33120817
     atom    5 type  1   force =     0.00000000    0.00000000    0.45534604
     The ionic contribution  to forces
     atom    1 type  2   force =     0.00000000    0.00000000   -2.98620378
     atom    2 type  3   force =    -0.00000000   -0.00000000    2.54206626
     atom    3 type  1   force =     0.00000000   -0.00000000    2.38733830
     atom    4 type  1   force =    -0.00000000    0.00000000    2.38733830
     atom    5 type  1   force =    -0.00000000   -0.00000000   -4.33053908
     The local contribution  to forces
     atom    1 type  2   force =     0.00000000   -0.00000000    2.85858450
     atom    2 type  3   force =    -0.00000000   -0.00000000   -2.39060627
     atom    3 type  1   force =    -0.00000000   -0.00000000   -2.08633490
     atom    4 type  1   force =    -0.00000000    0.00000000   -2.08633490
     atom    5 type  1   force =    -0.00000000   -0.00000000    3.87996872
     The core correction contribution to forces
     atom    1 type  2   force =     0.00000000    0.00000000    0.00000000
     atom    2 type  3   force =     0.00000000    0.00000000    0.00000000
     atom    3 type  1   force =     0.00000000    0.00000000    0.00000000
     atom    4 type  1   force =     0.00000000    0.00000000    0.00000000
     atom    5 type  1   force =     0.00000000    0.00000000    0.00000000
     The Hubbard contrib.    to forces
     atom    1 type  2   force =     0.00000000    0.00000000    0.00000000
     atom    2 type  3   force =     0.00000000    0.00000000    0.00000000
     atom    3 type  1   force =     0.00000000    0.00000000    0.00000000
     atom    4 type  1   force =     0.00000000    0.00000000    0.00000000
     atom    5 type  1   force =     0.00000000    0.00000000    0.00000000
     The SCF correction term to forces
     atom    1 type  2   force =     0.00000000   -0.00000000    0.00000000
     atom    2 type  3   force =    -0.00000000   -0.00000000   -0.00000000
     atom    3 type  1   force =    -0.00000000    0.00000000   -0.00002888
     atom    4 type  1   force =    -0.00000000    0.00000000   -0.00002888
     atom    5 type  1   force =     0.00000000   -0.00000000    0.00004314

     Total force =     0.043035     Total SCF correction =     0.000059


     Computing stress (Cartesian axis) and pressure

          total   stress  (Ry/bohr**3)                   (kbar)     P=       -4.65
  -0.00009402   0.00000000   0.00000000          -13.83        0.00        0.00
   0.00000000  -0.00009402   0.00000000            0.00      -13.83        0.00
   0.00000000   0.00000000   0.00009320            0.00        0.00       13.71

     Energy error            =      4.3E-03 Ry
     Gradient error          =      3.0E-02 Ry/Bohr

     number of scf cycles    =   5
     number of bfgs steps    =   4

     energy             old  =    -333.1544124328 Ry
     energy             new  =    -333.1586998173 Ry

     CASE: energy            _new < energy            _old

     new trust radius        =       0.1019488521 bohr
     new conv_thr            =       0.0000000302 Ry


ATOMIC_POSITIONS (angstrom)
Pb            0.0000000000        0.0000000000        0.0000000000    0   0   0
Ti            1.9400000000        1.9400000000        1.5520000000    0   0   0
O             0.0000000000        1.9400000000        1.7938124690
O             1.9400000000        0.0000000000        1.7938124690
O             1.9400000000        1.9400000000       -0.2287905484



     Writing config-only to output data dir /home/gridsan/epan1/labutil/lab3_samples/problem2/Lab3/PbTiO3_a_3.88_ecut_30_nk_4_displ_-0.1/pwscf.save/
     NEW-OLD atomic charge density approx. for the potential

     total cpu time spent up to now is       23.4 secs

     Self-consistent Calculation

     iteration #  1     ecut=    30.00 Ry     beta= 0.70
     Davidson diagonalization with overlap
     ethr =  1.00E-06,  avg # of iterations =  9.0

     total cpu time spent up to now is       23.9 secs

     total energy              =    -333.16366326 Ry
     estimated scf accuracy    <       0.00178315 Ry

     iteration #  2     ecut=    30.00 Ry     beta= 0.70
     Davidson diagonalization with overlap
     ethr =  4.05E-06,  avg # of iterations =  4.0

     total cpu time spent up to now is       24.2 secs

     total energy              =    -333.16387728 Ry
     estimated scf accuracy    <       0.00047700 Ry

     iteration #  3     ecut=    30.00 Ry     beta= 0.70
     Davidson diagonalization with overlap
     ethr =  1.08E-06,  avg # of iterations =  4.3

     total cpu time spent up to now is       24.5 secs

     total energy              =    -333.16398314 Ry
     estimated scf accuracy    <       0.00029017 Ry

     iteration #  4     ecut=    30.00 Ry     beta= 0.70
     Davidson diagonalization with overlap
     ethr =  6.59E-07,  avg # of iterations =  4.3

     total cpu time spent up to now is       24.8 secs

     total energy              =    -333.16404491 Ry
     estimated scf accuracy    <       0.00001074 Ry

     iteration #  5     ecut=    30.00 Ry     beta= 0.70
     Davidson diagonalization with overlap
     ethr =  2.44E-08,  avg # of iterations =  4.3

     total cpu time spent up to now is       25.2 secs

     total energy              =    -333.16404731 Ry
     estimated scf accuracy    <       0.00000322 Ry

     iteration #  6     ecut=    30.00 Ry     beta= 0.70
     Davidson diagonalization with overlap
     ethr =  7.31E-09,  avg # of iterations =  4.5

     total cpu time spent up to now is       25.5 secs

     total energy              =    -333.16404810 Ry
     estimated scf accuracy    <       0.00000067 Ry

     iteration #  7     ecut=    30.00 Ry     beta= 0.70
     Davidson diagonalization with overlap
     ethr =  1.52E-09,  avg # of iterations =  4.3

     total cpu time spent up to now is       25.8 secs

     total energy              =    -333.16404819 Ry
     estimated scf accuracy    <       0.00000023 Ry

     iteration #  8     ecut=    30.00 Ry     beta= 0.70
     Davidson diagonalization with overlap
     ethr =  5.14E-10,  avg # of iterations =  4.2

     total cpu time spent up to now is       26.1 secs

     End of self-consistent calculation

          k = 0.1250 0.1250 0.1250 (  1096 PWs)   bands (ev):

   -44.6400 -21.3334 -21.2459 -21.2451  -6.4125  -5.3385  -5.2993  -4.0726
    -4.0483  -4.0399  -3.8746  -3.8278   4.5255   7.2003   7.2392   8.0361
     8.7940   8.9968   9.5401   9.7167  10.0252  10.1041

          k = 0.1250 0.1250 0.3750 (  1095 PWs)   bands (ev):

   -44.6387 -21.3908 -21.2435 -21.2426  -5.9677  -5.2131  -5.1813  -4.1112
    -4.0673  -4.0286  -3.9214  -3.8482   3.8011   6.7488   7.0775   7.6609
     8.4197   8.5342   9.3895   9.7630  10.1357  10.9247

          k = 0.1250 0.3750 0.3750 (  1093 PWs)   bands (ev):

   -44.6375 -21.3875 -21.2979 -21.2412  -5.7590  -5.1320  -5.0392  -4.0932
    -4.0543  -3.9924  -3.8915  -3.7005   3.4577   6.5833   6.9200   7.0772
     7.4690   8.6729   9.2481   9.4861  10.0494  10.5843

          k = 0.3750 0.3750 0.3750 (  1082 PWs)   bands (ev):

   -44.6361 -21.3848 -21.2954 -21.2951  -5.4156  -5.2391  -5.2131  -4.0116
    -3.9874  -3.7430  -3.6436  -3.6038   3.9949   5.8486   5.8765   6.5930
     7.1923   7.2240   8.0889  10.4990  10.5691  10.6810

          k = 0.3750-0.1250 0.1250 (  1095 PWs)   bands (ev):

   -44.6387 -21.3309 -21.3013 -21.2432  -6.0234  -5.2382  -5.1587  -4.1137
    -4.0582  -4.0386  -3.9204  -3.8224   3.7998   6.8564   7.3430   7.7535
     8.3497   8.7634   9.2010   9.7609   9.8886  10.7893

          k = 0.3750-0.3750 0.1250 (  1093 PWs)   bands (ev):

   -44.6375 -21.3291 -21.2984 -21.2977  -5.8417  -5.0987  -5.0313  -4.0738
    -4.0346  -3.9507  -3.8650  -3.7964   3.4234   6.7605   6.8830   7.1210
     7.4157   8.6561   9.4927   9.5055   9.9857  10.6844

     highest occupied level (ev):    10.9247

!    total energy              =    -333.16404822 Ry
     estimated scf accuracy    <       0.00000001 Ry

     The total energy is the sum of the following terms:
     one-electron contribution =     -78.48116153 Ry
     hartree contribution      =      67.11315538 Ry
     xc contribution           =     -49.65740687 Ry
     ewald contribution        =    -272.13863520 Ry

     convergence has been achieved in   8 iterations

     Forces acting on atoms (cartesian axes, Ry/au):

     atom    1 type  2   force =     0.00000000    0.00000000   -0.03477287
     atom    2 type  3   force =     0.00000000    0.00000000    0.07696306
     atom    3 type  1   force =     0.00000000    0.00000000   -0.02423592
     atom    4 type  1   force =     0.00000000    0.00000000   -0.02423592
     atom    5 type  1   force =     0.00000000    0.00000000    0.00628165
     The non-local contrib.  to forces
     atom    1 type  2   force =     0.00000000    0.00000000    0.12905715
     atom    2 type  3   force =     0.00000000    0.00000000   -0.04855231
     atom    3 type  1   force =     0.00000000    0.00000000   -0.30790268
     atom    4 type  1   force =     0.00000000    0.00000000   -0.30790268
     atom    5 type  1   force =     0.00000000    0.00000000    0.40412021
     The ionic contribution  to forces
     atom    1 type  2   force =     0.00000000    0.00000000   -3.65412553
     atom    2 type  3   force =    -0.00000000   -0.00000000    2.78231285
     atom    3 type  1   force =     0.00000000   -0.00000000    2.50277114
     atom    4 type  1   force =    -0.00000000    0.00000000    2.50277114
     atom    5 type  1   force =    -0.00000000   -0.00000000   -4.13372959
     The local contribution  to forces
     atom    1 type  2   force =     0.00000000   -0.00000000    3.49019016
     atom    2 type  3   force =    -0.00000000   -0.00000000   -2.65682037
     atom    3 type  1   force =    -0.00000000   -0.00000000   -2.21906613
     atom    4 type  1   force =    -0.00000000    0.00000000   -2.21906613
     atom    5 type  1   force =    -0.00000000   -0.00000000    3.73585522
     The core correction contribution to forces
     atom    1 type  2   force =     0.00000000    0.00000000    0.00000000
     atom    2 type  3   force =     0.00000000    0.00000000    0.00000000
     atom    3 type  1   force =     0.00000000    0.00000000    0.00000000
     atom    4 type  1   force =     0.00000000    0.00000000    0.00000000
     atom    5 type  1   force =     0.00000000    0.00000000    0.00000000
     The Hubbard contrib.    to forces
     atom    1 type  2   force =     0.00000000    0.00000000    0.00000000
     atom    2 type  3   force =     0.00000000    0.00000000    0.00000000
     atom    3 type  1   force =     0.00000000    0.00000000    0.00000000
     atom    4 type  1   force =     0.00000000    0.00000000    0.00000000
     atom    5 type  1   force =     0.00000000    0.00000000    0.00000000
     The SCF correction term to forces
     atom    1 type  2   force =    -0.00000000    0.00000000    0.00000000
     atom    2 type  3   force =     0.00000000   -0.00000000    0.00000000
     atom    3 type  1   force =     0.00000000    0.00000000   -0.00002172
     atom    4 type  1   force =    -0.00000000    0.00000000   -0.00002172
     atom    5 type  1   force =    -0.00000000    0.00000000    0.00005233

     Total force =     0.034846     Total SCF correction =     0.000061


     Computing stress (Cartesian axis) and pressure

          total   stress  (Ry/bohr**3)                   (kbar)     P=       -1.29
  -0.00004648   0.00000000   0.00000000           -6.84        0.00        0.00
   0.00000000  -0.00004648   0.00000000            0.00       -6.84        0.00
   0.00000000   0.00000000   0.00006660            0.00        0.00        9.80

     Energy error            =      5.3E-03 Ry
     Gradient error          =      2.4E-02 Ry/Bohr

     number of scf cycles    =   6
     number of bfgs steps    =   5

     energy             old  =    -333.1586998173 Ry
     energy             new  =    -333.1640482171 Ry

     CASE: energy            _new < energy            _old

     new trust radius        =       0.1529232781 bohr
     new conv_thr            =       0.0000000242 Ry


ATOMIC_POSITIONS (angstrom)
Pb            0.0000000000        0.0000000000        0.0000000000    0   0   0
Ti            1.9400000000        1.9400000000        1.5520000000    0   0   0
O             0.0000000000        1.9400000000        1.7128889552
O             1.9400000000        0.0000000000        1.7128889552
O             1.9400000000        1.9400000000       -0.2551546660



     Writing config-only to output data dir /home/gridsan/epan1/labutil/lab3_samples/problem2/Lab3/PbTiO3_a_3.88_ecut_30_nk_4_displ_-0.1/pwscf.save/
     NEW-OLD atomic charge density approx. for the potential

     total cpu time spent up to now is       27.2 secs

     Self-consistent Calculation

     iteration #  1     ecut=    30.00 Ry     beta= 0.70
     Davidson diagonalization with overlap
     ethr =  1.00E-06,  avg # of iterations = 11.7

     total cpu time spent up to now is       27.8 secs

     total energy              =    -333.16882607 Ry
     estimated scf accuracy    <       0.00404622 Ry

     iteration #  2     ecut=    30.00 Ry     beta= 0.70
     Davidson diagonalization with overlap
     ethr =  9.20E-06,  avg # of iterations =  4.3

     total cpu time spent up to now is       28.1 secs

     total energy              =    -333.16905508 Ry
     estimated scf accuracy    <       0.00184963 Ry

     iteration #  3     ecut=    30.00 Ry     beta= 0.70
     Davidson diagonalization with overlap
     ethr =  4.20E-06,  avg # of iterations =  4.3

     total cpu time spent up to now is       28.4 secs

     total energy              =    -333.16951466 Ry
     estimated scf accuracy    <       0.00130277 Ry

     iteration #  4     ecut=    30.00 Ry     beta= 0.70
     Davidson diagonalization with overlap
     ethr =  2.96E-06,  avg # of iterations =  3.8

     total cpu time spent up to now is       28.7 secs

     total energy              =    -333.16969959 Ry
     estimated scf accuracy    <       0.00002820 Ry

     iteration #  5     ecut=    30.00 Ry     beta= 0.70
     Davidson diagonalization with overlap
     ethr =  6.41E-08,  avg # of iterations =  6.5

     total cpu time spent up to now is       29.1 secs

     total energy              =    -333.16974044 Ry
     estimated scf accuracy    <       0.00006910 Ry

     iteration #  6     ecut=    30.00 Ry     beta= 0.70
     Davidson diagonalization with overlap
     ethr =  6.41E-08,  avg # of iterations =  3.0

     total cpu time spent up to now is       29.4 secs

     total energy              =    -333.16973405 Ry
     estimated scf accuracy    <       0.00003056 Ry

     iteration #  7     ecut=    30.00 Ry     beta= 0.70
     Davidson diagonalization with overlap
     ethr =  6.41E-08,  avg # of iterations =  4.3

     total cpu time spent up to now is       29.7 secs

     total energy              =    -333.16974094 Ry
     estimated scf accuracy    <       0.00000078 Ry

     iteration #  8     ecut=    30.00 Ry     beta= 0.70
     Davidson diagonalization with overlap
     ethr =  1.78E-09,  avg # of iterations =  5.0

     total cpu time spent up to now is       30.1 secs

     total energy              =    -333.16974102 Ry
     estimated scf accuracy    <       0.00000111 Ry

     iteration #  9     ecut=    30.00 Ry     beta= 0.70
     Davidson diagonalization with overlap
     ethr =  1.78E-09,  avg # of iterations =  4.3

     total cpu time spent up to now is       30.4 secs

     End of self-consistent calculation

          k = 0.1250 0.1250 0.1250 (  1096 PWs)   bands (ev):

   -44.6942 -21.3494 -21.3103 -21.3095  -6.4521  -5.4181  -5.3469  -4.0299
    -4.0156  -4.0060  -3.8479  -3.7734   4.5548   7.1969   7.2337   8.0587
     8.8605   8.9959   9.6636   9.7441   9.9087  10.0497

          k = 0.1250 0.1250 0.3750 (  1095 PWs)   bands (ev):

   -44.6929 -21.4062 -21.3080 -21.3070  -6.0646  -5.3162  -5.1735  -4.0672
    -4.0216  -3.9959  -3.8624  -3.8146   3.8755   6.7764   7.1958   7.6638
     8.2939   8.5639   9.2867   9.8053  10.0096  10.8689

          k = 0.1250 0.3750 0.3750 (  1093 PWs)   bands (ev):

   -44.6917 -21.4029 -21.3639 -21.3056  -5.8502  -5.1702  -5.0597  -4.0517
    -4.0131  -3.9518  -3.8465  -3.6585   3.4868   6.6404   6.8023   7.0629
     7.3896   8.5923   9.2414   9.3995  10.0896  10.5819

          k = 0.3750 0.3750 0.3750 (  1082 PWs)   bands (ev):

   -44.6904 -21.4003 -21.3612 -21.3609  -5.4438  -5.2937  -5.2316  -3.9699
    -3.9518  -3.7004  -3.6044  -3.5632   3.9379   5.8131   5.8679   6.6127
     7.0288   7.0550   8.1687  10.5318  10.5413  10.6215

          k = 0.3750-0.1250 0.1250 (  1095 PWs)   bands (ev):

   -44.6929 -21.3673 -21.3469 -21.3075  -6.0431  -5.2999  -5.2380  -4.0768
    -4.0149  -4.0041  -3.8614  -3.7724   3.8051   6.7549   7.2752   7.7565
     8.3415   8.6870   9.2017   9.7568   9.9382  10.7930

          k = 0.3750-0.3750 0.1250 (  1093 PWs)   bands (ev):

   -44.6917 -21.3644 -21.3634 -21.3450  -5.7945  -5.1934  -5.1407  -4.0396
    -3.9898  -3.8905  -3.7968  -3.7466   3.3650   6.7007   6.8067   7.0749
     7.3411   8.6452   9.4439   9.4664  10.0312  10.5802

     highest occupied level (ev):    10.8689

!    total energy              =    -333.16974118 Ry
     estimated scf accuracy    <          9.7E-09 Ry

     The total energy is the sum of the following terms:
     one-electron contribution =     -79.60417388 Ry
     hartree contribution      =      67.65735310 Ry
     xc contribution           =     -49.67184253 Ry
     ewald contribution        =    -271.55107787 Ry

     convergence has been achieved in   9 iterations

     Forces acting on atoms (cartesian axes, Ry/au):

     atom    1 type  2   force =     0.00000000    0.00000000   -0.03219293
     atom    2 type  3   force =     0.00000000    0.00000000    0.05874966
     atom    3 type  1   force =     0.00000000    0.00000000   -0.01442527
     atom    4 type  1   force =     0.00000000    0.00000000   -0.01442527
     atom    5 type  1   force =     0.00000000    0.00000000    0.00229381
     The non-local contrib.  to forces
     atom    1 type  2   force =     0.00000000    0.00000000    0.18608448
     atom    2 type  3   force =     0.00000000    0.00000000   -0.03861738
     atom    3 type  1   force =     0.00000000    0.00000000   -0.27136638
     atom    4 type  1   force =     0.00000000    0.00000000   -0.27136638
     atom    5 type  1   force =     0.00000000    0.00000000    0.32756235
     The ionic contribution  to forces
     atom    1 type  2   force =     0.00000000    0.00000000   -4.64326842
     atom    2 type  3   force =    -0.00000000   -0.00000000    3.26195102
     atom    3 type  1   force =     0.00000000   -0.00000000    2.63931973
     atom    4 type  1   force =    -0.00000000    0.00000000    2.63931973
     atom    5 type  1   force =    -0.00000000   -0.00000000   -3.89732206
     The local contribution  to forces
     atom    1 type  2   force =     0.00000000   -0.00000000    4.42492382
     atom    2 type  3   force =    -0.00000000   -0.00000000   -3.16462212
     atom    3 type  1   force =     0.00000000   -0.00000000   -2.38233139
     atom    4 type  1   force =    -0.00000000    0.00000000   -2.38233139
     atom    5 type  1   force =    -0.00000000   -0.00000000    3.57203132
     The core correction contribution to forces
     atom    1 type  2   force =     0.00000000    0.00000000    0.00000000
     atom    2 type  3   force =     0.00000000    0.00000000    0.00000000
     atom    3 type  1   force =     0.00000000    0.00000000    0.00000000
     atom    4 type  1   force =     0.00000000    0.00000000    0.00000000
     atom    5 type  1   force =     0.00000000    0.00000000    0.00000000
     The Hubbard contrib.    to forces
     atom    1 type  2   force =     0.00000000    0.00000000    0.00000000
     atom    2 type  3   force =     0.00000000    0.00000000    0.00000000
     atom    3 type  1   force =     0.00000000    0.00000000    0.00000000
     atom    4 type  1   force =     0.00000000    0.00000000    0.00000000
     atom    5 type  1   force =     0.00000000    0.00000000    0.00000000
     The SCF correction term to forces
     atom    1 type  2   force =    -0.00000000   -0.00000000    0.00000000
     atom    2 type  3   force =     0.00000000   -0.00000000    0.00000000
     atom    3 type  1   force =    -0.00000000   -0.00000000   -0.00002834
     atom    4 type  1   force =     0.00000000    0.00000000   -0.00002834
     atom    5 type  1   force =    -0.00000000   -0.00000000    0.00004108

     Total force =     0.020529     Total SCF correction =     0.000057


     Computing stress (Cartesian axis) and pressure

          total   stress  (Ry/bohr**3)                   (kbar)     P=        5.47
   0.00002819   0.00000000   0.00000000            4.15        0.00        0.00
   0.00000000   0.00002819   0.00000000            0.00        4.15        0.00
   0.00000000   0.00000000   0.00005522            0.00        0.00        8.12

     Energy error            =      5.7E-03 Ry
     Gradient error          =      1.4E-02 Ry/Bohr

     number of scf cycles    =   7
     number of bfgs steps    =   6

     energy             old  =    -333.1640482171 Ry
     energy             new  =    -333.1697411788 Ry

     CASE: energy            _new < energy            _old

     new trust radius        =       0.2293849171 bohr
     new conv_thr            =       0.0000000144 Ry


ATOMIC_POSITIONS (angstrom)
Pb            0.0000000000        0.0000000000        0.0000000000    0   0   0
Ti            1.9400000000        1.9400000000        1.5520000000    0   0   0
O             0.0000000000        1.9400000000        1.5915036845
O             1.9400000000        0.0000000000        1.5915036845
O             1.9400000000        1.9400000000       -0.2961959426



     Writing config-only to output data dir /home/gridsan/epan1/labutil/lab3_samples/problem2/Lab3/PbTiO3_a_3.88_ecut_30_nk_4_displ_-0.1/pwscf.save/
     NEW-OLD atomic charge density approx. for the potential

     total cpu time spent up to now is       31.5 secs

     Self-consistent Calculation

     iteration #  1     ecut=    30.00 Ry     beta= 0.70
     Davidson diagonalization with overlap
     ethr =  1.00E-06,  avg # of iterations = 11.3

     total cpu time spent up to now is       32.1 secs

     total energy              =    -333.17061625 Ry
     estimated scf accuracy    <       0.00957783 Ry

     iteration #  2     ecut=    30.00 Ry     beta= 0.70
     Davidson diagonalization with overlap
     ethr =  2.18E-05,  avg # of iterations =  4.3

     total cpu time spent up to now is       32.4 secs

     total energy              =    -333.17059400 Ry
     estimated scf accuracy    <       0.00740859 Ry

     iteration #  3     ecut=    30.00 Ry     beta= 0.70
     Davidson diagonalization with overlap
     ethr =  1.68E-05,  avg # of iterations =  4.5

     total cpu time spent up to now is       32.7 secs

     total energy              =    -333.17249456 Ry
     estimated scf accuracy    <       0.00318377 Ry

     iteration #  4     ecut=    30.00 Ry     beta= 0.70
     Davidson diagonalization with overlap
     ethr =  7.24E-06,  avg # of iterations =  3.7

     total cpu time spent up to now is       33.0 secs

     total energy              =    -333.17283949 Ry
     estimated scf accuracy    <       0.00018404 Ry

     iteration #  5     ecut=    30.00 Ry     beta= 0.70
     Davidson diagonalization with overlap
     ethr =  4.18E-07,  avg # of iterations =  5.5

     total cpu time spent up to now is       33.5 secs

     total energy              =    -333.17299761 Ry
     estimated scf accuracy    <       0.00022152 Ry

     iteration #  6     ecut=    30.00 Ry     beta= 0.70
     Davidson diagonalization with overlap
     ethr =  4.18E-07,  avg # of iterations =  2.0

     total cpu time spent up to now is       33.8 secs

     total energy              =    -333.17297266 Ry
     estimated scf accuracy    <       0.00011792 Ry

     iteration #  7     ecut=    30.00 Ry     beta= 0.70
     Davidson diagonalization with overlap
     ethr =  2.68E-07,  avg # of iterations =  4.2

     total cpu time spent up to now is       34.1 secs

     total energy              =    -333.17299322 Ry
     estimated scf accuracy    <       0.00000474 Ry

     iteration #  8     ecut=    30.00 Ry     beta= 0.70
     Davidson diagonalization with overlap
     ethr =  1.08E-08,  avg # of iterations =  5.7

     total cpu time spent up to now is       34.4 secs

     total energy              =    -333.17299625 Ry
     estimated scf accuracy    <       0.00000168 Ry

     iteration #  9     ecut=    30.00 Ry     beta= 0.70
     Davidson diagonalization with overlap
     ethr =  3.82E-09,  avg # of iterations =  2.0

     total cpu time spent up to now is       34.7 secs

     total energy              =    -333.17299604 Ry
     estimated scf accuracy    <       0.00000087 Ry

     iteration # 10     ecut=    30.00 Ry     beta= 0.70
     Davidson diagonalization with overlap
     ethr =  1.99E-09,  avg # of iterations =  4.5

     total cpu time spent up to now is       35.0 secs

     total energy              =    -333.17299624 Ry
     estimated scf accuracy    <       0.00000007 Ry

     iteration # 11     ecut=    30.00 Ry     beta= 0.70
     Davidson diagonalization with overlap
     ethr =  1.60E-10,  avg # of iterations =  4.5

     total cpu time spent up to now is       35.3 secs

     total energy              =    -333.17299625 Ry
     estimated scf accuracy    <       0.00000002 Ry

     iteration # 12     ecut=    30.00 Ry     beta= 0.70
     Davidson diagonalization with overlap
     ethr =  4.85E-11,  avg # of iterations =  2.3

     total cpu time spent up to now is       35.6 secs

     End of self-consistent calculation

          k = 0.1250 0.1250 0.1250 (  1096 PWs)   bands (ev):

   -44.7872 -21.4141 -21.4132 -21.3927  -6.5629  -5.6124  -5.3179  -3.9549
    -3.9490  -3.9254  -3.7875  -3.6477   4.5992   7.1200   7.2128   8.0619
     8.9442   8.9593   9.6464   9.8452   9.8559  10.0002

          k = 0.1250 0.1250 0.3750 (  1095 PWs)   bands (ev):

   -44.7860 -21.4484 -21.4119 -21.4109  -6.2501  -5.5307  -5.0841  -3.9895
    -3.9343  -3.9237  -3.7440  -3.7279   3.9896   6.8111   7.2270   7.5612
     8.2265   8.6398   9.1490   9.7690   9.8619  10.8329

          k = 0.1250 0.3750 0.3750 (  1093 PWs)   bands (ev):

   -44.7847 -21.4689 -21.4450 -21.4094  -6.0198  -5.3513  -4.9877  -3.9754
    -3.9305  -3.8682  -3.7505  -3.5556   3.5410   6.5819   6.7673   6.9248
     7.3706   8.4457   9.1345   9.3897  10.1625  10.6006

          k = 0.3750 0.3750 0.3750 (  1082 PWs)   bands (ev):

   -44.7834 -21.4661 -21.4658 -21.4424  -5.5799  -5.4518  -5.1584  -3.8885
    -3.8769  -3.6224  -3.5146  -3.4680   3.8124   5.7559   5.8992   6.5558
     6.8258   6.9572   8.3469  10.3542  10.5747  10.6527

          k = 0.3750-0.1250 0.1250 (  1095 PWs)   bands (ev):

   -44.7859 -21.4721 -21.4113 -21.3902  -6.1395  -5.4472  -5.2841  -4.0011
    -3.9408  -3.9200  -3.7537  -3.6559   3.8073   6.6177   7.1748   7.7225
     8.3033   8.5969   9.2264   9.7260   9.9868  10.8473

          k = 0.3750-0.3750 0.1250 (  1093 PWs)   bands (ev):

   -44.7847 -21.4691 -21.4682 -21.3883  -5.7566  -5.3414  -5.3356  -3.9663
    -3.9037  -3.7755  -3.6581  -3.6474   3.2506   6.5908   6.6599   7.0360
     7.3174   8.6564   9.3977   9.4645  10.1435  10.4112

     highest occupied level (ev):    10.8473

!    total energy              =    -333.17299625 Ry
     estimated scf accuracy    <          7.8E-09 Ry

     The total energy is the sum of the following terms:
     one-electron contribution =     -81.42874798 Ry
     hartree contribution      =      68.54834456 Ry
     xc contribution           =     -49.69535458 Ry
     ewald contribution        =    -270.59723824 Ry

     convergence has been achieved in  12 iterations

     Forces acting on atoms (cartesian axes, Ry/au):

     atom    1 type  2   force =     0.00000000    0.00000000   -0.03542990
     atom    2 type  3   force =     0.00000000    0.00000000    0.04327304
     atom    3 type  1   force =     0.00000000    0.00000000    0.00197502
     atom    4 type  1   force =     0.00000000    0.00000000    0.00197502
     atom    5 type  1   force =     0.00000000    0.00000000   -0.01179318
[...]
     Davidson diagonalization with overlap
     ethr =  3.65E-09,  avg # of iterations =  2.3

     total cpu time spent up to now is       51.1 secs

     total energy              =    -333.17336099 Ry
     estimated scf accuracy    <       0.00000065 Ry

     iteration #  7     ecut=    30.00 Ry     beta= 0.70
     Davidson diagonalization with overlap
     ethr =  1.47E-09,  avg # of iterations =  4.3

     total cpu time spent up to now is       51.5 secs

     total energy              =    -333.17336112 Ry
     estimated scf accuracy    <       0.00000008 Ry

     iteration #  8     ecut=    30.00 Ry     beta= 0.70
     Davidson diagonalization with overlap
     ethr =  1.73E-10,  avg # of iterations =  4.2

     total cpu time spent up to now is       51.8 secs

     total energy              =    -333.17336113 Ry
     estimated scf accuracy    <       0.00000002 Ry

     iteration #  9     ecut=    30.00 Ry     beta= 0.70
     Davidson diagonalization with overlap
     ethr =  4.22E-11,  avg # of iterations =  4.7

     total cpu time spent up to now is       52.1 secs

     total energy              =    -333.17336113 Ry
     estimated scf accuracy    <          1.1E-09 Ry

     iteration # 10     ecut=    30.00 Ry     beta= 0.70
     Davidson diagonalization with overlap
     ethr =  2.60E-12,  avg # of iterations =  5.2

     total cpu time spent up to now is       52.4 secs

     End of self-consistent calculation

          k = 0.1250 0.1250 0.1250 (  1096 PWs)   bands (ev):

   -44.8276 -21.4563 -21.4554 -21.4094  -6.5912  -5.6565  -5.2967  -3.9397
    -3.9338  -3.9053  -3.7737  -3.6204   4.6046   7.1074   7.1927   8.0758
     8.9376   8.9841   9.6060   9.8535   9.8744  10.0383

          k = 0.1250 0.1250 0.3750 (  1095 PWs)   bands (ev):

   -44.8264 -21.4648 -21.4540 -21.4531  -6.2924  -5.5782  -5.0508  -3.9730
    -3.9171  -3.9044  -3.7294  -3.6986   4.0110   6.8228   7.2331   7.5248
     8.2226   8.6693   9.1273   9.7295   9.8565  10.8291

          k = 0.1250 0.3750 0.3750 (  1093 PWs)   bands (ev):

   -44.8252 -21.5110 -21.4614 -21.4516  -6.0599  -5.3972  -4.9567  -3.9588
    -3.9111  -3.8500  -3.7293  -3.5320   3.5584   6.5465   6.7608   6.9092
     7.3734   8.4136   9.0929   9.4168  10.1832  10.6161

          k = 0.3750 0.3750 0.3750 (  1082 PWs)   bands (ev):

   -44.8239 -21.5083 -21.5079 -21.4587  -5.6177  -5.4920  -5.1249  -3.8700
    -3.8596  -3.6073  -3.4951  -3.4484   3.7870   5.7518   5.9195   6.5268
     6.7903   6.9560   8.3891  10.3098  10.5917  10.6674

          k = 0.3750-0.1250 0.1250 (  1095 PWs)   bands (ev):

   -44.8264 -21.5142 -21.4535 -21.4070  -6.1665  -5.4888  -5.2738  -3.9836
    -3.9251  -3.9001  -3.7300  -3.6297   3.8126   6.5840   7.1586   7.7143
     8.2825   8.5791   9.2483   9.7242   9.9968  10.8856

          k = 0.3750-0.3750 0.1250 (  1093 PWs)   bands (ev):

   -44.8252 -21.5112 -21.5103 -21.4051  -5.7507  -5.3891  -5.3550  -3.9493
    -3.8846  -3.7537  -3.6302  -3.6252   3.2267   6.5614   6.6305   7.0514
     7.3478   8.6648   9.3859   9.4474  10.1731  10.3733

     highest occupied level (ev):    10.8856

!    total energy              =    -333.17336113 Ry
     estimated scf accuracy    <          2.1E-10 Ry

     The total energy is the sum of the following terms:
     one-electron contribution =     -81.43236576 Ry
     hartree contribution      =      68.53814420 Ry
     xc contribution           =     -49.69195657 Ry
     ewald contribution        =    -270.58718300 Ry

     convergence has been achieved in  10 iterations

     Forces acting on atoms (cartesian axes, Ry/au):

     atom    1 type  2   force =     0.00000000    0.00000000   -0.03840823
     atom    2 type  3   force =     0.00000000    0.00000000    0.04043665
     atom    3 type  1   force =     0.00000000    0.00000000    0.00030825
     atom    4 type  1   force =     0.00000000    0.00000000    0.00030825
     atom    5 type  1   force =     0.00000000    0.00000000   -0.00264493
     The non-local contrib.  to forces
     atom    1 type  2   force =     0.00000000    0.00000000    0.27806730
     atom    2 type  3   force =     0.00000000    0.00000000   -0.02662416
     atom    3 type  1   force =     0.00000000    0.00000000   -0.22381186
     atom    4 type  1   force =     0.00000000    0.00000000   -0.22381186
     atom    5 type  1   force =     0.00000000    0.00000000    0.16150003
     The ionic contribution  to forces
     atom    1 type  2   force =     0.00000000    0.00000000   -6.19874627
     atom    2 type  3   force =    -0.00000000   -0.00000000    3.53760601
     atom    3 type  1   force =     0.00000000   -0.00000000    2.68601075
     atom    4 type  1   force =    -0.00000000    0.00000000    2.68601075
     atom    5 type  1   force =    -0.00000000   -0.00000000   -2.71088124
     The local contribution  to forces
     atom    1 type  2   force =    -0.00000000    0.00000000    5.88226118
     atom    2 type  3   force =    -0.00000000   -0.00000000   -3.47055033
     atom    3 type  1   force =     0.00000000   -0.00000000   -2.46189897
     atom    4 type  1   force =    -0.00000000    0.00000000   -2.46189897
     atom    5 type  1   force =    -0.00000000   -0.00000000    2.54672840
     The core correction contribution to forces
     atom    1 type  2   force =     0.00000000    0.00000000    0.00000000
     atom    2 type  3   force =     0.00000000    0.00000000    0.00000000
     atom    3 type  1   force =     0.00000000    0.00000000    0.00000000
     atom    4 type  1   force =     0.00000000    0.00000000    0.00000000
     atom    5 type  1   force =     0.00000000    0.00000000    0.00000000
     The Hubbard contrib.    to forces
     atom    1 type  2   force =     0.00000000    0.00000000    0.00000000
     atom    2 type  3   force =     0.00000000    0.00000000    0.00000000
     atom    3 type  1   force =     0.00000000    0.00000000    0.00000000
     atom    4 type  1   force =     0.00000000    0.00000000    0.00000000
     atom    5 type  1   force =     0.00000000    0.00000000    0.00000000
     The SCF correction term to forces
     atom    1 type  2   force =    -0.00000000   -0.00000000    0.00000000
     atom    2 type  3   force =    -0.00000000   -0.00000000   -0.00000000
     atom    3 type  1   force =     0.00000000   -0.00000000   -0.00000095
     atom    4 type  1   force =    -0.00000000    0.00000000   -0.00000095
     atom    5 type  1   force =    -0.00000000    0.00000000   -0.00000141

     Total force =     0.002681     Total SCF correction =     0.000002


     Computing stress (Cartesian axis) and pressure

          total   stress  (Ry/bohr**3)                   (kbar)     P=       14.89
   0.00014847   0.00000000   0.00000000           21.84        0.00        0.00
   0.00000000   0.00014847   0.00000000            0.00       21.84        0.00
   0.00000000   0.00000000   0.00000676            0.00        0.00        0.99

     Energy error            =      8.8E-05 Ry
     Gradient error          =      2.6E-03 Ry/Bohr

     number of scf cycles    =  12
     number of bfgs steps    =  11

     energy             old  =    -333.1732731775 Ry
     energy             new  =    -333.1733611335 Ry

     CASE: energy            _new < energy            _old

     new trust radius        =       0.0265781437 bohr
     new conv_thr            =       0.0000000010 Ry


ATOMIC_POSITIONS (angstrom)
Pb            0.0000000000        0.0000000000        0.0000000000    0   0   0
Ti            1.9400000000        1.9400000000        1.5520000000    0   0   0
O             0.0000000000        1.9400000000        1.5603957358
O             1.9400000000        0.0000000000        1.5603957358
O             1.9400000000        1.9400000000       -0.3449666428



     Writing config-only to output data dir /home/gridsan/epan1/labutil/lab3_samples/problem2/Lab3/PbTiO3_a_3.88_ecut_30_nk_4_displ_-0.1/pwscf.save/
     NEW-OLD atomic charge density approx. for the potential

     total cpu time spent up to now is       53.6 secs

     Self-consistent Calculation

     iteration #  1     ecut=    30.00 Ry     beta= 0.70
     Davidson diagonalization with overlap
     ethr =  1.00E-06,  avg # of iterations =  7.0

     total cpu time spent up to now is       54.0 secs

     total energy              =    -333.17336663 Ry
     estimated scf accuracy    <       0.00015451 Ry

     iteration #  2     ecut=    30.00 Ry     beta= 0.70
     Davidson diagonalization with overlap
     ethr =  3.51E-07,  avg # of iterations =  4.5

     total cpu time spent up to now is       54.3 secs

     total energy              =    -333.17337161 Ry
     estimated scf accuracy    <       0.00006594 Ry

     iteration #  3     ecut=    30.00 Ry     beta= 0.70
     Davidson diagonalization with overlap
     ethr =  1.50E-07,  avg # of iterations =  4.8

     total cpu time spent up to now is       54.7 secs

     total energy              =    -333.17338837 Ry
     estimated scf accuracy    <       0.00004866 Ry

     iteration #  4     ecut=    30.00 Ry     beta= 0.70
     Davidson diagonalization with overlap
     ethr =  1.11E-07,  avg # of iterations =  4.0

     total cpu time spent up to now is       55.0 secs

     total energy              =    -333.17339492 Ry
     estimated scf accuracy    <       0.00000164 Ry

     iteration #  5     ecut=    30.00 Ry     beta= 0.70
     Davidson diagonalization with overlap
     ethr =  3.74E-09,  avg # of iterations =  5.8

     total cpu time spent up to now is       55.3 secs

     total energy              =    -333.17339621 Ry
     estimated scf accuracy    <       0.00000182 Ry

     iteration #  6     ecut=    30.00 Ry     beta= 0.70
     Davidson diagonalization with overlap
     ethr =  3.74E-09,  avg # of iterations =  2.7

     total cpu time spent up to now is       55.6 secs

     total energy              =    -333.17339613 Ry
     estimated scf accuracy    <       0.00000071 Ry

     iteration #  7     ecut=    30.00 Ry     beta= 0.70
     Davidson diagonalization with overlap
     ethr =  1.61E-09,  avg # of iterations =  4.7

     total cpu time spent up to now is       55.9 secs

     total energy              =    -333.17339629 Ry
     estimated scf accuracy    <       0.00000008 Ry

     iteration #  8     ecut=    30.00 Ry     beta= 0.70
     Davidson diagonalization with overlap
     ethr =  1.71E-10,  avg # of iterations =  3.5

     total cpu time spent up to now is       56.2 secs

     total energy              =    -333.17339630 Ry
     estimated scf accuracy    <       0.00000002 Ry

     iteration #  9     ecut=    30.00 Ry     beta= 0.70
     Davidson diagonalization with overlap
     ethr =  4.78E-11,  avg # of iterations =  4.8

     total cpu time spent up to now is       56.6 secs

     total energy              =    -333.17339631 Ry
     estimated scf accuracy    <          3.0E-09 Ry

     iteration # 10     ecut=    30.00 Ry     beta= 0.70
     Davidson diagonalization with overlap
     ethr =  6.78E-12,  avg # of iterations =  3.2

     total cpu time spent up to now is       56.8 secs

     End of self-consistent calculation

          k = 0.1250 0.1250 0.1250 (  1096 PWs)   bands (ev):

   -44.8412 -21.4706 -21.4697 -21.4159  -6.6047  -5.6765  -5.2886  -3.9330
    -3.9271  -3.8963  -3.7677  -3.6070   4.6067   7.0993   7.1846   8.0816
     8.9318   8.9913   9.5873   9.8568   9.8675  10.0629

          k = 0.1250 0.1250 0.3750 (  1095 PWs)   bands (ev):

   -44.8400 -21.4714 -21.4681 -21.4673  -6.3117  -5.5997  -5.0378  -3.9657
    -3.9097  -3.8954  -3.7230  -3.6842   4.0193   6.8274   7.2290   7.5091
     8.2239   8.6747   9.1197   9.7100   9.8546  10.8289

          k = 0.1250 0.3750 0.3750 (  1093 PWs)   bands (ev):

   -44.8388 -21.5252 -21.4679 -21.4658  -6.0780  -5.4184  -4.9450  -3.9515
    -3.9024  -3.8418  -3.7195  -3.5204   3.5653   6.5309   6.7546   6.9028
     7.3744   8.4001   9.0746   9.4248  10.1920  10.6212

          k = 0.3750 0.3750 0.3750 (  1082 PWs)   bands (ev):

   -44.8374 -21.5225 -21.5222 -21.4651  -5.6353  -5.5105  -5.1118  -3.8619
    -3.8517  -3.6010  -3.4859  -3.4385   3.7733   5.7498   5.9258   6.5140
     6.7775   6.9560   8.4092  10.2898  10.5962  10.6716

          k = 0.3750-0.1250 0.1250 (  1095 PWs)   bands (ev):

   -44.8399 -21.5284 -21.4677 -21.4135  -6.1798  -5.5083  -5.2700  -3.9757
    -3.9181  -3.8912  -3.7193  -3.6169   3.8140   6.5699   7.1507   7.7097
     8.2725   8.5715   9.2544   9.7216   9.9972  10.9014

          k = 0.3750-0.3750 0.1250 (  1093 PWs)   bands (ev):

   -44.8387 -21.5254 -21.5245 -21.4116  -5.7520  -5.4109  -5.3624  -3.9415
    -3.8762  -3.7435  -3.6166  -3.6153   3.2146   6.5485   6.6179   7.0557
     7.3586   8.6684   9.3811   9.4407  10.1864  10.3562

     highest occupied level (ev):    10.9014

!    total energy              =    -333.17339631 Ry
     estimated scf accuracy    <          4.6E-10 Ry

     The total energy is the sum of the following terms:
     one-electron contribution =     -81.49617980 Ry
     hartree contribution      =      68.56608746 Ry
     xc contribution           =     -49.69216992 Ry
     ewald contribution        =    -270.55113405 Ry

     convergence has been achieved in  10 iterations

     Forces acting on atoms (cartesian axes, Ry/au):

     atom    1 type  2   force =     0.00000000    0.00000000   -0.03974797
     atom    2 type  3   force =     0.00000000    0.00000000    0.04027784
     atom    3 type  1   force =     0.00000000    0.00000000   -0.00001669
     atom    4 type  1   force =     0.00000000    0.00000000   -0.00001669
     atom    5 type  1   force =     0.00000000    0.00000000   -0.00049649
     The non-local contrib.  to forces
     atom    1 type  2   force =     0.00000000    0.00000000    0.28424822
     atom    2 type  3   force =     0.00000000    0.00000000   -0.02581982
     atom    3 type  1   force =     0.00000000    0.00000000   -0.22556354
     atom    4 type  1   force =     0.00000000    0.00000000   -0.22556354
     atom    5 type  1   force =     0.00000000    0.00000000    0.13971034
     The ionic contribution  to forces
     atom    1 type  2   force =     0.00000000    0.00000000   -6.27972627
     atom    2 type  3   force =    -0.00000000   -0.00000000    3.35771797
     atom    3 type  1   force =     0.00000000    0.00000000    2.65967493
     atom    4 type  1   force =     0.00000000    0.00000000    2.65967493
     atom    5 type  1   force =    -0.00000000   -0.00000000   -2.39734157
     The local contribution  to forces
     atom    1 type  2   force =     0.00000000    0.00000000    5.95570605
     atom    2 type  3   force =    -0.00000000   -0.00000000   -3.29162443
     atom    3 type  1   force =     0.00000000   -0.00000000   -2.43413372
     atom    4 type  1   force =    -0.00000000    0.00000000   -2.43413372
     atom    5 type  1   force =    -0.00000000   -0.00000000    2.25712560
     The core correction contribution to forces
     atom    1 type  2   force =     0.00000000    0.00000000    0.00000000
     atom    2 type  3   force =     0.00000000    0.00000000    0.00000000
     atom    3 type  1   force =     0.00000000    0.00000000    0.00000000
     atom    4 type  1   force =     0.00000000    0.00000000    0.00000000
     atom    5 type  1   force =     0.00000000    0.00000000    0.00000000
     The Hubbard contrib.    to forces
     atom    1 type  2   force =     0.00000000    0.00000000    0.00000000
     atom    2 type  3   force =     0.00000000    0.00000000    0.00000000
     atom    3 type  1   force =     0.00000000    0.00000000    0.00000000
     atom    4 type  1   force =     0.00000000    0.00000000    0.00000000
     atom    5 type  1   force =     0.00000000    0.00000000    0.00000000
     The SCF correction term to forces
     atom    1 type  2   force =    -0.00000000   -0.00000000    0.00000000
     atom    2 type  3   force =    -0.00000000   -0.00000000   -0.00000000
     atom    3 type  1   force =     0.00000000    0.00000000   -0.00000202
     atom    4 type  1   force =    -0.00000000    0.00000000   -0.00000202
     atom    5 type  1   force =     0.00000000    0.00000000    0.00000149

     Total force =     0.000497     Total SCF correction =     0.000003


     Computing stress (Cartesian axis) and pressure

          total   stress  (Ry/bohr**3)                   (kbar)     P=       14.99
   0.00015544   0.00000000   0.00000000           22.87        0.00        0.00
   0.00000000   0.00015544   0.00000000            0.00       22.87        0.00
   0.00000000   0.00000000  -0.00000523            0.00        0.00       -0.77

     Energy error            =      3.5E-05 Ry
     Gradient error          =      5.0E-04 Ry/Bohr

     bfgs converged in  13 scf cycles and  12 bfgs steps
     (criteria: energy <  1.0E-04 Ry, force <  1.0E-03 Ry/Bohr)

     End of BFGS Geometry Optimization

     Final energy             =    -333.1733963082 Ry

     File /home/gridsan/epan1/labutil/lab3_samples/problem2/Lab3/PbTiO3_a_3.88_ecut_30_nk_4_displ_-0.1/pwscf.bfgs deleted, as requested
Begin final coordinates

ATOMIC_POSITIONS (angstrom)
Pb            0.0000000000        0.0000000000        0.0000000000    0   0   0
Ti            1.9400000000        1.9400000000        1.5520000000    0   0   0
O             0.0000000000        1.9400000000        1.5603957358
O             1.9400000000        0.0000000000        1.5603957358
O             1.9400000000        1.9400000000       -0.3449666428
End final coordinates



     init_run     :      0.72s CPU      0.70s WALL (       1 calls)
     electrons    :     51.79s CPU     42.01s WALL (      13 calls)
     update_pot   :      0.51s CPU      0.44s WALL (      12 calls)
     forces       :      2.10s CPU      1.67s WALL (      13 calls)
     stress       :     13.76s CPU     11.62s WALL (      13 calls)

     Called by init_run:
     wfcinit      :      0.10s CPU      0.08s WALL (       1 calls)
     potinit      :      0.04s CPU      0.04s WALL (       1 calls)
     hinit0       :      0.46s CPU      0.47s WALL (       1 calls)

     Called by electrons:
     c_bands      :     29.80s CPU     23.26s WALL (     126 calls)
     sum_band     :     13.26s CPU     11.35s WALL (     126 calls)
     v_of_rho     :      0.48s CPU      0.42s WALL (     137 calls)
     newd         :      8.45s CPU      7.06s WALL (     137 calls)
     mix_rho      :      0.27s CPU      0.26s WALL (     126 calls)

     Called by c_bands:
     init_us_2    :      0.89s CPU      0.70s WALL (    1674 calls)
     init_us_2:cp :      0.89s CPU      0.70s WALL (    1674 calls)
     cegterg      :     27.60s CPU     21.22s WALL (     756 calls)

     Called by *egterg:
     cdiaghg      :      4.89s CPU      3.70s WALL (    4079 calls)
     h_psi        :     18.25s CPU     14.27s WALL (    4169 calls)
     s_psi        :      0.81s CPU      0.61s WALL (    4169 calls)
     g_psi        :      0.19s CPU      0.14s WALL (    3407 calls)

     Called by h_psi:
     h_psi:calbec :      1.14s CPU      0.88s WALL (    4169 calls)
     vloc_psi     :     16.15s CPU     12.66s WALL (    4169 calls)
     add_vuspsi   :      0.84s CPU      0.64s WALL (    4169 calls)

     General routines
     calbec       :      1.55s CPU      1.20s WALL (    5315 calls)
     fft          :      0.89s CPU      0.79s WALL (     875 calls)
     ffts         :      0.09s CPU      0.08s WALL (     263 calls)
     fftw         :     15.30s CPU     12.00s WALL (  120606 calls)
     interpolate  :      0.17s CPU      0.15s WALL (     137 calls)

     Parallel routines

     PWSCF        :   1m10.16s CPU     57.91s WALL


   This run was terminated on:  17:56:15   2Nov2023            

=------------------------------------------------------------------------------=
   JOB DONE.
=------------------------------------------------------------------------------=
