
     Program PWSCF v.7.2 starts on  1Nov2023 at 16:42: 2 

     This program is part of the open-source Quantum ESPRESSO suite
     for quantum simulation of materials; please cite
         "P. Giannozzi et al., J. Phys.:Condens. Matter 21 395502 (2009);
         "P. Giannozzi et al., J. Phys.:Condens. Matter 29 465901 (2017);
         "P. Giannozzi et al., J. Chem. Phys. 152 154105 (2020);
          URL http://www.quantum-espresso.org", 
     in publications or presentations arising from this work. More details at
     http://www.quantum-espresso.org/quote

     Parallel version (MPI), running on     4 processors

     MPI processes distributed on     4 nodes
     185278 MiB available memory on the printing compute node when the environment starts

     Waiting for input...
     Reading input from standard input
Warning: card &CELL ignored
Warning: card / ignored

     Current dimensions of program PWSCF are:
     Max number of different atomic species (ntypx) = 10
     Max number of k-points (npk) =  40000
     Max angular momentum in pseudopotentials (lmaxx) =  4
     file Fe.pbe-nd-rrkjus.UPF: wavefunction(s)  4S renormalized
     Message from routine setup:
     using ibrav=0 with symmetry is DISCOURAGED, use correct ibrav instead

     R & G space division:  proc/nbgrp/npool/nimage =       4
     Subspace diagonalization in iterative solution of the eigenvalue problem:
     a serial algorithm will be used


     Parallelization info
     --------------------
     sticks:   dense  smooth     PW     G-vecs:    dense   smooth      PW
     Min         116      57     20                 1590      560     114
     Max         117      58     21                 1592      563     115
     Sum         467     229     83                 6363     2243     459

     Using Slab Decomposition



     bravais-lattice index     =            0
     lattice parameter (alat)  =       5.0733  a.u.
     unit-cell volume          =     100.5198 (a.u.)^3
     number of atoms/cell      =            1
     number of atomic types    =            1
     number of electrons       =         8.00
     number of Kohn-Sham states=            8
     kinetic-energy cutoff     =      30.0000  Ry
     charge density cutoff     =     240.0000  Ry
     scf convergence threshold =      1.0E-07
     mixing beta               =       0.5000
     number of iterations used =            8  plain     mixing
     Exchange-correlation=  SLA  PW   PBE  PBE
                           (   1   4   3   4   0   0   0)

     celldm(1)=   5.073308  celldm(2)=   0.000000  celldm(3)=   0.000000
     celldm(4)=   0.000000  celldm(5)=   0.000000  celldm(6)=   0.000000

     crystal axes: (cart. coord. in units of alat)
               a(1) = (  -0.577350   0.577350   0.577350 )  
               a(2) = (   0.577350  -0.577350   0.577350 )  
               a(3) = (   0.577350   0.577350  -0.577350 )  

     reciprocal axes: (cart. coord. in units 2 pi/alat)
               b(1) = (  0.000000  0.866025  0.866025 )  
               b(2) = (  0.866025  0.000000  0.866025 )  
               b(3) = (  0.866025  0.866025  0.000000 )  


     PseudoPot. # 1 for Fe read from file:
     /home/gridsan/epan1/labutil/lab3_samples/pseudopotentials/Fe.pbe-nd-rrkjus.UPF
     MD5 check sum: 398036227a04b607635f6f5e8dfd8242
     Pseudo is Ultrasoft + core correction, Zval =  8.0
     Generated by new atomic code, or converted to UPF format
     Using radial grid of  957 points,  6 beta functions with: 
                l(1) =   0
                l(2) =   0
                l(3) =   1
                l(4) =   1
                l(5) =   2
                l(6) =   2
     Q(r) pseudized with 0 coefficients 


     atomic species   valence    mass     pseudopotential
        Fe             8.00    55.84500     Fe( 1.00)

     Starting magnetic structure 
     atomic species   magnetization
        Fe           0.700

     48 Sym. Ops., with inversion, found



   Cartesian axes

     site n.     atom                  positions (alat units)
         1           Fe  tau(   1) = (   0.0000000   0.0000000   0.0000000  )

     number of k points=    20  Methfessel-Paxton smearing, width (Ry)=  0.0200
                       cart. coord. in units 2pi/alat
        k(    1) = (   0.0000000   0.0000000   0.0000000), wk =   0.0029155
        k(    2) = (   0.1237179   0.1237179   0.0000000), wk =   0.0349854
        k(    3) = (   0.2474358   0.2474358   0.0000000), wk =   0.0349854
        k(    4) = (   0.3711537   0.3711537   0.0000000), wk =   0.0349854
        k(    5) = (   0.2474358   0.1237179   0.1237179), wk =   0.0699708
        k(    6) = (   0.3711537   0.2474358   0.1237179), wk =   0.1399417
        k(    7) = (   0.4948717   0.3711537   0.1237179), wk =   0.0699708
        k(    8) = (   0.4948717   0.2474358   0.2474358), wk =   0.0699708
        k(    9) = (   0.2474358   0.2474358   0.2474358), wk =   0.0233236
        k(   10) = (   0.3711537   0.3711537   0.2474358), wk =   0.0699708
        k(   11) = (  -0.0000000  -0.0000000   0.2474358), wk =   0.0174927
        k(   12) = (   0.4948717   0.3711537   0.3711537), wk =   0.0233236
        k(   13) = (   0.0000000  -0.1237179   0.3711537), wk =   0.0699708
        k(   14) = (  -0.0000000  -0.2474358   0.4948717), wk =   0.0699708
        k(   15) = (   0.1237179  -0.1237179   0.4948717), wk =   0.0699708
        k(   16) = (  -0.7423075  -0.2474358  -0.2474358), wk =   0.0699708
        k(   17) = (   0.0000000   0.0000000   0.4948717), wk =   0.0174927
        k(   18) = (  -0.0000000  -0.1237179   0.6185896), wk =   0.0699708
        k(   19) = (  -0.7423075  -0.1237179  -0.1237179), wk =   0.0233236
        k(   20) = (  -0.0000000  -0.0000000   0.7423075), wk =   0.0174927

     Dense  grid:     6363 G-vectors     FFT dimensions: (  25,  25,  25)

     Smooth grid:     2243 G-vectors     FFT dimensions: (  18,  18,  18)

     Estimated max dynamical RAM per process >       8.13 MB

     Estimated total dynamical RAM >      32.54 MB
     Generating pointlists ...
     new r_m :   0.4125 (alat units)  2.0927 (a.u.) for type    1

     Initial potential from superposition of free atoms

     starting charge       7.9994, renormalised to       8.0000
     Starting wfcs are    6 randomized atomic wfcs +    2 random wfcs

     total cpu time spent up to now is        0.4 secs

     Self-consistent Calculation

     iteration #  1     ecut=    30.00 Ry     beta= 0.50
     Davidson diagonalization with overlap
     ethr =  1.00E-02,  avg # of iterations =  4.7

     total cpu time spent up to now is        0.6 secs

     total energy              =     -55.63076716 Ry
     estimated scf accuracy    <       0.37075528 Ry

     total magnetization       =     3.37 Bohr mag/cell
     absolute magnetization    =     3.37 Bohr mag/cell

     iteration #  2     ecut=    30.00 Ry     beta= 0.50
     Davidson diagonalization with overlap
     ethr =  4.63E-03,  avg # of iterations =  1.9

     total cpu time spent up to now is        0.7 secs

     total energy              =     -55.74555581 Ry
     estimated scf accuracy    <       0.11287803 Ry

     total magnetization       =     2.98 Bohr mag/cell
     absolute magnetization    =     3.00 Bohr mag/cell

     iteration #  3     ecut=    30.00 Ry     beta= 0.50
     Davidson diagonalization with overlap
     ethr =  1.41E-03,  avg # of iterations =  1.1

     total cpu time spent up to now is        0.8 secs

     total energy              =     -55.77695440 Ry
     estimated scf accuracy    <       0.00498195 Ry

     total magnetization       =     3.04 Bohr mag/cell
     absolute magnetization    =     3.10 Bohr mag/cell

     iteration #  4     ecut=    30.00 Ry     beta= 0.50
     Davidson diagonalization with overlap
     ethr =  6.23E-05,  avg # of iterations =  3.7

     total cpu time spent up to now is        1.0 secs

     total energy              =     -55.78149286 Ry
     estimated scf accuracy    <       0.00016083 Ry

     total magnetization       =     2.89 Bohr mag/cell
     absolute magnetization    =     3.05 Bohr mag/cell

     iteration #  5     ecut=    30.00 Ry     beta= 0.50
     Davidson diagonalization with overlap
     c_bands:  1 eigenvalues not converged
     c_bands:  1 eigenvalues not converged
     ethr =  2.01E-06,  avg # of iterations =  6.8

     total cpu time spent up to now is        1.2 secs

     total energy              =     -55.78165716 Ry
     estimated scf accuracy    <       0.00003754 Ry

     total magnetization       =     2.88 Bohr mag/cell
     absolute magnetization    =     3.07 Bohr mag/cell

     iteration #  6     ecut=    30.00 Ry     beta= 0.50
     Davidson diagonalization with overlap
     ethr =  4.69E-07,  avg # of iterations =  2.4

     total cpu time spent up to now is        1.3 secs

     total energy              =     -55.78163030 Ry
     estimated scf accuracy    <       0.00000380 Ry

     total magnetization       =     2.89 Bohr mag/cell
     absolute magnetization    =     3.08 Bohr mag/cell

     iteration #  7     ecut=    30.00 Ry     beta= 0.50
     Davidson diagonalization with overlap
     ethr =  4.75E-08,  avg # of iterations =  4.6

     total cpu time spent up to now is        1.5 secs

     total energy              =     -55.78168279 Ry
     estimated scf accuracy    <       0.00002149 Ry

     total magnetization       =     2.88 Bohr mag/cell
     absolute magnetization    =     3.09 Bohr mag/cell

     iteration #  8     ecut=    30.00 Ry     beta= 0.50
     Davidson diagonalization with overlap
     ethr =  4.75E-08,  avg # of iterations =  2.1

     total cpu time spent up to now is        1.7 secs

     total energy              =     -55.78168724 Ry
     estimated scf accuracy    <       0.00000061 Ry

     total magnetization       =     2.88 Bohr mag/cell
     absolute magnetization    =     3.09 Bohr mag/cell

     iteration #  9     ecut=    30.00 Ry     beta= 0.50
     Davidson diagonalization with overlap
     ethr =  7.68E-09,  avg # of iterations =  2.2

     Magnetic moment per site  (integrated on atomic sphere of radius R)
     atom   1 (R=0.413)  charge=  6.6205  magn=  2.9807

     total cpu time spent up to now is        1.8 secs

     End of self-consistent calculation

 ------ SPIN UP ------------


          k = 0.0000 0.0000 0.0000 (   321 PWs)   bands (ev):

     2.3938   7.0280   7.0280   7.0280   7.8706   7.8706  31.5752  31.5754

          k = 0.1237 0.1237 0.0000 (   285 PWs)   bands (ev):

     3.0701   6.8968   7.0181   7.3179   7.7708   7.8829  27.0890  29.9345

          k = 0.2474 0.2474 0.0000 (   279 PWs)   bands (ev):

     4.6965   6.6090   7.1553   7.7812   7.9208   8.0253  20.8113  27.1878

          k = 0.3712 0.3712 0.0000 (   278 PWs)   bands (ev):

     5.3597   6.3866   7.8587   7.9641   8.6669   9.2275  15.5614  25.6156

          k = 0.2474 0.1237 0.1237 (   280 PWs)   bands (ev):

     4.2821   6.7838   6.8001   7.6827   7.9104   7.9933  24.0172  24.5836

          k = 0.3712 0.2474 0.1237 (   283 PWs)   bands (ev):

     5.5642   6.5069   7.1122   7.7939   8.0696   9.3166  18.3308  22.3425

          k = 0.4949 0.3712 0.1237 (   274 PWs)   bands (ev):

     5.6467   6.4088   7.5367   7.8677   8.3227  11.4099  14.5385  21.6058

          k = 0.4949 0.2474 0.2474 (   284 PWs)   bands (ev):

     6.1008   6.4797   6.8845   7.9129   8.1239  12.2768  16.6617  17.2432

          k = 0.2474 0.2474 0.2474 (   273 PWs)   bands (ev):

     5.6778   6.4967   6.4967   7.8969   7.8969   9.2610  21.6740  21.6740

          k = 0.3712 0.3712 0.2474 (   281 PWs)   bands (ev):

     6.0720   6.3469   7.0696   7.9444   7.9763  11.7343  16.4441  20.4497

          k =-0.0000-0.0000 0.2474 (   277 PWs)   bands (ev):

     3.7116   7.0783   7.0783   7.3188   7.4449   8.0454  27.0764  27.6477

          k = 0.4949 0.3712 0.3712 (   285 PWs)   bands (ev):

     6.2501   6.6565   6.6565   7.9903   7.9903  15.2475  15.2475  16.4013

          k = 0.0000-0.1237 0.3712 (   279 PWs)   bands (ev):

     5.1826   6.8838   6.9083   7.5225   7.9681   8.4180  21.3420  24.9226

          k =-0.0000-0.2474 0.4949 (   281 PWs)   bands (ev):

     5.6938   6.7207   7.0069   7.7026   8.6300  10.5146  15.9577  23.2523

          k = 0.1237-0.1237 0.4949 (   276 PWs)   bands (ev):

     6.0218   6.4179   7.0326   7.6810   8.2917  10.3149  19.2224  19.4734

          k =-0.7423-0.2474-0.2474 (   280 PWs)   bands (ev):

     6.0657   6.5301   6.7884   7.8880   8.4789  13.3273  15.0511  18.5965

          k = 0.0000 0.0000 0.4949 (   277 PWs)   bands (ev):

     5.8886   6.4505   7.5245   7.5245   7.9797   9.6800  21.9472  21.9472

          k =-0.0000-0.1237 0.6186 (   266 PWs)   bands (ev):

     5.9359   6.0985   7.5786   7.8236   8.5485  12.5978  17.2459  20.1446

          k =-0.7423-0.1237-0.1237 (   267 PWs)   bands (ev):

     5.8621   5.8621   7.6468   8.4330   8.4330  16.0777  16.0777  16.8494

          k =-0.0000-0.0000 0.7423 (   265 PWs)   bands (ev):

     5.6392   5.6392   8.3993   8.3993   8.5175  15.4079  18.1778  18.1779

 ------ SPIN DOWN ----------


          k = 0.0000 0.0000 0.0000 (   321 PWs)   bands (ev):

     2.4893   9.9807   9.9807   9.9807  11.3909  11.3909  31.1634  31.1634

          k = 0.1237 0.1237 0.0000 (   285 PWs)   bands (ev):

     3.1730   9.7936   9.9141  10.3246  11.2305  11.4092  27.4206  29.8470

          k = 0.2474 0.2474 0.0000 (   279 PWs)   bands (ev):

     5.0264   9.3905   9.5940  11.1759  11.1841  11.4738  21.6511  27.1776

          k = 0.3712 0.3712 0.0000 (   278 PWs)   bands (ev):

     6.9333   9.0851   9.7673  11.2841  11.5542  11.9979  17.0554  25.5449

          k = 0.2474 0.1237 0.1237 (   280 PWs)   bands (ev):

     4.4568   9.5683   9.5841  10.9968  11.0708  11.5064  24.5611  25.1949

          k = 0.3712 0.2474 0.1237 (   283 PWs)   bands (ev):

     6.5269   9.1523   9.3156  11.1567  11.5685  12.1082  19.3497  22.9647

          k = 0.4949 0.3712 0.1237 (   274 PWs)   bands (ev):

     7.5656   9.0443   9.4657  11.2601  11.6587  13.0546  16.2524  22.2076

          k = 0.4949 0.2474 0.2474 (   284 PWs)   bands (ev):

     8.1024   8.8017   9.1020  11.2960  11.5508  14.0605  17.7833  18.2165

          k = 0.2474 0.2474 0.2474 (   273 PWs)   bands (ev):

     6.1478   9.1072   9.1072  11.4167  11.4167  12.1364  22.3312  22.3312

          k = 0.3712 0.3712 0.2474 (   281 PWs)   bands (ev):

     7.8650   8.8515   8.9775  11.4574  11.5705  13.6946  17.5981  21.1400

          k =-0.0000-0.0000 0.2474 (   277 PWs)   bands (ev):

     3.8328   9.9708   9.9708  10.3354  10.7436  11.6037  27.1787  28.2718

          k = 0.4949 0.3712 0.3712 (   285 PWs)   bands (ev):

     8.5613   8.7755   8.7755  11.5679  11.5679  16.4530  16.4530  17.4623

          k = 0.0000-0.1237 0.3712 (   279 PWs)   bands (ev):

     5.6001   9.6109   9.7282  10.6304  11.1113  11.7504  22.1494  25.6605

          k =-0.0000-0.2474 0.4949 (   281 PWs)   bands (ev):

     7.4061   9.2047   9.4710  10.9105  11.9506  12.4465  17.3035  23.9245

          k = 0.1237-0.1237 0.4949 (   276 PWs)   bands (ev):

     7.3300   9.0292   9.7526  10.7803  11.5586  12.6044  20.1715  20.2838

          k =-0.7423-0.2474-0.2474 (   280 PWs)   bands (ev):

     8.2906   8.7593   9.4553  11.0398  11.7482  14.6150  16.4606  19.4369

          k = 0.0000 0.0000 0.4949 (   277 PWs)   bands (ev):

     6.9627   9.2725  10.4141  10.4141  11.1486  12.1787  22.6680  22.6680

          k =-0.0000-0.1237 0.6186 (   266 PWs)   bands (ev):

     8.0511   8.5890  10.5032  10.7829  11.8473  13.9453  18.1827  20.7454

          k =-0.7423-0.1237-0.1237 (   267 PWs)   bands (ev):

     8.2784   8.2784  10.5070  11.6507  11.6507  16.9327  16.9327  17.6465

          k =-0.0000-0.0000 0.7423 (   265 PWs)   bands (ev):

     8.0144   8.1279  11.5932  11.5932  11.8178  16.0704  18.5579  18.5579

     the Fermi energy is     9.6546 ev

!    total energy              =     -55.78168761 Ry
     estimated scf accuracy    <       0.00000008 Ry
     smearing contrib. (-TS)   =      -0.00022870 Ry
     internal energy E=F+TS    =     -55.78145891 Ry

     The total energy is F=E-TS. E is the sum of the following terms:
     one-electron contribution =       2.34727132 Ry
     hartree contribution      =       7.99568832 Ry
     xc contribution           =     -26.36597917 Ry
     ewald contribution        =     -39.75843937 Ry

     total magnetization       =     2.88 Bohr mag/cell
     absolute magnetization    =     3.09 Bohr mag/cell

     convergence has been achieved in   9 iterations

     Forces acting on atoms (cartesian axes, Ry/au):

     atom    1 type  1   force =     0.00000000    0.00000000    0.00000000
     The non-local contrib.  to forces
     atom    1 type  1   force =    -0.00000000    0.00000000   -0.00000000
     The ionic contribution  to forces
     atom    1 type  1   force =    -0.00000000   -0.00000000   -0.00000000
     The local contribution  to forces
     atom    1 type  1   force =     0.00000000    0.00000000    0.00000000
     The core correction contribution to forces
     atom    1 type  1   force =    -0.00000000   -0.00000000    0.00000000
     The Hubbard contrib.    to forces
     atom    1 type  1   force =     0.00000000    0.00000000    0.00000000
     The SCF correction term to forces
     atom    1 type  1   force =     0.00000000    0.00000000    0.00000000

     Total force =     0.000000     Total SCF correction =     0.000000


     Computing stress (Cartesian axis) and pressure

          total   stress  (Ry/bohr**3)                   (kbar)     P=     -212.64
  -0.00144548  -0.00000000  -0.00000000         -212.64       -0.00       -0.00
  -0.00000000  -0.00144548  -0.00000000           -0.00     -212.64       -0.00
  -0.00000000  -0.00000000  -0.00144548           -0.00       -0.00     -212.64


     init_run     :      0.20s CPU      0.22s WALL (       1 calls)
     electrons    :      1.22s CPU      1.39s WALL (       1 calls)
     forces       :      0.02s CPU      0.02s WALL (       1 calls)
     stress       :      0.11s CPU      0.09s WALL (       1 calls)

     Called by init_run:
     wfcinit      :      0.03s CPU      0.03s WALL (       1 calls)
     potinit      :      0.09s CPU      0.09s WALL (       1 calls)
     hinit0       :      0.08s CPU      0.09s WALL (       1 calls)

     Called by electrons:
     c_bands      :      0.94s CPU      1.12s WALL (       9 calls)
     sum_band     :      0.18s CPU      0.18s WALL (       9 calls)
     v_of_rho     :      0.05s CPU      0.05s WALL (      10 calls)
     newd         :      0.04s CPU      0.03s WALL (      10 calls)
     mix_rho      :      0.01s CPU      0.01s WALL (       9 calls)

     Called by c_bands:
     init_us_2    :      0.02s CPU      0.03s WALL (     840 calls)
     init_us_2:cp :      0.02s CPU      0.02s WALL (     840 calls)
     cegterg      :      0.86s CPU      0.91s WALL (     360 calls)

     Called by *egterg:
     cdiaghg      :      0.13s CPU      0.14s WALL (    1539 calls)
     h_psi        :      0.59s CPU      0.63s WALL (    1579 calls)
     s_psi        :      0.01s CPU      0.01s WALL (    1579 calls)
     g_psi        :      0.00s CPU      0.00s WALL (    1179 calls)

     Called by h_psi:
     h_psi:calbec :      0.05s CPU      0.05s WALL (    1579 calls)
     vloc_psi     :      0.53s CPU      0.57s WALL (    1579 calls)
     add_vuspsi   :      0.01s CPU      0.01s WALL (    1579 calls)

     General routines
     calbec       :      0.06s CPU      0.07s WALL (    2139 calls)
     fft          :      0.05s CPU      0.05s WALL (     288 calls)
     ffts         :      0.09s CPU      0.09s WALL (      38 calls)
     fftw         :      0.56s CPU      0.59s WALL (   18826 calls)
     interpolate  :      0.09s CPU      0.09s WALL (      20 calls)

     Parallel routines

     PWSCF        :      1.74s CPU      2.00s WALL


   This run was terminated on:  16:42: 4   1Nov2023            

=------------------------------------------------------------------------------=
   JOB DONE.
=------------------------------------------------------------------------------=
