LAMMPS (29 Oct 2020)
Reading data file ...
  orthogonal box = (0.0000000 0.0000000 0.0000000) to (36.810000 36.810000 36.810000)
  1 by 1 by 1 MPI processor grid
  reading atoms ...
  2915 atoms
  read_data CPU = 0.002 seconds
Reading eam potential file /home/gridsan/epan1/3320_atomistic_shared/lammps/potentials/Ag_u3.eam with DATE: 2007-06-11
WARNING: No fixes defined, atoms won't move (../verlet.cpp:54)
Neighbor list info ...
  update every 1 steps, delay 10 steps, check yes
  max neighbors/atom: 2000, page size: 100000
  master list distance cutoff = 7.55
  ghost atom cutoff = 7.55
  binsize = 3.775, bins = 10 10 10
  1 neighbor lists, perpetual/occasional/extra = 1 0 0
  (1) pair eam, perpetual
      attributes: half, newton on
      pair build: half/bin/atomonly/newton
      stencil: half/bin/3d/newton
      bin: standard
Setting up Verlet run ...
  Unit style    : metal
  Current step  : 0
  Time step     : 0.001
Per MPI rank memory allocation (min/avg/max) = 3.918 | 3.918 | 3.918 Mbytes
Step PotEng Lx Ly Lz Press Pxx Pyy Pzz 
       0   -8306.7751        36.81        36.81        36.81   -51.202268   -51.202268   -51.202268   -51.202268 
Loop time of 9.53674e-07 on 1 procs for 0 steps with 2915 atoms

104.9% CPU use with 1 MPI tasks x no OpenMP threads

MPI task timing breakdown:
Section |  min time  |  avg time  |  max time  |%varavg| %total
---------------------------------------------------------------
Pair    | 0          | 0          | 0          |   0.0 |  0.00
Neigh   | 0          | 0          | 0          |   0.0 |  0.00
Comm    | 0          | 0          | 0          |   0.0 |  0.00
Output  | 0          | 0          | 0          |   0.0 |  0.00
Modify  | 0          | 0          | 0          |   0.0 |  0.00
Other   |            | 9.537e-07  |            |       |100.00

Nlocal:        2915.00 ave        2915 max        2915 min
Histogram: 1 0 0 0 0 0 0 0 0 0
Nghost:        4889.00 ave        4889 max        4889 min
Histogram: 1 0 0 0 0 0 0 0 0 0
Neighs:       125302.0 ave      125302 max      125302 min
Histogram: 1 0 0 0 0 0 0 0 0 0

Total # of neighbors = 125302
Ave neighs/atom = 42.985249
Neighbor list builds = 0
Dangerous builds = 0
WARNING: Using 'neigh_modify every 1 delay 0 check yes' setting during minimization (../min.cpp:187)
Setting up cg style minimization ...
  Unit style    : metal
  Current step  : 0
WARNING: Energy due to 1 extra global DOFs will be included in minimizer energies
Per MPI rank memory allocation (min/avg/max) = 5.043 | 5.043 | 5.043 Mbytes
Step PotEng Lx Ly Lz Press Pxx Pyy Pzz 
       0   -8306.7751        36.81        36.81        36.81   -51.202268   -51.202268   -51.202268   -51.202268 
       7   -8306.7814    36.809306    36.809306    36.809306   -1.1918079   -1.1918079   -1.1918079   -1.1918079 
Loop time of 0.049293 on 1 procs for 7 steps with 2915 atoms

97.6% CPU use with 1 MPI tasks x no OpenMP threads

Minimization stats:
  Stopping criterion = energy tolerance
  Energy initial, next-to-last, final = 
     -8306.77513117742  -8306.78139269383  -8306.78139287179
  Force two-norm initial, final = 4.7884409 0.18723265
  Force max component initial, final = 4.7818676 0.11130078
  Final line search alpha, max atom move = 0.0048277392 0.00053733114
  Iterations, force evaluations = 7 14

MPI task timing breakdown:
Section |  min time  |  avg time  |  max time  |%varavg| %total
---------------------------------------------------------------
Pair    | 0.047201   | 0.047201   | 0.047201   |   0.0 | 95.76
Neigh   | 0          | 0          | 0          |   0.0 |  0.00
Comm    | 0.00025654 | 0.00025654 | 0.00025654 |   0.0 |  0.52
Output  | 0          | 0          | 0          |   0.0 |  0.00
Modify  | 0          | 0          | 0          |   0.0 |  0.00
Other   |            | 0.001835   |            |       |  3.72

Nlocal:        2915.00 ave        2915 max        2915 min
Histogram: 1 0 0 0 0 0 0 0 0 0
Nghost:        4889.00 ave        4889 max        4889 min
Histogram: 1 0 0 0 0 0 0 0 0 0
Neighs:       125302.0 ave      125302 max      125302 min
Histogram: 1 0 0 0 0 0 0 0 0 0

Total # of neighbors = 125302
Ave neighs/atom = 42.985249
Neighbor list builds = 0
Dangerous builds = 0
Total energy (eV) = -8306.78139287179
Number of atoms = 2915
Lattice constant (Angstoms) = 36.8093055772208
Total wall time: 0:00:00
