Header of the LAMMPS data file 

4 atoms 
1 atom types

0.0 4.873684210526315  xlo xhi
0.0 4.873684210526315  ylo yhi
0.0 4.873684210526315  zlo zhi

Masses 

1  107.8682

Atoms # atomic 

1 1 0.00000 0.00000 0.00000 
2 1 0.00000 2.43684 2.43684 
3 1 2.43684 0.00000 2.43684 
4 1 2.43684 2.43684 0.00000 
