
     Program PWSCF v.7.2 starts on  1Nov2023 at 16:59:32 

     This program is part of the open-source Quantum ESPRESSO suite
     for quantum simulation of materials; please cite
         "P. Giannozzi et al., J. Phys.:Condens. Matter 21 395502 (2009);
         "P. Giannozzi et al., J. Phys.:Condens. Matter 29 465901 (2017);
         "P. Giannozzi et al., J. Chem. Phys. 152 154105 (2020);
          URL http://www.quantum-espresso.org", 
     in publications or presentations arising from this work. More details at
     http://www.quantum-espresso.org/quote

     Parallel version (MPI), running on     4 processors

     MPI processes distributed on     4 nodes
     186614 MiB available memory on the printing compute node when the environment starts

     Waiting for input...
     Reading input from standard input
Warning: card &CELL ignored
Warning: card / ignored

     Current dimensions of program PWSCF are:
     Max number of different atomic species (ntypx) = 10
     Max number of k-points (npk) =  40000
     Max angular momentum in pseudopotentials (lmaxx) =  4
     file Fe.pbe-nd-rrkjus.UPF: wavefunction(s)  4S renormalized
     Message from routine setup:
     using ibrav=0 with symmetry is DISCOURAGED, use correct ibrav instead

     R & G space division:  proc/nbgrp/npool/nimage =       4
     Subspace diagonalization in iterative solution of the eigenvalue problem:
     a serial algorithm will be used


     Parallelization info
     --------------------
     sticks:   dense  smooth     PW     G-vecs:    dense   smooth      PW
     Min         164      83     32                 2690      951     239
     Max         165      84     33                 2691      952     242
     Sum         657     333    129                10761     3805     959

     Using Slab Decomposition



     bravais-lattice index     =            0
     lattice parameter (alat)  =       6.0552  a.u.
     unit-cell volume          =     170.9117 (a.u.)^3
     number of atoms/cell      =            1
     number of atomic types    =            1
     number of electrons       =         8.00
     number of Kohn-Sham states=            8
     kinetic-energy cutoff     =      30.0000  Ry
     charge density cutoff     =     240.0000  Ry
     scf convergence threshold =      1.0E-07
     mixing beta               =       0.5000
     number of iterations used =            8  plain     mixing
     Exchange-correlation=  SLA  PW   PBE  PBE
                           (   1   4   3   4   0   0   0)

     celldm(1)=   6.055238  celldm(2)=   0.000000  celldm(3)=   0.000000
     celldm(4)=   0.000000  celldm(5)=   0.000000  celldm(6)=   0.000000

     crystal axes: (cart. coord. in units of alat)
               a(1) = (  -0.577350   0.577350   0.577350 )  
               a(2) = (   0.577350  -0.577350   0.577350 )  
               a(3) = (   0.577350   0.577350  -0.577350 )  

     reciprocal axes: (cart. coord. in units 2 pi/alat)
               b(1) = (  0.000000  0.866025  0.866025 )  
               b(2) = (  0.866025  0.000000  0.866025 )  
               b(3) = (  0.866025  0.866025  0.000000 )  


     PseudoPot. # 1 for Fe read from file:
     /home/gridsan/epan1/labutil/lab3_samples/pseudopotentials/Fe.pbe-nd-rrkjus.UPF
     MD5 check sum: 398036227a04b607635f6f5e8dfd8242
     Pseudo is Ultrasoft + core correction, Zval =  8.0
     Generated by new atomic code, or converted to UPF format
     Using radial grid of  957 points,  6 beta functions with: 
                l(1) =   0
                l(2) =   0
                l(3) =   1
                l(4) =   1
                l(5) =   2
                l(6) =   2
     Q(r) pseudized with 0 coefficients 


     atomic species   valence    mass     pseudopotential
        Fe             8.00    55.84500     Fe( 1.00)

     Starting magnetic structure 
     atomic species   magnetization
        Fe           0.700

     48 Sym. Ops., with inversion, found



   Cartesian axes

     site n.     atom                  positions (alat units)
         1           Fe  tau(   1) = (   0.0000000   0.0000000   0.0000000  )

     number of k points=    47  Methfessel-Paxton smearing, width (Ry)=  0.0200
                       cart. coord. in units 2pi/alat
        k(    1) = (   0.0000000   0.0000000   0.0000000), wk =   0.0010000
        k(    2) = (   0.0866025   0.0866025   0.0000000), wk =   0.0120000
        k(    3) = (   0.1732051   0.1732051   0.0000000), wk =   0.0120000
        k(    4) = (   0.2598076   0.2598076   0.0000000), wk =   0.0120000
        k(    5) = (   0.3464102   0.3464102   0.0000000), wk =   0.0120000
        k(    6) = (  -0.4330127  -0.4330127   0.0000000), wk =   0.0060000
        k(    7) = (   0.1732051   0.0866025   0.0866025), wk =   0.0240000
        k(    8) = (   0.2598076   0.1732051   0.0866025), wk =   0.0480000
        k(    9) = (   0.3464102   0.2598076   0.0866025), wk =   0.0480000
        k(   10) = (   0.4330127   0.3464102   0.0866025), wk =   0.0480000
        k(   11) = (   0.3464102   0.1732051   0.1732051), wk =   0.0240000
        k(   12) = (   0.4330127   0.2598076   0.1732051), wk =   0.0480000
        k(   13) = (   0.5196152   0.3464102   0.1732051), wk =   0.0240000
        k(   14) = (   0.5196152   0.2598076   0.2598076), wk =   0.0240000
        k(   15) = (   0.1732051   0.1732051   0.1732051), wk =   0.0080000
        k(   16) = (   0.2598076   0.2598076   0.1732051), wk =   0.0240000
        k(   17) = (   0.3464102   0.3464102   0.1732051), wk =   0.0240000
        k(   18) = (   0.4330127   0.4330127   0.1732051), wk =   0.0120000
        k(   19) = (   0.0000000   0.0000000   0.1732051), wk =   0.0060000
        k(   20) = (   0.3464102   0.2598076   0.2598076), wk =   0.0240000
        k(   21) = (   0.4330127   0.3464102   0.2598076), wk =   0.0480000
        k(   22) = (   0.0000000  -0.0866025   0.2598076), wk =   0.0240000
        k(   23) = (   0.5196152   0.3464102   0.3464102), wk =   0.0080000
        k(   24) = (   0.0000000  -0.1732051   0.3464102), wk =   0.0240000
        k(   25) = (   0.0866025  -0.0866025   0.3464102), wk =   0.0240000
        k(   26) = (   0.0000000  -0.2598076   0.4330127), wk =   0.0240000
        k(   27) = (   0.0866025  -0.1732051   0.4330127), wk =   0.0480000
        k(   28) = (  -0.8660254  -0.3464102  -0.3464102), wk =   0.0120000
        k(   29) = (  -0.7794229  -0.2598076  -0.3464102), wk =   0.0480000
        k(   30) = (  -0.6928203  -0.1732051  -0.3464102), wk =   0.0240000
        k(   31) = (  -0.6928203  -0.2598076  -0.2598076), wk =   0.0240000
        k(   32) = (   0.3464102   0.3464102   0.3464102), wk =   0.0080000
        k(   33) = (   0.4330127   0.4330127   0.3464102), wk =   0.0120000
        k(   34) = (   0.0000000   0.0000000   0.3464102), wk =   0.0060000
        k(   35) = (   0.0000000  -0.0866025   0.4330127), wk =   0.0240000
        k(   36) = (   0.0000000  -0.1732051   0.5196152), wk =   0.0240000
        k(   37) = (   0.0866025  -0.0866025   0.5196152), wk =   0.0240000
        k(   38) = (  -0.8660254  -0.2598076  -0.2598076), wk =   0.0120000
        k(   39) = (  -0.7794229  -0.1732051  -0.2598076), wk =   0.0480000
        k(   40) = (  -0.6928203  -0.1732051  -0.1732051), wk =   0.0080000
        k(   41) = (   0.0000000   0.0000000   0.5196152), wk =   0.0060000
        k(   42) = (   0.0000000  -0.0866025   0.6062178), wk =   0.0240000
        k(   43) = (  -0.8660254  -0.1732051  -0.1732051), wk =   0.0120000
        k(   44) = (  -0.7794229  -0.0866025  -0.1732051), wk =   0.0240000
        k(   45) = (   0.0000000   0.0000000   0.6928203), wk =   0.0060000
        k(   46) = (  -0.8660254  -0.0866025  -0.0866025), wk =   0.0120000
        k(   47) = (  -0.8660254  -0.8660254  -0.8660254), wk =   0.0010000

     Dense  grid:    10761 G-vectors     FFT dimensions: (  30,  30,  30)

     Smooth grid:     3805 G-vectors     FFT dimensions: (  24,  24,  24)

     Estimated max dynamical RAM per process >      13.65 MB

     Estimated total dynamical RAM >      54.61 MB

     Check: negative core charge=   -0.000005
     Generating pointlists ...
     new r_m :   0.4125 (alat units)  2.4978 (a.u.) for type    1

     Initial potential from superposition of free atoms

     starting charge       7.9994, renormalised to       8.0000
     Starting wfcs are    6 randomized atomic wfcs +    2 random wfcs

     total cpu time spent up to now is        1.7 secs

     Self-consistent Calculation

     iteration #  1     ecut=    30.00 Ry     beta= 0.50
     Davidson diagonalization with overlap
     ethr =  1.00E-02,  avg # of iterations =  5.0

     total cpu time spent up to now is        3.4 secs

     total energy              =     -55.43851731 Ry
     estimated scf accuracy    <       0.47444159 Ry

     total magnetization       =     4.12 Bohr mag/cell
     absolute magnetization    =     4.12 Bohr mag/cell

     iteration #  2     ecut=    30.00 Ry     beta= 0.50
     Davidson diagonalization with overlap
     ethr =  5.93E-03,  avg # of iterations =  2.0

     total cpu time spent up to now is        4.9 secs

     total energy              =     -55.58705835 Ry
     estimated scf accuracy    <       0.46634115 Ry

     total magnetization       =     2.99 Bohr mag/cell
     absolute magnetization    =     3.01 Bohr mag/cell

     iteration #  3     ecut=    30.00 Ry     beta= 0.50
     Davidson diagonalization with overlap
     ethr =  5.83E-03,  avg # of iterations =  1.0

     total cpu time spent up to now is        6.3 secs

     total energy              =     -55.65644232 Ry
     estimated scf accuracy    <       0.00689090 Ry

     total magnetization       =     3.40 Bohr mag/cell
     absolute magnetization    =     3.46 Bohr mag/cell

     iteration #  4     ecut=    30.00 Ry     beta= 0.50
     Davidson diagonalization with overlap
     ethr =  8.61E-05,  avg # of iterations =  3.9

     total cpu time spent up to now is        7.5 secs

     total energy              =     -55.66165920 Ry
     estimated scf accuracy    <       0.00321248 Ry

     total magnetization       =     3.29 Bohr mag/cell
     absolute magnetization    =     3.49 Bohr mag/cell

     iteration #  5     ecut=    30.00 Ry     beta= 0.50
     Davidson diagonalization with overlap
     ethr =  4.02E-05,  avg # of iterations =  2.1

     total cpu time spent up to now is        9.0 secs

     total energy              =     -55.66293173 Ry
     estimated scf accuracy    <       0.00054680 Ry

     total magnetization       =     3.19 Bohr mag/cell
     absolute magnetization    =     3.44 Bohr mag/cell

     iteration #  6     ecut=    30.00 Ry     beta= 0.50
     Davidson diagonalization with overlap
     ethr =  6.84E-06,  avg # of iterations =  3.5

     total cpu time spent up to now is       11.0 secs

     total energy              =     -55.66312981 Ry
     estimated scf accuracy    <       0.00027978 Ry

     total magnetization       =     3.20 Bohr mag/cell
     absolute magnetization    =     3.48 Bohr mag/cell

     iteration #  7     ecut=    30.00 Ry     beta= 0.50
     Davidson diagonalization with overlap
     ethr =  3.50E-06,  avg # of iterations =  1.9

     total cpu time spent up to now is       12.1 secs

     total energy              =     -55.66321353 Ry
     estimated scf accuracy    <       0.00000194 Ry

     total magnetization       =     3.19 Bohr mag/cell
     absolute magnetization    =     3.48 Bohr mag/cell

     iteration #  8     ecut=    30.00 Ry     beta= 0.50
     Davidson diagonalization with overlap
     ethr =  2.42E-08,  avg # of iterations =  6.0

     total cpu time spent up to now is       13.9 secs

     total energy              =     -55.66322179 Ry
     estimated scf accuracy    <       0.00000036 Ry

     total magnetization       =     3.19 Bohr mag/cell
     absolute magnetization    =     3.48 Bohr mag/cell

     iteration #  9     ecut=    30.00 Ry     beta= 0.50
     Davidson diagonalization with overlap
     ethr =  4.50E-09,  avg # of iterations =  3.7

     total cpu time spent up to now is       15.7 secs

     total energy              =     -55.66322242 Ry
     estimated scf accuracy    <       0.00000051 Ry

     total magnetization       =     3.19 Bohr mag/cell
     absolute magnetization    =     3.48 Bohr mag/cell

     iteration # 10     ecut=    30.00 Ry     beta= 0.50
     Davidson diagonalization with overlap
     ethr =  4.50E-09,  avg # of iterations =  1.3

     Magnetic moment per site  (integrated on atomic sphere of radius R)
     atom   1 (R=0.413)  charge=  6.9384  magn=  3.3240

     total cpu time spent up to now is       16.8 secs

     End of self-consistent calculation

 ------ SPIN UP ------------


          k = 0.0000 0.0000 0.0000 (   459 PWs)   bands (ev):

    -0.8997   1.4916   1.4916   1.4916   1.7169   1.7169  20.1816  20.1816

          k = 0.0866 0.0866 0.0000 (   471 PWs)   bands (ev):

    -0.6709   1.4669   1.4948   1.5527   1.6968   1.7180  17.7420  18.9661

          k = 0.1732 0.1732 0.0000 (   475 PWs)   bands (ev):

    -0.0255   1.4026   1.5066   1.6865   1.7188   1.7229  14.1920  17.2723

          k = 0.2598 0.2598 0.0000 (   475 PWs)   bands (ev):

     0.6922   1.3243   1.6810   1.7311   1.8970   1.9372  10.8971  15.8866

          k = 0.3464 0.3464 0.0000 (   476 PWs)   bands (ev):

     0.8486   1.2614   1.7387   1.7395   2.1256   3.2484   7.9836  14.9816

          k =-0.4330-0.4330 0.0000 (   476 PWs)   bands (ev):

     0.8439   1.2376   1.7430   1.7564   2.2007   4.8316   5.9332  14.6655

          k = 0.1732 0.0866 0.0866 (   475 PWs)   bands (ev):

    -0.2298   1.4421   1.4596   1.6716   1.6867   1.7302  15.8960  16.2633

          k = 0.2598 0.1732 0.0866 (   476 PWs)   bands (ev):

     0.5170   1.3713   1.4745   1.6846   1.7519   1.9655  12.6312  14.7478

          k = 0.3464 0.2598 0.0866 (   474 PWs)   bands (ev):

     0.9086   1.3002   1.6472   1.7448   1.9072   2.7410   9.5348  13.7638

          k = 0.4330 0.3464 0.0866 (   475 PWs)   bands (ev):

     0.9128   1.2594   1.6975   1.7537   2.0948   4.4044   6.8638  13.2431

          k = 0.3464 0.1732 0.1732 (   481 PWs)   bands (ev):

     1.0144   1.3249   1.4865   1.7033   1.8088   2.6694  11.2105  11.8206

          k = 0.4330 0.2598 0.1732 (   476 PWs)   bands (ev):

     1.0819   1.2915   1.5674   1.7534   1.9165   4.0897   8.5862  10.8421

          k = 0.5196 0.3464 0.1732 (   474 PWs)   bands (ev):

     1.0615   1.2874   1.5815   1.7706   1.9834   5.8894   6.3354  10.5782

          k = 0.5196 0.2598 0.2598 (   475 PWs)   bands (ev):

     1.1702   1.3217   1.4617   1.8155   1.8995   5.9030   7.9497   8.3523

          k = 0.1732 0.1732 0.1732 (   477 PWs)   bands (ev):

     0.3700   1.3796   1.3796   1.7102   1.7102   1.9690  14.0994  14.8295

          k = 0.2598 0.2598 0.1732 (   477 PWs)   bands (ev):

     0.9947   1.3071   1.4427   1.7247   1.7332   2.5651  11.2418  13.2402

          k = 0.3464 0.3464 0.1732 (   474 PWs)   bands (ev):

     1.0411   1.2587   1.7431   1.7472   1.7930   3.8793   8.3849  12.4478

          k = 0.4330 0.4330 0.1732 (   480 PWs)   bands (ev):

     1.0152   1.2416   1.7454   1.7646   1.9118   5.5895   6.1910  12.1790

          k = 0.0000 0.0000 0.1732 (   470 PWs)   bands (ev):

    -0.4457   1.5052   1.5052   1.5534   1.6421   1.7472  17.6549  17.6554

          k = 0.3464 0.2598 0.2598 (   480 PWs)   bands (ev):

     1.1950   1.2959   1.5066   1.7431   1.7591   3.7339  10.0119  10.7359

          k = 0.4330 0.3464 0.2598 (   482 PWs)   bands (ev):

     1.1704   1.2887   1.6161   1.7663   1.7921   5.4726   7.6800   9.9443

          k = 0.0000-0.0866 0.2598 (   474 PWs)   bands (ev):

     0.1813   1.4613   1.4956   1.6203   1.7059   1.7931  14.3720  16.0695

          k = 0.5196 0.3464 0.3464 (   475 PWs)   bands (ev):

     1.1979   1.4420   1.4420   1.7857   1.7857   7.2168   7.6264   7.6264

          k = 0.0000-0.1732 0.3464 (   474 PWs)   bands (ev):

     0.8277   1.3898   1.4984   1.7175   1.9262   2.1447  11.0982  14.7983

          k = 0.0866-0.0866 0.3464 (   466 PWs)   bands (ev):

     0.8038   1.3878   1.5088   1.6329   1.8286   2.0918  12.8184  13.2667

          k = 0.0000-0.2598 0.4330 (   474 PWs)   bands (ev):

     0.9313   1.3317   1.5716   1.7359   2.1176   3.5179   8.1866  13.9668

          k = 0.0866-0.1732 0.4330 (   475 PWs)   bands (ev):

     1.0586   1.3334   1.4957   1.7158   1.9786   3.1479   9.9345  12.1248

          k =-0.8660-0.3464-0.3464 (   472 PWs)   bands (ev):

     0.9157   1.3096   1.6055   1.7309   2.1943   5.1810   6.0573  13.6752

          k =-0.7794-0.2598-0.3464 (   470 PWs)   bands (ev):

     1.0291   1.3605   1.4713   1.7439   2.1139   4.9079   7.2549  11.6104

          k =-0.6928-0.1732-0.3464 (   468 PWs)   bands (ev):

     1.1943   1.2304   1.4515   1.8046   2.0111   4.7215   9.0100   9.4917

          k =-0.6928-0.2598-0.2598 (   474 PWs)   bands (ev):

     1.1719   1.3318   1.3398   1.8611   2.0246   6.7146   6.8100   9.0241

          k = 0.3464 0.3464 0.3464 (   477 PWs)   bands (ev):

     1.2964   1.2964   1.5131   1.7514   1.7514   5.2747   9.1007  10.0693

          k = 0.4330 0.4330 0.3464 (   474 PWs)   bands (ev):

     1.3020   1.3236   1.5150   1.7493   1.7577   7.1052   7.3762   9.2992

          k = 0.0000 0.0000 0.3464 (   470 PWs)   bands (ev):

     0.7050   1.4383   1.5792   1.5792   1.7149   1.9817  14.5078  14.5079

          k = 0.0000-0.0866 0.4330 (   469 PWs)   bands (ev):

     1.0778   1.3138   1.5662   1.6767   1.9010   2.6979  11.6664  13.2528

          k = 0.0000-0.1732 0.5196 (   468 PWs)   bands (ev):

     1.0692   1.3091   1.5256   1.7240   2.0970   4.2090   8.7921  12.4332

          k = 0.0866-0.0866 0.5196 (   473 PWs)   bands (ev):

     1.1581   1.1834   1.5922   1.7752   2.0104   3.9762  10.5280  10.9282

          k =-0.8660-0.2598-0.2598 (   472 PWs)   bands (ev):

     1.0300   1.3264   1.5089   1.7320   2.1772   6.0863   6.4737  12.1458

          k =-0.7794-0.1732-0.2598 (   473 PWs)   bands (ev):

     1.0847   1.1936   1.5568   1.8539   2.1106   5.7951   8.0594  10.2428

          k =-0.6928-0.1732-0.1732 (   469 PWs)   bands (ev):

     1.1207   1.1207   1.5372   2.0247   2.0247   7.6249   7.9270   7.9270

          k = 0.0000 0.0000 0.5196 (   462 PWs)   bands (ev):

     1.1283   1.1710   1.7605   1.7605   1.9134   3.7192  11.9802  11.9802

          k = 0.0000-0.0866 0.6062 (   470 PWs)   bands (ev):

     1.0495   1.0897   1.7878   1.8537   2.0726   5.2813   9.7310  11.1400

          k =-0.8660-0.1732-0.1732 (   470 PWs)   bands (ev):

     1.0013   1.0725   1.7814   1.8844   2.1561   7.2862   7.3472  10.8435

          k =-0.7794-0.0866-0.1732 (   472 PWs)   bands (ev):

     0.9878   1.0068   1.8179   2.0121   2.1117   7.0497   9.0907   9.3517

          k = 0.0000 0.0000 0.6928 (   482 PWs)   bands (ev):

     0.9429   0.9585   2.0056   2.0056   2.0722   6.7806  10.2743  10.2744

          k =-0.8660-0.0866-0.0866 (   478 PWs)   bands (ev):

     0.9003   0.9091   2.0294   2.0628   2.1390   8.5449   8.7723   9.9661

          k =-0.8660-0.8660-0.8660 (   490 PWs)   bands (ev):

     0.8534   0.8534   2.1325   2.1325   2.1325   9.6522   9.6522  11.5083

 ------ SPIN DOWN ----------


          k = 0.0000 0.0000 0.0000 (   459 PWs)   bands (ev):

    -0.8118   4.6747   4.6747   4.6747   5.5241   5.5241  20.9265  20.9269

          k = 0.0866 0.0866 0.0000 (   471 PWs)   bands (ev):

    -0.5814   4.6309   4.6654   4.7576   5.4818   5.5269  18.2104  19.7574

          k = 0.1732 0.1732 0.0000 (   475 PWs)   bands (ev):

     0.0955   4.5178   4.6134   4.9869   5.4090   5.5385  14.7237  18.0387

          k = 0.2598 0.2598 0.0000 (   475 PWs)   bands (ev):

     1.1582   4.3814   4.5124   5.2990   5.3880   5.5597  11.5605  16.5437

          k = 0.3464 0.3464 0.0000 (   476 PWs)   bands (ev):

     2.3828   4.2734   4.5092   5.4087   5.5803   5.5824   8.9449  15.5395

          k =-0.4330-0.4330 0.0000 (   476 PWs)   bands (ev):

     3.0043   4.2326   4.7148   5.4170   5.5925   5.6963   7.6460  15.1813

          k = 0.1732 0.0866 0.0866 (   475 PWs)   bands (ev):

    -0.1273   4.5736   4.6040   4.9252   5.4160   5.5415  16.5382  16.5927

          k = 0.2598 0.1732 0.0866 (   476 PWs)   bands (ev):

     0.7479   4.4487   4.5111   5.2145   5.3634   5.5666  13.2160  15.2353

          k = 0.3464 0.2598 0.0866 (   474 PWs)   bands (ev):

     1.9290   4.3205   4.4172   5.3766   5.5282   5.6191  10.2816  14.2534

          k = 0.4330 0.3464 0.0866 (   475 PWs)   bands (ev):

     2.9675   4.2453   4.4776   5.4063   5.5970   5.9272   8.0836  13.7125

          k = 0.3464 0.1732 0.1732 (   481 PWs)   bands (ev):

     1.7623   4.3442   4.3786   5.3452   5.5168   5.6545  11.8491  12.3522

          k = 0.4330 0.2598 0.1732 (   476 PWs)   bands (ev):

     2.9026   4.2214   4.3134   5.3848   5.5620   6.1270   9.3793  11.4179

          k = 0.5196 0.3464 0.1732 (   474 PWs)   bands (ev):

     3.4628   4.2187   4.2808   5.4129   5.5682   6.8204   7.7634  11.1459

          k = 0.5196 0.2598 0.2598 (   475 PWs)   bands (ev):

     3.6964   4.1226   4.2126   5.4411   5.5259   7.1649   8.7789   9.1186

          k = 0.1732 0.1732 0.1732 (   477 PWs)   bands (ev):

     0.5339   4.4603   4.4603   5.2134   5.4840   5.4840  14.8450  15.1752

          k = 0.2598 0.2598 0.1732 (   477 PWs)   bands (ev):

     1.5676   4.3116   4.3369   5.4581   5.5445   5.5799  11.8683  13.7939

          k = 0.3464 0.3464 0.1732 (   474 PWs)   bands (ev):

     2.7420   4.2057   4.2749   5.4672   5.5837   6.0244   9.2149  12.9960

          k = 0.4330 0.4330 0.1732 (   480 PWs)   bands (ev):

     3.3151   4.1674   4.3469   5.4754   5.5973   6.5344   7.7037  12.7127

          k = 0.0000 0.0000 0.1732 (   470 PWs)   bands (ev):

    -0.3526   4.6684   4.6684   4.7631   5.3814   5.5725  18.2672  18.2684

          k = 0.3464 0.2598 0.2598 (   480 PWs)   bands (ev):

     2.6438   4.1814   4.2081   5.4942   5.5709   6.0699  10.6535  11.3115

          k = 0.4330 0.3464 0.2598 (   482 PWs)   bands (ev):

     3.5292   4.1145   4.1617   5.5177   5.5882   6.8783   8.5531  10.5496

          k = 0.0000-0.0866 0.2598 (   474 PWs)   bands (ev):

     0.3186   4.5891   4.6426   4.9689   5.2541   5.6026  14.9119  16.6821

          k = 0.5196 0.3464 0.3464 (   475 PWs)   bands (ev):

     3.8946   4.0784   4.0784   5.5622   5.5622   8.2293   8.4402   8.4402

          k = 0.0000-0.1732 0.3464 (   474 PWs)   bands (ev):

     1.3690   4.4649   4.5318   5.2385   5.2821   5.6246  11.7471  15.3808

          k = 0.0866-0.0866 0.3464 (   466 PWs)   bands (ev):

     1.1732   4.5581   4.5719   5.1437   5.1959   5.6393  13.4361  13.7583

          k = 0.0000-0.2598 0.4330 (   474 PWs)   bands (ev):

     2.5706   4.3648   4.4435   5.3046   5.5682   5.7268   9.0970  14.4924

          k = 0.0866-0.1732 0.4330 (   475 PWs)   bands (ev):

     2.3098   4.3920   4.4988   5.1900   5.4666   5.7677  10.6324  12.6691

          k =-0.8660-0.3464-0.3464 (   472 PWs)   bands (ev):

     3.1792   4.3270   4.4875   5.3173   5.6870   6.0153   7.6819  14.1709

          k =-0.7794-0.2598-0.3464 (   470 PWs)   bands (ev):

     3.2924   4.2973   4.4133   5.2556   5.5908   6.3365   8.3071  12.1376

          k =-0.6928-0.1732-0.3464 (   468 PWs)   bands (ev):

     3.3156   4.2250   4.4419   5.2609   5.5051   6.4027   9.7291  10.1728

          k =-0.6928-0.2598-0.2598 (   474 PWs)   bands (ev):

     3.8484   4.1626   4.2948   5.3328   5.5044   7.5659   7.9987   9.7097

          k = 0.3464 0.3464 0.3464 (   477 PWs)   bands (ev):

     3.5437   4.0857   4.0857   5.5787   5.5787   6.8253   9.7283  10.6741

          k = 0.4330 0.4330 0.3464 (   474 PWs)   bands (ev):

     3.9165   4.0551   4.0690   5.5848   5.6050   8.1155   8.2037   9.9301

          k = 0.0000 0.0000 0.3464 (   470 PWs)   bands (ev):

     0.9694   4.7172   4.7172   4.9889   4.9948   5.6507  15.0914  15.0915

          k = 0.0000-0.0866 0.4330 (   469 PWs)   bands (ev):

     1.9699   4.5865   4.6913   4.9717   5.2476   5.7017  12.2735  13.7985

          k = 0.0000-0.1732 0.5196 (   468 PWs)   bands (ev):

     3.0661   4.3360   4.6249   5.1014   5.5371   6.0369   9.5707  12.9204

          k = 0.0866-0.0866 0.5196 (   473 PWs)   bands (ev):

     2.9626   4.3758   4.7285   5.0573   5.4261   5.9731  11.1516  11.4981

          k =-0.8660-0.2598-0.2598 (   472 PWs)   bands (ev):

     3.6207   4.1974   4.5971   5.1105   5.6624   6.8781   7.8282  12.6017

          k =-0.7794-0.1732-0.2598 (   473 PWs)   bands (ev):

     3.7460   4.1645   4.6349   5.1842   5.5590   6.9506   8.8588  10.8055

          k =-0.6928-0.1732-0.1732 (   469 PWs)   bands (ev):

     4.0823   4.0823   4.4841   5.4296   5.4296   8.5614   8.6232   8.6234

          k = 0.0000 0.0000 0.5196 (   462 PWs)   bands (ev):

     2.8249   4.4753   4.9402   4.9402   5.2809   5.8482  12.4700  12.4700

          k = 0.0000-0.0866 0.6062 (   470 PWs)   bands (ev):

     3.5883   4.2176   4.9997   5.0924   5.5024   6.5096  10.3145  11.5503

          k =-0.8660-0.1732-0.1732 (   470 PWs)   bands (ev):

     3.9669   4.0075   4.9958   5.1196   5.6320   7.9683   8.2228  11.2104

          k =-0.7794-0.0866-0.1732 (   472 PWs)   bands (ev):

     3.9134   4.0510   5.0021   5.3661   5.5533   7.8141   9.6488   9.8336

          k = 0.0000 0.0000 0.6928 (   482 PWs)   bands (ev):

     3.8285   4.0452   5.3407   5.3407   5.5108   7.4910  10.5711  10.5711

          k =-0.8660-0.0866-0.0866 (   478 PWs)   bands (ev):

     3.9091   3.9372   5.4059   5.4441   5.6076   9.0536   9.1404  10.1981

          k =-0.8660-0.8660-0.8660 (   490 PWs)   bands (ev):

     3.8793   3.8793   5.5983   5.5983   5.5983   9.8049   9.8049  12.7135

     the Fermi energy is     4.5035 ev

!    total energy              =     -55.66322255 Ry
     estimated scf accuracy    <       0.00000005 Ry
     smearing contrib. (-TS)   =      -0.00091820 Ry
     internal energy E=F+TS    =     -55.66230435 Ry

     The total energy is F=E-TS. E is the sum of the following terms:
     one-electron contribution =      -7.27984054 Ry
     hartree contribution      =      11.16926972 Ry
     xc contribution           =     -26.24060865 Ry
     ewald contribution        =     -33.31112488 Ry

     total magnetization       =     3.19 Bohr mag/cell
     absolute magnetization    =     3.48 Bohr mag/cell

     convergence has been achieved in  10 iterations

     Forces acting on atoms (cartesian axes, Ry/au):

     atom    1 type  1   force =     0.00000000    0.00000000    0.00000000
     The non-local contrib.  to forces
     atom    1 type  1   force =     0.00000000    0.00000000   -0.00000000
     The ionic contribution  to forces
     atom    1 type  1   force =    -0.00000000   -0.00000000   -0.00000000
     The local contribution  to forces
     atom    1 type  1   force =     0.00000000   -0.00000000    0.00000000
     The core correction contribution to forces
     atom    1 type  1   force =     0.00000000    0.00000000    0.00000000
     The Hubbard contrib.    to forces
     atom    1 type  1   force =     0.00000000    0.00000000    0.00000000
     The SCF correction term to forces
     atom    1 type  1   force =     0.00000000    0.00000000   -0.00000000

     Total force =     0.000000     Total SCF correction =     0.000000


     Computing stress (Cartesian axis) and pressure

          total   stress  (Ry/bohr**3)                   (kbar)     P=     -217.88
  -0.00148112   0.00000000  -0.00000000         -217.88        0.00       -0.00
   0.00000000  -0.00148112  -0.00000000            0.00     -217.88       -0.00
  -0.00000000  -0.00000000  -0.00148112           -0.00       -0.00     -217.88


     init_run     :      0.65s CPU      1.01s WALL (       1 calls)
     electrons    :      9.43s CPU     15.18s WALL (       1 calls)
     forces       :      0.11s CPU      0.11s WALL (       1 calls)
     stress       :      0.44s CPU      0.67s WALL (       1 calls)

     Called by init_run:
     wfcinit      :      0.25s CPU      0.51s WALL (       1 calls)
     potinit      :      0.15s CPU      0.23s WALL (       1 calls)
     hinit0       :      0.22s CPU      0.22s WALL (       1 calls)

     Called by electrons:
     c_bands      :      7.72s CPU     12.83s WALL (      10 calls)
     sum_band     :      1.23s CPU      1.65s WALL (      10 calls)
     v_of_rho     :      0.24s CPU      0.33s WALL (      11 calls)
     newd         :      0.13s CPU      0.17s WALL (      11 calls)
     mix_rho      :      0.08s CPU      0.10s WALL (      10 calls)

     Called by c_bands:
     init_us_2    :      0.13s CPU      0.20s WALL (    2162 calls)
     init_us_2:cp :      0.13s CPU      0.20s WALL (    2162 calls)
     cegterg      :      5.93s CPU      6.88s WALL (     940 calls)

     Called by *egterg:
     cdiaghg      :      0.47s CPU      0.53s WALL (    3799 calls)
     h_psi        :      4.83s CPU      5.75s WALL (    3893 calls)
     s_psi        :      0.06s CPU      0.10s WALL (    3893 calls)
     g_psi        :      0.01s CPU      0.01s WALL (    2859 calls)

     Called by h_psi:
     h_psi:calbec :      0.30s CPU      0.38s WALL (    3893 calls)
     vloc_psi     :      4.45s CPU      5.29s WALL (    3893 calls)
     add_vuspsi   :      0.05s CPU      0.05s WALL (    3893 calls)

     General routines
     calbec       :      0.53s CPU      0.68s WALL (    5303 calls)
     fft          :      0.29s CPU      0.33s WALL (     313 calls)
     ffts         :      0.13s CPU      0.21s WALL (      42 calls)
     fftw         :      4.93s CPU      5.90s WALL (   48770 calls)
     interpolate  :      0.14s CPU      0.22s WALL (      22 calls)

     Parallel routines

     PWSCF        :     10.96s CPU     17.63s WALL


   This run was terminated on:  16:59:50   1Nov2023            

=------------------------------------------------------------------------------=
   JOB DONE.
=------------------------------------------------------------------------------=
