
     Program PWSCF v.7.2 starts on  1Nov2023 at 17: 6:57 

     This program is part of the open-source Quantum ESPRESSO suite
     for quantum simulation of materials; please cite
         "P. Giannozzi et al., J. Phys.:Condens. Matter 21 395502 (2009);
         "P. Giannozzi et al., J. Phys.:Condens. Matter 29 465901 (2017);
         "P. Giannozzi et al., J. Chem. Phys. 152 154105 (2020);
          URL http://www.quantum-espresso.org", 
     in publications or presentations arising from this work. More details at
     http://www.quantum-espresso.org/quote

     Parallel version (MPI), running on     8 processors

     MPI processes distributed on     8 nodes
     186315 MiB available memory on the printing compute node when the environment starts

     Waiting for input...
     Reading input from standard input

     Current dimensions of program PWSCF are:
     Max number of different atomic species (ntypx) = 10
     Max number of k-points (npk) =  40000
     Max angular momentum in pseudopotentials (lmaxx) =  4

     File /home/gridsan/epan1/labutil/lab3_samples/problem1/Lab3/Fe_hcp_a_2.5_ecut_30_nk_2/pwscf.update deleted, as requested

     File /home/gridsan/epan1/labutil/lab3_samples/problem1/Lab3/Fe_hcp_a_2.5_ecut_30_nk_2/pwscf.bfgs deleted, as requested
     file Fe.pbe-nd-rrkjus.UPF: wavefunction(s)  4S renormalized
     Message from routine find_sym:
     Not a group! Trying with lower acceptance parameter...
     Message from routine find_sym:
     Symmetry operations form a group
     Message from routine setup:
     using ibrav=0 with symmetry is DISCOURAGED, use correct ibrav instead

     R & G space division:  proc/nbgrp/npool/nimage =       8
     Subspace diagonalization in iterative solution of the eigenvalue problem:
     a serial algorithm will be used


     Parallelization info
     --------------------
     sticks:   dense  smooth     PW     G-vecs:    dense   smooth      PW
     Min          45      23      7                 1167      417      77
     Max          46      24      9                 1174      422      80
     Sum         367     187     61                 9369     3357     627

     Using Slab Decomposition



     bravais-lattice index     =            0
     lattice parameter (alat)  =       4.7243  a.u.
     unit-cell volume          =     149.1185 (a.u.)^3
     number of atoms/cell      =            2
     number of atomic types    =            1
     number of electrons       =        16.00
     number of Kohn-Sham states=           12
     kinetic-energy cutoff     =      30.0000  Ry
     charge density cutoff     =     240.0000  Ry
     scf convergence threshold =      1.0E-07
     mixing beta               =       0.5000
     number of iterations used =            8  plain     mixing
     energy convergence thresh.=      1.0E-04
     force convergence thresh. =      1.0E-03
     press convergence thresh. =      5.0E-01
     Exchange-correlation=  SLA  PW   PBE  PBE
                           (   1   4   3   4   0   0   0)
     nstep                     =           50


     celldm(1)=   4.724315  celldm(2)=   0.000000  celldm(3)=   0.000000
     celldm(4)=   0.000000  celldm(5)=   0.000000  celldm(6)=   0.000000

     crystal axes: (cart. coord. in units of alat)
               a(1) = (   1.000000   0.000000   0.000000 )  
               a(2) = (  -0.500000   0.866025   0.000000 )  
               a(3) = (   0.000000   0.000000   1.632993 )  

     reciprocal axes: (cart. coord. in units 2 pi/alat)
               b(1) = (  1.000000  0.577350 -0.000000 )  
               b(2) = (  0.000000  1.154701  0.000000 )  
               b(3) = (  0.000000 -0.000000  0.612372 )  


     PseudoPot. # 1 for Fe read from file:
     /home/gridsan/epan1/labutil/lab3_samples/pseudopotentials/Fe.pbe-nd-rrkjus.UPF
     MD5 check sum: 398036227a04b607635f6f5e8dfd8242
     Pseudo is Ultrasoft + core correction, Zval =  8.0
     Generated by new atomic code, or converted to UPF format
     Using radial grid of  957 points,  6 beta functions with: 
                l(1) =   0
                l(2) =   0
                l(3) =   1
                l(4) =   1
                l(5) =   2
                l(6) =   2
     Q(r) pseudized with 0 coefficients 


     atomic species   valence    mass     pseudopotential
        Fe             8.00    55.84500     Fe( 1.00)

     Starting magnetic structure 
     atomic species   magnetization
        Fe           0.700

      4 Sym. Ops. (no inversion) found



   Cartesian axes

     site n.     atom                  positions (alat units)
         1           Fe  tau(   1) = (   0.0000000   0.0000000   0.0000000  )
         2           Fe  tau(   2) = (  -0.0000000   0.5773520   0.8164960  )

     number of k points=     6  Methfessel-Paxton smearing, width (Ry)=  0.0200
                       cart. coord. in units 2pi/alat
        k(    1) = (   0.0000000   0.0000000   0.0000000), wk =   0.1250000
        k(    2) = (   0.0000000   0.0000000  -0.3061862), wk =   0.1250000
        k(    3) = (   0.0000000  -0.5773503   0.0000000), wk =   0.1250000
        k(    4) = (   0.0000000  -0.5773503  -0.3061862), wk =   0.1250000
        k(    5) = (  -0.5000000   0.2886751   0.0000000), wk =   0.2500000
        k(    6) = (  -0.5000000   0.2886751  -0.3061862), wk =   0.2500000

     Dense  grid:     9369 G-vectors     FFT dimensions: (  24,  24,  40)

     Smooth grid:     3357 G-vectors     FFT dimensions: (  18,  18,  27)

     Estimated max dynamical RAM per process >       7.41 MB

     Estimated total dynamical RAM >      59.25 MB
     Generating pointlists ...
     new r_m :   0.4125 (alat units)  1.9488 (a.u.) for type    1

     Initial potential from superposition of free atoms

     starting charge      15.9987, renormalised to      16.0000
     Starting wfcs are   12 randomized atomic wfcs

     total cpu time spent up to now is        3.6 secs

     Self-consistent Calculation

     iteration #  1     ecut=    30.00 Ry     beta= 0.50
     Davidson diagonalization with overlap
     ethr =  1.00E-02,  avg # of iterations =  3.9

     total cpu time spent up to now is        7.0 secs

     total energy              =    -111.24869254 Ry
     estimated scf accuracy    <       0.43690721 Ry

     total magnetization       =     7.00 Bohr mag/cell
     absolute magnetization    =     7.00 Bohr mag/cell

     iteration #  2     ecut=    30.00 Ry     beta= 0.50
     Davidson diagonalization with overlap
     ethr =  2.73E-03,  avg # of iterations =  2.0

     total cpu time spent up to now is        8.9 secs

     total energy              =    -111.39296132 Ry
     estimated scf accuracy    <       0.10835497 Ry

     total magnetization       =     5.28 Bohr mag/cell
     absolute magnetization    =     5.29 Bohr mag/cell

     iteration #  3     ecut=    30.00 Ry     beta= 0.50
     Davidson diagonalization with overlap
     ethr =  6.77E-04,  avg # of iterations =  1.2

     total cpu time spent up to now is       11.2 secs

     total energy              =    -111.47117474 Ry
     estimated scf accuracy    <       0.04189310 Ry

     total magnetization       =     4.73 Bohr mag/cell
     absolute magnetization    =     4.86 Bohr mag/cell

     iteration #  4     ecut=    30.00 Ry     beta= 0.50
     Davidson diagonalization with overlap
     ethr =  2.62E-04,  avg # of iterations =  2.7

     total cpu time spent up to now is       12.5 secs

     total energy              =    -111.42795783 Ry
     estimated scf accuracy    <       0.87344618 Ry

     total magnetization       =     3.76 Bohr mag/cell
     absolute magnetization    =     4.06 Bohr mag/cell

     iteration #  5     ecut=    30.00 Ry     beta= 0.50
     Davidson diagonalization with overlap
     ethr =  2.62E-04,  avg # of iterations =  1.9

     total cpu time spent up to now is       15.1 secs

     total energy              =    -111.46118357 Ry
     estimated scf accuracy    <       0.04764555 Ry

     total magnetization       =     3.47 Bohr mag/cell
     absolute magnetization    =     3.84 Bohr mag/cell

     iteration #  6     ecut=    30.00 Ry     beta= 0.50
     Davidson diagonalization with overlap
     ethr =  2.62E-04,  avg # of iterations =  1.0

     total cpu time spent up to now is       17.4 secs

     total energy              =    -111.47099578 Ry
     estimated scf accuracy    <       0.02708360 Ry

     total magnetization       =     3.75 Bohr mag/cell
     absolute magnetization    =     4.02 Bohr mag/cell

     iteration #  7     ecut=    30.00 Ry     beta= 0.50
     Davidson diagonalization with overlap
     ethr =  1.69E-04,  avg # of iterations =  1.0

     total cpu time spent up to now is       19.2 secs

     total energy              =    -111.47436054 Ry
     estimated scf accuracy    <       0.01297577 Ry

     total magnetization       =     4.17 Bohr mag/cell
     absolute magnetization    =     4.31 Bohr mag/cell

     iteration #  8     ecut=    30.00 Ry     beta= 0.50
     Davidson diagonalization with overlap
     ethr =  8.11E-05,  avg # of iterations =  1.0

     total cpu time spent up to now is       21.2 secs

     total energy              =    -111.47678065 Ry
     estimated scf accuracy    <       0.00195079 Ry

     total magnetization       =     4.68 Bohr mag/cell
     absolute magnetization    =     4.76 Bohr mag/cell

     iteration #  9     ecut=    30.00 Ry     beta= 0.50
     Davidson diagonalization with overlap
     ethr =  1.22E-05,  avg # of iterations =  1.0

     total cpu time spent up to now is       22.2 secs

     total energy              =    -111.47744984 Ry
     estimated scf accuracy    <       0.00156789 Ry

     total magnetization       =     4.76 Bohr mag/cell
     absolute magnetization    =     4.84 Bohr mag/cell

     iteration # 10     ecut=    30.00 Ry     beta= 0.50
     Davidson diagonalization with overlap
     ethr =  9.80E-06,  avg # of iterations =  1.0

     total cpu time spent up to now is       24.0 secs

     total energy              =    -111.47746488 Ry
     estimated scf accuracy    <       0.00197544 Ry

     total magnetization       =     4.94 Bohr mag/cell
     absolute magnetization    =     5.01 Bohr mag/cell

     iteration # 11     ecut=    30.00 Ry     beta= 0.50
     Davidson diagonalization with overlap
     ethr =  9.80E-06,  avg # of iterations =  1.0
     Minimization algorithm failed to find Fermi energy: reverting to bisection
     Possible cause: smearing is larger than the electronic band-gap.

     total cpu time spent up to now is       25.4 secs

     total energy              =    -111.47738724 Ry
     estimated scf accuracy    <       0.00169384 Ry

     total magnetization       =     4.89 Bohr mag/cell
     absolute magnetization    =     4.96 Bohr mag/cell

     iteration # 12     ecut=    30.00 Ry     beta= 0.50
     Davidson diagonalization with overlap
     ethr =  9.80E-06,  avg # of iterations =  1.0

     total cpu time spent up to now is       26.6 secs

     total energy              =    -111.47750537 Ry
     estimated scf accuracy    <       0.00157006 Ry

     total magnetization       =     4.86 Bohr mag/cell
     absolute magnetization    =     4.94 Bohr mag/cell

     iteration # 13     ecut=    30.00 Ry     beta= 0.50
     Davidson diagonalization with overlap
     ethr =  9.80E-06,  avg # of iterations =  1.0

     total cpu time spent up to now is       29.8 secs

     total energy              =    -111.47746895 Ry
     estimated scf accuracy    <       0.00115146 Ry

     total magnetization       =     4.89 Bohr mag/cell
     absolute magnetization    =     4.98 Bohr mag/cell

     iteration # 14     ecut=    30.00 Ry     beta= 0.50
     Davidson diagonalization with overlap
     ethr =  7.20E-06,  avg # of iterations =  2.3

     total cpu time spent up to now is       32.8 secs

     total energy              =    -111.47341440 Ry
     estimated scf accuracy    <       0.00051473 Ry

     total magnetization       =     5.10 Bohr mag/cell
     absolute magnetization    =     5.23 Bohr mag/cell

     iteration # 15     ecut=    30.00 Ry     beta= 0.50
     Davidson diagonalization with overlap
     ethr =  3.22E-06,  avg # of iterations =  2.8

     total cpu time spent up to now is       35.5 secs

     total energy              =    -111.47737219 Ry
     estimated scf accuracy    <       0.00334608 Ry

     total magnetization       =     4.73 Bohr mag/cell
     absolute magnetization    =     4.81 Bohr mag/cell

     iteration # 16     ecut=    30.00 Ry     beta= 0.50
     Davidson diagonalization with overlap
     ethr =  3.22E-06,  avg # of iterations =  1.5
     Minimization algorithm failed to find Fermi energy: reverting to bisection
     Possible cause: smearing is larger than the electronic band-gap.

     total cpu time spent up to now is       36.9 secs

     total energy              =    -111.47792689 Ry
     estimated scf accuracy    <       0.00386560 Ry

     total magnetization       =     4.99 Bohr mag/cell
     absolute magnetization    =     5.07 Bohr mag/cell

     iteration # 17     ecut=    30.00 Ry     beta= 0.50
     Davidson diagonalization with overlap
     ethr =  3.22E-06,  avg # of iterations =  1.0
     Minimization algorithm failed to find Fermi energy: reverting to bisection
     Possible cause: smearing is larger than the electronic band-gap.

     total cpu time spent up to now is       38.5 secs

     total energy              =    -111.47799564 Ry
     estimated scf accuracy    <       0.00552011 Ry

     total magnetization       =     4.97 Bohr mag/cell
     absolute magnetization    =     5.04 Bohr mag/cell

     iteration # 18     ecut=    30.00 Ry     beta= 0.50
     Davidson diagonalization with overlap
     ethr =  3.22E-06,  avg # of iterations =  1.0

     total cpu time spent up to now is       40.1 secs

     total energy              =    -111.47446132 Ry
     estimated scf accuracy    <       0.00549623 Ry

     total magnetization       =     4.97 Bohr mag/cell
     absolute magnetization    =     5.05 Bohr mag/cell

     iteration # 19     ecut=    30.00 Ry     beta= 0.50
     Davidson diagonalization with overlap
     ethr =  3.22E-06,  avg # of iterations =  3.8

     total cpu time spent up to now is       44.9 secs

     total energy              =    -111.47920759 Ry
     estimated scf accuracy    <       0.00277378 Ry

     total magnetization       =     5.02 Bohr mag/cell
     absolute magnetization    =     5.18 Bohr mag/cell

     iteration # 20     ecut=    30.00 Ry     beta= 0.50
     Davidson diagonalization with overlap
     ethr =  3.22E-06,  avg # of iterations =  2.5

     total cpu time spent up to now is       47.2 secs

     total energy              =    -111.47953881 Ry
     estimated scf accuracy    <       0.00047942 Ry

     total magnetization       =     5.12 Bohr mag/cell
     absolute magnetization    =     5.23 Bohr mag/cell

     iteration # 21     ecut=    30.00 Ry     beta= 0.50
     Davidson diagonalization with overlap
     ethr =  3.00E-06,  avg # of iterations =  1.0

     total cpu time spent up to now is       48.7 secs

     total energy              =    -111.47956350 Ry
     estimated scf accuracy    <       0.00017297 Ry

     total magnetization       =     5.10 Bohr mag/cell
     absolute magnetization    =     5.23 Bohr mag/cell

     iteration # 22     ecut=    30.00 Ry     beta= 0.50
     Davidson diagonalization with overlap
     ethr =  1.08E-06,  avg # of iterations =  1.0

     total cpu time spent up to now is       50.7 secs

     total energy              =    -111.47945846 Ry
     estimated scf accuracy    <       0.00014232 Ry

     total magnetization       =     5.10 Bohr mag/cell
     absolute magnetization    =     5.23 Bohr mag/cell

     iteration # 23     ecut=    30.00 Ry     beta= 0.50
     Davidson diagonalization with overlap
     ethr =  8.90E-07,  avg # of iterations =  1.8

     total cpu time spent up to now is       52.3 secs

     total energy              =    -111.47952170 Ry
     estimated scf accuracy    <       0.00021262 Ry

     total magnetization       =     5.06 Bohr mag/cell
     absolute magnetization    =     5.21 Bohr mag/cell

     iteration # 24     ecut=    30.00 Ry     beta= 0.50
     Davidson diagonalization with overlap
     ethr =  8.90E-07,  avg # of iterations =  1.0

     total cpu time spent up to now is       54.2 secs

     total energy              =    -111.47955153 Ry
     estimated scf accuracy    <       0.00015038 Ry

     total magnetization       =     5.07 Bohr mag/cell
     absolute magnetization    =     5.21 Bohr mag/cell

     iteration # 25     ecut=    30.00 Ry     beta= 0.50
     Davidson diagonalization with overlap
     ethr =  8.90E-07,  avg # of iterations =  1.7

     total cpu time spent up to now is       58.5 secs

     total energy              =    -111.47956529 Ry
     estimated scf accuracy    <       0.00005539 Ry

     total magnetization       =     5.10 Bohr mag/cell
     absolute magnetization    =     5.23 Bohr mag/cell

     iteration # 26     ecut=    30.00 Ry     beta= 0.50
     Davidson diagonalization with overlap
     ethr =  3.46E-07,  avg # of iterations =  1.9

     total cpu time spent up to now is       60.3 secs

     total energy              =    -111.47957552 Ry
     estimated scf accuracy    <       0.00003984 Ry

     total magnetization       =     5.08 Bohr mag/cell
     absolute magnetization    =     5.21 Bohr mag/cell

     iteration # 27     ecut=    30.00 Ry     beta= 0.50
     Davidson diagonalization with overlap
     ethr =  2.49E-07,  avg # of iterations =  1.0

     total cpu time spent up to now is       61.7 secs

     total energy              =    -111.47958349 Ry
     estimated scf accuracy    <       0.00001523 Ry

     total magnetization       =     5.08 Bohr mag/cell
     absolute magnetization    =     5.22 Bohr mag/cell

     iteration # 28     ecut=    30.00 Ry     beta= 0.50
     Davidson diagonalization with overlap
     ethr =  9.52E-08,  avg # of iterations =  1.5

     total cpu time spent up to now is       63.4 secs

     total energy              =    -111.47958391 Ry
     estimated scf accuracy    <       0.00000036 Ry

     total magnetization       =     5.09 Bohr mag/cell
     absolute magnetization    =     5.22 Bohr mag/cell

     iteration # 29     ecut=    30.00 Ry     beta= 0.50
     Davidson diagonalization with overlap
     ethr =  2.23E-09,  avg # of iterations =  3.8

     Magnetic moment per site  (integrated on atomic sphere of radius R)
     atom   1 (R=0.412)  charge=  6.6407  magn=  2.5572
     atom   2 (R=0.412)  charge=  6.6408  magn=  2.5571

     total cpu time spent up to now is       66.1 secs

     End of self-consistent calculation

 ------ SPIN UP ------------


          k = 0.0000 0.0000 0.0000 (   391 PWs)   bands (ev):

     5.4500   9.1826  11.9736  11.9736  12.0330  12.3302  12.3302  12.7889
    12.7889  14.0084  14.0084  14.1703

          k = 0.0000 0.0000-0.3062 (   422 PWs)   bands (ev):

     7.6577   7.6579  11.6696  11.6697  11.9143  11.9144  11.9145  11.9146
    13.6567  13.6567  13.6567  13.6568

          k = 0.0000-0.5774 0.0000 (   428 PWs)   bands (ev):

     9.5029   9.6141   9.8169  11.8399  12.0196  12.0432  12.5071  14.1926
    14.2578  14.3567  16.1578  18.1988

          k = 0.0000-0.5774-0.3062 (   420 PWs)   bands (ev):

     9.2645   9.2646  10.6584  10.6586  12.9072  12.9073  13.7644  13.7646
    14.2907  14.2909  16.1410  16.1411

          k =-0.5000 0.2887 0.0000 (   428 PWs)   bands (ev):

     9.5029   9.6142   9.8169  11.8398  12.0196  12.0432  12.5071  14.1926
    14.2577  14.3567  16.1578  18.1987

          k =-0.5000 0.2887-0.3062 (   420 PWs)   bands (ev):

     9.2646   9.2646  10.6585  10.6586  12.9072  12.9073  13.7644  13.7646
    14.2906  14.2910  16.1410  16.1411

 ------ SPIN DOWN ----------


          k = 0.0000 0.0000 0.0000 (   391 PWs)   bands (ev):

     5.7070  10.5319  14.4280  14.4315  14.5707  14.5708  15.0180  15.0180
    15.7387  15.7388  17.1353  17.1353

          k = 0.0000 0.0000-0.3062 (   422 PWs)   bands (ev):

     7.9982   7.9983  13.7048  13.7048  14.5377  14.5377  14.5377  14.5378
    16.7272  16.7272  16.7272  16.7272

          k = 0.0000-0.5774 0.0000 (   428 PWs)   bands (ev):

    11.0117  11.3341  11.8251  13.0319  14.4496  14.5747  14.8288  17.2197
    17.4076  17.4466  18.3124  19.8664

          k = 0.0000-0.5774-0.3062 (   420 PWs)   bands (ev):

    10.9264  10.9265  12.7891  12.7892  15.3626  15.3627  15.7990  15.7991
    17.3320  17.3320  17.7831  17.7831

          k =-0.5000 0.2887 0.0000 (   428 PWs)   bands (ev):

    11.0117  11.3341  11.8252  13.0319  14.4496  14.5747  14.8288  17.2197
    17.4077  17.4466  18.3125  19.8664

          k =-0.5000 0.2887-0.3062 (   420 PWs)   bands (ev):

    10.9264  10.9264  12.7891  12.7891  15.3626  15.3627  15.7991  15.7991
    17.3320  17.3321  17.7831  17.7831

     the Fermi energy is    14.7102 ev

!    total energy              =    -111.47958407 Ry
     estimated scf accuracy    <       0.00000002 Ry
     smearing contrib. (-TS)   =       0.00134206 Ry
     internal energy E=F+TS    =    -111.48092613 Ry

     The total energy is F=E-TS. E is the sum of the following terms:
     one-electron contribution =      16.38473376 Ry
     hartree contribution      =      13.12368664 Ry
     xc contribution           =     -53.15484027 Ry
     ewald contribution        =     -87.83450626 Ry

     total magnetization       =     5.09 Bohr mag/cell
     absolute magnetization    =     5.22 Bohr mag/cell

     convergence has been achieved in  29 iterations

     Forces acting on atoms (cartesian axes, Ry/au):

     atom    1 type  1   force =     0.00000000    0.00000915    0.00000000
     atom    2 type  1   force =     0.00000000   -0.00000915    0.00000000
     The non-local contrib.  to forces
     atom    1 type  1   force =     0.00000000    0.00000108    0.00000000
     atom    2 type  1   force =     0.00000000    0.00000616    0.00000000
     The ionic contribution  to forces
     atom    1 type  1   force =    -0.00000000    0.00000403   -0.00002690
     atom    2 type  1   force =     0.00000000   -0.00000403    0.00002690
     The local contribution  to forces
     atom    1 type  1   force =     0.00000000   -0.00000612   -0.00000000
     atom    2 type  1   force =    -0.00000000   -0.00000951    0.00007693
     The core correction contribution to forces
     atom    1 type  1   force =    -0.00000000    0.00000042    0.00000000
     atom    2 type  1   force =    -0.00000000   -0.00000217    0.00001285
     The Hubbard contrib.    to forces
     atom    1 type  1   force =     0.00000000    0.00000000    0.00000000
     atom    2 type  1   force =     0.00000000    0.00000000    0.00000000
     The SCF correction term to forces
     atom    1 type  1   force =     0.00000000    0.00000199    0.00000000
     atom    2 type  1   force =     0.00000000   -0.00000735   -0.00000001

     Total force =     0.000013     Total SCF correction =     0.000008
     SCF correction compared to forces is large: reduce conv_thr to get better values


     Computing stress (Cartesian axis) and pressure

          total   stress  (Ry/bohr**3)                   (kbar)     P=      232.76
   0.00101661   0.00000000   0.00000000          149.55        0.00        0.00
   0.00000000   0.00101641   0.00000000            0.00      149.52        0.00
   0.00000000   0.00000000   0.00271382            0.00        0.00      399.22


     BFGS Geometry Optimization
     Energy error            =      0.0E+00 Ry
     Gradient error          =      9.1E-06 Ry/Bohr
     Cell gradient error     =      4.0E+02 kbar

     number of scf cycles    =   1
     number of bfgs steps    =   0

     enthalpy           new  =    -111.4795840668 Ry

     new trust radius        =       0.1656980965 bohr
     new conv_thr            =       0.0000001000 Ry

     new unit-cell volume =    167.43166 a.u.^3 (    24.81081 Ang^3 )
     density =      7.47519 g/cm^3

CELL_PARAMETERS (angstrom)
   2.563538320  -0.000000000   0.000000000
  -1.281769160   2.220078515   0.000000000
   0.000000000   0.000000000   4.359461422

ATOMIC_POSITIONS (angstrom)
Fe            0.0000000000        0.0000049635        0.0000000000
Fe            0.0000000000        1.4800518169        2.1797291601



     Writing config-only to output data dir /home/gridsan/epan1/labutil/lab3_samples/problem1/Lab3/Fe_hcp_a_2.5_ecut_30_nk_2/pwscf.save/
     NEW-OLD atomic charge density approx. for the potential

     Check: negative core charge=   -0.000006
     extrapolated charge   17.74989, renormalised to   16.00000
     Generating pointlists ...

     total cpu time spent up to now is       68.7 secs

     Self-consistent Calculation

     iteration #  1     ecut=    30.00 Ry     beta= 0.50
     Davidson diagonalization with overlap
     ethr =  1.00E-06,  avg # of iterations = 11.1

     total cpu time spent up to now is       82.0 secs

     total energy              =    -109.95739321 Ry
     estimated scf accuracy    <       1.78627415 Ry

     total magnetization       =     2.75 Bohr mag/cell
     absolute magnetization    =     3.13 Bohr mag/cell

     iteration #  2     ecut=    30.00 Ry     beta= 0.50
     Davidson diagonalization with overlap
     ethr =  1.00E-02,  avg # of iterations =  3.2

     total cpu time spent up to now is       83.6 secs

     total energy              =    -111.54729759 Ry
     estimated scf accuracy    <       3.40912923 Ry

     total magnetization       =     4.75 Bohr mag/cell
     absolute magnetization    =     4.84 Bohr mag/cell

     iteration #  3     ecut=    30.00 Ry     beta= 0.50
     Davidson diagonalization with overlap
     ethr =  1.00E-02,  avg # of iterations =  1.9

     total cpu time spent up to now is       85.8 secs

     total energy              =    -111.49599284 Ry
     estimated scf accuracy    <       0.94555943 Ry

     total magnetization       =     4.75 Bohr mag/cell
     absolute magnetization    =     4.99 Bohr mag/cell

     iteration #  4     ecut=    30.00 Ry     beta= 0.50
     Davidson diagonalization with overlap
     ethr =  5.91E-03,  avg # of iterations =  1.2

     total cpu time spent up to now is       87.4 secs

     total energy              =    -111.49790059 Ry
     estimated scf accuracy    <       0.32656027 Ry

     total magnetization       =     4.82 Bohr mag/cell
     absolute magnetization    =     5.05 Bohr mag/cell

     iteration #  5     ecut=    30.00 Ry     beta= 0.50
     Davidson diagonalization with overlap
     ethr =  2.04E-03,  avg # of iterations =  1.7

     total cpu time spent up to now is       88.8 secs

     total energy              =    -111.52501917 Ry
     estimated scf accuracy    <       0.12703307 Ry

     total magnetization       =     5.03 Bohr mag/cell
     absolute magnetization    =     5.22 Bohr mag/cell

     iteration #  6     ecut=    30.00 Ry     beta= 0.50
     Davidson diagonalization with overlap
     ethr =  7.94E-04,  avg # of iterations =  1.0

     total cpu time spent up to now is       90.3 secs

     total energy              =    -111.48858448 Ry
     estimated scf accuracy    <       0.15138908 Ry

     total magnetization       =     4.96 Bohr mag/cell
     absolute magnetization    =     5.15 Bohr mag/cell

     iteration #  7     ecut=    30.00 Ry     beta= 0.50
     Davidson diagonalization with overlap
     ethr =  7.94E-04,  avg # of iterations =  1.0

     total cpu time spent up to now is       92.0 secs

     total energy              =    -111.49735176 Ry
     estimated scf accuracy    <       0.02251767 Ry

     total magnetization       =     5.01 Bohr mag/cell
     absolute magnetization    =     5.24 Bohr mag/cell

     iteration #  8     ecut=    30.00 Ry     beta= 0.50
     Davidson diagonalization with overlap
     ethr =  1.41E-04,  avg # of iterations =  1.9

     total cpu time spent up to now is       93.8 secs

     total energy              =    -111.49846010 Ry
     estimated scf accuracy    <       0.00463908 Ry

     total magnetization       =     5.01 Bohr mag/cell
     absolute magnetization    =     5.26 Bohr mag/cell

     iteration #  9     ecut=    30.00 Ry     beta= 0.50
     Davidson diagonalization with overlap
     ethr =  2.90E-05,  avg # of iterations =  2.1

     total cpu time spent up to now is       95.6 secs

     total energy              =    -111.49899332 Ry
     estimated scf accuracy    <       0.00035671 Ry

     total magnetization       =     5.00 Bohr mag/cell
     absolute magnetization    =     5.25 Bohr mag/cell

     iteration # 10     ecut=    30.00 Ry     beta= 0.50
     Davidson diagonalization with overlap
     ethr =  2.23E-06,  avg # of iterations =  3.3

     total cpu time spent up to now is       99.1 secs

     total energy              =    -111.49915412 Ry
     estimated scf accuracy    <       0.00006235 Ry

     total magnetization       =     5.00 Bohr mag/cell
     absolute magnetization    =     5.25 Bohr mag/cell

     iteration # 11     ecut=    30.00 Ry     beta= 0.50
     Davidson diagonalization with overlap
     ethr =  3.90E-07,  avg # of iterations =  2.3

     total cpu time spent up to now is      100.8 secs

     total energy              =    -111.49916928 Ry
     estimated scf accuracy    <       0.00003752 Ry

     total magnetization       =     5.00 Bohr mag/cell
     absolute magnetization    =     5.25 Bohr mag/cell

     iteration # 12     ecut=    30.00 Ry     beta= 0.50
     Davidson diagonalization with overlap
     ethr =  2.34E-07,  avg # of iterations =  1.5

     total cpu time spent up to now is      102.5 secs

     total energy              =    -111.49916441 Ry
     estimated scf accuracy    <       0.00002565 Ry

     total magnetization       =     5.01 Bohr mag/cell
     absolute magnetization    =     5.25 Bohr mag/cell

     iteration # 13     ecut=    30.00 Ry     beta= 0.50
     Davidson diagonalization with overlap
     ethr =  1.60E-07,  avg # of iterations =  1.8

     total cpu time spent up to now is      104.2 secs

     total energy              =    -111.49916805 Ry
     estimated scf accuracy    <       0.00000189 Ry

     total magnetization       =     5.00 Bohr mag/cell
     absolute magnetization    =     5.25 Bohr mag/cell

     iteration # 14     ecut=    30.00 Ry     beta= 0.50
     Davidson diagonalization with overlap
     ethr =  1.18E-08,  avg # of iterations =  4.6

     total cpu time spent up to now is      110.7 secs

     total energy              =    -111.49916966 Ry
     estimated scf accuracy    <       0.00000013 Ry

     total magnetization       =     5.00 Bohr mag/cell
     absolute magnetization    =     5.25 Bohr mag/cell

     iteration # 15     ecut=    30.00 Ry     beta= 0.50
     Davidson diagonalization with overlap
     ethr =  7.89E-10,  avg # of iterations =  5.8

     total cpu time spent up to now is      117.9 secs

     total energy              =    -111.49916962 Ry
     estimated scf accuracy    <       0.00000071 Ry

     total magnetization       =     5.00 Bohr mag/cell
     absolute magnetization    =     5.25 Bohr mag/cell

     iteration # 16     ecut=    30.00 Ry     beta= 0.50
     Davidson diagonalization with overlap
     ethr =  7.89E-10,  avg # of iterations =  3.2

     Magnetic moment per site  (integrated on atomic sphere of radius R)
     atom   1 (R=0.412)  charge=  6.5067  magn=  2.5450
     atom   2 (R=0.412)  charge=  6.5066  magn=  2.5451

     total cpu time spent up to now is      120.9 secs

     End of self-consistent calculation

 ------ SPIN UP ------------


          k = 0.0000 0.0000 0.0000 (   391 PWs)   bands (ev):

     4.1533   7.8148  10.1795  10.2809  10.2810  10.5334  10.5334  10.9193
    10.9193  11.8006  11.8007  11.8628

          k = 0.0000 0.0000-0.2867 (   422 PWs)   bands (ev):

     6.1101   6.1102   9.9163   9.9165  10.2459  10.2460  10.2460  10.2461
    11.5318  11.5318  11.5319  11.5319

          k =-0.0000-0.5630 0.0000 (   428 PWs)   bands (ev):

     8.1690   8.1756   8.3048  10.0467  10.1459  10.4733  10.6663  11.9363
    12.2288  12.3365  14.0070  15.8360

          k =-0.0000-0.5630-0.2867 (   420 PWs)   bands (ev):

     7.8717   7.8717   9.0493   9.0494  10.9554  10.9555  11.8126  11.8127
    12.2902  12.2903  14.0297  14.0297

          k =-0.4876 0.2815 0.0000 (   428 PWs)   bands (ev):

     8.1690   8.1756   8.3048  10.0467  10.1459  10.4733  10.6663  11.9363
    12.2287  12.3364  14.0070  15.8360

          k =-0.4876 0.2815-0.2867 (   420 PWs)   bands (ev):

     7.8717   7.8717   9.0494   9.0494  10.9554  10.9556  11.8126  11.8127
    12.2901  12.2903  14.0297  14.0297

 ------ SPIN DOWN ----------


          k = 0.0000 0.0000 0.0000 (   391 PWs)   bands (ev):

     4.2957   8.8954  12.0249  12.3024  12.7978  12.7979  13.1227  13.1228
    14.0751  14.0751  15.1161  15.1161

          k = 0.0000 0.0000-0.2867 (   422 PWs)   bands (ev):

     6.3000   6.3001  11.7390  11.7391  12.8158  12.8158  12.8159  12.8160
    14.7581  14.7581  14.7582  14.7583

          k =-0.0000-0.5630 0.0000 (   428 PWs)   bands (ev):

     9.4951   9.8868  10.4439  11.3484  12.6103  12.7428  13.0865  15.1567
    15.2811  15.2960  15.9040  17.2749

          k =-0.0000-0.5630-0.2867 (   420 PWs)   bands (ev):

     9.5250   9.5250  11.1326  11.1326  13.3228  13.3229  14.0485  14.0486
    15.2297  15.2298  15.4542  15.4542

          k =-0.4876 0.2815 0.0000 (   428 PWs)   bands (ev):

     9.4951   9.8868  10.4439  11.3484  12.6103  12.7427  13.0865  15.1567
    15.2812  15.2960  15.9039  17.2749

          k =-0.4876 0.2815-0.2867 (   420 PWs)   bands (ev):

     9.5250   9.5250  11.1325  11.1326  13.3228  13.3228  14.0485  14.0486
    15.2298  15.2298  15.4542  15.4542

     the Fermi energy is    12.9653 ev

!    total energy              =    -111.49916978 Ry
     estimated scf accuracy    <          5.0E-09 Ry
     smearing contrib. (-TS)   =       0.00046897 Ry
     internal energy E=F+TS    =    -111.49963875 Ry

     The total energy is F=E-TS. E is the sum of the following terms:
     one-electron contribution =      11.59586490 Ry
     hartree contribution      =      14.39323052 Ry
     xc contribution           =     -52.99987036 Ry
     ewald contribution        =     -84.48886381 Ry

     total magnetization       =     5.00 Bohr mag/cell
     absolute magnetization    =     5.26 Bohr mag/cell

     convergence has been achieved in  16 iterations

     Forces acting on atoms (cartesian axes, Ry/au):

     atom    1 type  1   force =     0.00000000    0.00000003    0.00000000
     atom    2 type  1   force =    -0.00000000   -0.00000003    0.00000000
     The non-local contrib.  to forces
     atom    1 type  1   force =     0.00000000    0.00000014    0.00000000
     atom    2 type  1   force =    -0.00000000   -0.00000003    0.00000000
     The ionic contribution  to forces
     atom    1 type  1   force =    -0.00000000   -0.00001120   -0.00002605
     atom    2 type  1   force =     0.00000000    0.00001120    0.00002605
     The local contribution  to forces
     atom    1 type  1   force =     0.00000000    0.00001053    0.00000000
     atom    2 type  1   force =    -0.00000000   -0.00001085    0.00008554
     The core correction contribution to forces
     atom    1 type  1   force =     0.00000000    0.00000012    0.00000002
     atom    2 type  1   force =    -0.00000000   -0.00000016    0.00001389
     The Hubbard contrib.    to forces
     atom    1 type  1   force =     0.00000000    0.00000000    0.00000000
     atom    2 type  1   force =     0.00000000    0.00000000    0.00000000
     The SCF correction term to forces
     atom    1 type  1   force =     0.00000000    0.00000017   -0.00000000
     atom    2 type  1   force =     0.00000000   -0.00000048    0.00000000

     Total force =     0.000000     Total SCF correction =     0.000001
     SCF correction compared to forces is large: reduce conv_thr to get better values


     Computing stress (Cartesian axis) and pressure

          total   stress  (Ry/bohr**3)                   (kbar)     P=      -19.75
  -0.00074575  -0.00000000   0.00000000         -109.70       -0.00        0.00
  -0.00000000  -0.00074638   0.00000000           -0.00     -109.80        0.00
   0.00000000   0.00000000   0.00108940            0.00        0.00      160.26

     Energy error            =      2.0E-02 Ry
     Gradient error          =      3.5E-08 Ry/Bohr
     Cell gradient error     =      1.6E+02 kbar

     number of scf cycles    =   2
     number of bfgs steps    =   1

     enthalpy           old  =    -111.4795840668 Ry
     enthalpy           new  =    -111.4991697806 Ry

     CASE: enthalpy          _new < enthalpy          _old

     new trust radius        =       0.1409767680 bohr
     new conv_thr            =       0.0000000010 Ry

     new unit-cell volume =    171.42180 a.u.^3 (    25.40209 Ang^3 )
     density =      7.30119 g/cm^3

CELL_PARAMETERS (angstrom)
   2.526042664  -0.000000000   0.000000000
  -1.263021332   2.187557923   0.000000000
   0.000000000   0.000000000   4.596943915

ATOMIC_POSITIONS (angstrom)
Fe            0.0000000000        0.0000066680        0.0000000000
Fe            0.0000000000        1.4583696530        2.2984703221



     Writing config-only to output data dir /home/gridsan/epan1/labutil/lab3_samples/problem1/Lab3/Fe_hcp_a_2.5_ecut_30_nk_2/pwscf.save/
     NEW-OLD atomic charge density approx. for the potential

     Check: negative core charge=   -0.000011
     extrapolated charge   16.37240, renormalised to   16.00000
     Generating pointlists ...

     total cpu time spent up to now is      122.9 secs

     Self-consistent Calculation

     iteration #  1     ecut=    30.00 Ry     beta= 0.50
     Davidson diagonalization with overlap
     ethr =  1.00E-06,  avg # of iterations =  8.6

     total cpu time spent up to now is      127.3 secs

     total energy              =    -111.41543870 Ry
     estimated scf accuracy    <       0.09753120 Ry

     total magnetization       =     5.08 Bohr mag/cell
     absolute magnetization    =     5.51 Bohr mag/cell

     iteration #  2     ecut=    30.00 Ry     beta= 0.50
     Davidson diagonalization with overlap
     ethr =  6.10E-04,  avg # of iterations =  3.8

     total cpu time spent up to now is      131.1 secs

     total energy              =    -111.50608124 Ry
     estimated scf accuracy    <       0.22684315 Ry

     total magnetization       =     5.01 Bohr mag/cell
     absolute magnetization    =     5.38 Bohr mag/cell

     iteration #  3     ecut=    30.00 Ry     beta= 0.50
     Davidson diagonalization with overlap
     ethr =  6.10E-04,  avg # of iterations =  2.0

     total cpu time spent up to now is      132.5 secs

     total energy              =    -111.51512247 Ry
     estimated scf accuracy    <       0.06312074 Ry

     total magnetization       =     5.00 Bohr mag/cell
     absolute magnetization    =     5.37 Bohr mag/cell

     iteration #  4     ecut=    30.00 Ry     beta= 0.50
     Davidson diagonalization with overlap
     ethr =  3.95E-04,  avg # of iterations =  1.0

     total cpu time spent up to now is      135.1 secs

     total energy              =    -111.50758788 Ry
     estimated scf accuracy    <       0.04434351 Ry

     total magnetization       =     5.00 Bohr mag/cell
     absolute magnetization    =     5.37 Bohr mag/cell

     iteration #  5     ecut=    30.00 Ry     beta= 0.50
     Davidson diagonalization with overlap
     ethr =  2.77E-04,  avg # of iterations =  1.2

     total cpu time spent up to now is      136.3 secs

     total energy              =    -111.50783245 Ry
     estimated scf accuracy    <       0.01258441 Ry

     total magnetization       =     5.00 Bohr mag/cell
     absolute magnetization    =     5.35 Bohr mag/cell

     iteration #  6     ecut=    30.00 Ry     beta= 0.50
     Davidson diagonalization with overlap
     ethr =  7.87E-05,  avg # of iterations =  1.5

     total cpu time spent up to now is      137.2 secs

     total energy              =    -111.50560766 Ry
     estimated scf accuracy    <       0.00673574 Ry

     total magnetization       =     5.01 Bohr mag/cell
     absolute magnetization    =     5.34 Bohr mag/cell

     iteration #  7     ecut=    30.00 Ry     beta= 0.50
     Davidson diagonalization with overlap
     ethr =  4.21E-05,  avg # of iterations =  2.6

     total cpu time spent up to now is      140.4 secs

     total energy              =    -111.50686304 Ry
     estimated scf accuracy    <       0.00004826 Ry

     total magnetization       =     5.01 Bohr mag/cell
     absolute magnetization    =     5.35 Bohr mag/cell

     iteration #  8     ecut=    30.00 Ry     beta= 0.50
     Davidson diagonalization with overlap
     ethr =  3.02E-07,  avg # of iterations =  4.4

     total cpu time spent up to now is      141.7 secs

     total energy              =    -111.50699637 Ry
     estimated scf accuracy    <       0.00006535 Ry

     total magnetization       =     5.01 Bohr mag/cell
     absolute magnetization    =     5.34 Bohr mag/cell

     iteration #  9     ecut=    30.00 Ry     beta= 0.50
     Davidson diagonalization with overlap
     ethr =  3.02E-07,  avg # of iterations =  1.0

     total cpu time spent up to now is      143.4 secs

     total energy              =    -111.50697387 Ry
     estimated scf accuracy    <       0.00004361 Ry

     total magnetization       =     5.01 Bohr mag/cell
     absolute magnetization    =     5.34 Bohr mag/cell

     iteration # 10     ecut=    30.00 Ry     beta= 0.50
     Davidson diagonalization with overlap
     ethr =  2.73E-07,  avg # of iterations =  2.8

     total cpu time spent up to now is      147.4 secs

     total energy              =    -111.50698601 Ry
     estimated scf accuracy    <       0.00001642 Ry

     total magnetization       =     5.01 Bohr mag/cell
     absolute magnetization    =     5.34 Bohr mag/cell

     iteration # 11     ecut=    30.00 Ry     beta= 0.50
     Davidson diagonalization with overlap
     ethr =  1.03E-07,  avg # of iterations =  2.2

     total cpu time spent up to now is      150.6 secs

     total energy              =    -111.50699002 Ry
     estimated scf accuracy    <       0.00000185 Ry

     total magnetization       =     5.01 Bohr mag/cell
     absolute magnetization    =     5.34 Bohr mag/cell

     iteration # 12     ecut=    30.00 Ry     beta= 0.50
     Davidson diagonalization with overlap
     ethr =  1.16E-08,  avg # of iterations =  2.2

     total cpu time spent up to now is      153.9 secs

     total energy              =    -111.50699023 Ry
     estimated scf accuracy    <       0.00000017 Ry

     total magnetization       =     5.01 Bohr mag/cell
     absolute magnetization    =     5.34 Bohr mag/cell

     iteration # 13     ecut=    30.00 Ry     beta= 0.50
     Davidson diagonalization with overlap
     ethr =  1.05E-09,  avg # of iterations =  3.4

     total cpu time spent up to now is      158.1 secs

     total energy              =    -111.50699029 Ry
     estimated scf accuracy    <       0.00000003 Ry

     total magnetization       =     5.01 Bohr mag/cell
     absolute magnetization    =     5.34 Bohr mag/cell

     iteration # 14     ecut=    30.00 Ry     beta= 0.50
     Davidson diagonalization with overlap
     ethr =  1.82E-10,  avg # of iterations =  4.2

     total cpu time spent up to now is      160.8 secs

     total energy              =    -111.50699030 Ry
     estimated scf accuracy    <          1.5E-09 Ry

     total magnetization       =     5.01 Bohr mag/cell
     absolute magnetization    =     5.34 Bohr mag/cell

     iteration # 15     ecut=    30.00 Ry     beta= 0.50
     Davidson diagonalization with overlap
     ethr =  9.58E-12,  avg # of iterations =  5.1

     Magnetic moment per site  (integrated on atomic sphere of radius R)
     atom   1 (R=0.412)  charge=  6.5018  magn=  2.5699
     atom   2 (R=0.412)  charge=  6.5018  magn=  2.5699

     total cpu time spent up to now is      163.3 secs

     End of self-consistent calculation

 ------ SPIN UP ------------


          k = 0.0000 0.0000 0.0000 (   391 PWs)   bands (ev):

     3.9447   7.4449   9.5379  10.0843  10.0847  10.2683  10.2687  10.7700
    10.7700  10.9665  11.4167  11.4168

          k = 0.0000 0.0000-0.2719 (   422 PWs)   bands (ev):

     5.7053   5.7054   9.3812   9.3812  10.0841  10.0841  10.0844  10.0844
    11.1914  11.1915  11.1915  11.1915

          k =-0.0000-0.5714 0.0000 (   428 PWs)   bands (ev):

     7.9388   7.9409   8.0149   9.5366  10.0474  10.2220  10.3631  11.4376
    12.1442  12.2116  13.7439  15.6014

          k =-0.0000-0.5714-0.2719 (   420 PWs)   bands (ev):

     7.6463   7.6463   8.6671   8.6672  10.6914  10.6915  11.4264  11.4264
    12.1806  12.1806  13.7420  13.7420

          k =-0.4948 0.2857 0.0000 (   428 PWs)   bands (ev):

     7.9392   7.9412   8.0148   9.5366  10.0475  10.2219  10.3630  11.4377
    12.1437  12.2110  13.7438  15.6012

          k =-0.4948 0.2857-0.2719 (   420 PWs)   bands (ev):

     7.6464   7.6464   8.6673   8.6673  10.6916  10.6916  11.4264  11.4264
    12.1800  12.1800  13.7417  13.7417

 ------ SPIN DOWN ----------


          k = 0.0000 0.0000 0.0000 (   391 PWs)   bands (ev):

     4.0275   8.4099  11.0564  11.6317  12.5806  12.5817  12.8199  12.8209
    14.0572  14.0572  14.8367  14.8367

          k = 0.0000 0.0000-0.2719 (   422 PWs)   bands (ev):

     5.8248   5.8249  11.1721  11.1722  12.6253  12.6253  12.6263  12.6263
    14.5319  14.5319  14.5320  14.5320

          k =-0.0000-0.5714 0.0000 (   428 PWs)   bands (ev):

     9.2975   9.6230  10.1762  11.2995  12.1308  12.2563  13.1162  14.8761
    15.0593  15.1377  15.5178  16.8478

          k =-0.0000-0.5714-0.2719 (   420 PWs)   bands (ev):

     9.2892   9.2892  10.7745  10.7745  13.0516  13.0516  13.9058  13.9058
    14.9958  14.9958  15.1027  15.1027

          k =-0.4948 0.2857 0.0000 (   428 PWs)   bands (ev):

     9.2972   9.6226  10.1762  11.2993  12.1308  12.2561  13.1164  14.8762
    15.0598  15.1382  15.5176  16.8475

          k =-0.4948 0.2857-0.2719 (   420 PWs)   bands (ev):

     9.2890   9.2890  10.7743  10.7743  13.0514  13.0514  13.9059  13.9060
    14.9957  14.9957  15.1032  15.1032

     the Fermi energy is    12.7717 ev

!    total energy              =    -111.50699031 Ry
     estimated scf accuracy    <          1.5E-10 Ry
     smearing contrib. (-TS)   =       0.00073588 Ry
     internal energy E=F+TS    =    -111.50772619 Ry

     The total energy is F=E-TS. E is the sum of the following terms:
     one-electron contribution =      10.36976789 Ry
     hartree contribution      =      14.83950889 Ry
     xc contribution           =     -53.02226295 Ry
     ewald contribution        =     -83.69474001 Ry

     total magnetization       =     5.01 Bohr mag/cell
     absolute magnetization    =     5.34 Bohr mag/cell

     convergence has been achieved in  15 iterations

     Forces acting on atoms (cartesian axes, Ry/au):

     atom    1 type  1   force =     0.00000000    0.00000719    0.00000000
     atom    2 type  1   force =    -0.00000000   -0.00000719    0.00000000
     The non-local contrib.  to forces
     atom    1 type  1   force =     0.00000000    0.00001969    0.00000000
     atom    2 type  1   force =    -0.00000000   -0.00001958    0.00000000
     The ionic contribution  to forces
     atom    1 type  1   force =     0.00000000   -0.00003368   -0.00002748
     atom    2 type  1   force =     0.00000000    0.00003368    0.00002748
     The local contribution  to forces
     atom    1 type  1   force =    -0.00000000    0.00002188    0.00000000
     atom    2 type  1   force =    -0.00000000   -0.00002229    0.00009331
     The core correction contribution to forces
     atom    1 type  1   force =    -0.00000000   -0.00000121    0.00000002
     atom    2 type  1   force =    -0.00000000    0.00000117    0.00001480
     The Hubbard contrib.    to forces
     atom    1 type  1   force =     0.00000000    0.00000000    0.00000000
     atom    2 type  1   force =     0.00000000    0.00000000    0.00000000
     The SCF correction term to forces
     atom    1 type  1   force =     0.00000000    0.00000039   -0.00000000
     atom    2 type  1   force =     0.00000000   -0.00000027    0.00000000

     Total force =     0.000010     Total SCF correction =     0.000000


     Computing stress (Cartesian axis) and pressure

          total   stress  (Ry/bohr**3)                   (kbar)     P=      -54.70
  -0.00050745  -0.00000000   0.00000000          -74.65       -0.00        0.00
  -0.00000000  -0.00051249   0.00000000           -0.00      -75.39        0.00
   0.00000000   0.00000000  -0.00009567            0.00        0.00      -14.07

     Energy error            =      7.8E-03 Ry
     Gradient error          =      7.2E-06 Ry/Bohr
     Cell gradient error     =      7.5E+01 kbar

     number of scf cycles    =   3
     number of bfgs steps    =   2

     enthalpy           old  =    -111.4991697806 Ry
     enthalpy           new  =    -111.5069903055 Ry

     CASE: enthalpy          _new < enthalpy          _old

     new trust radius        =       0.0315516596 bohr
     new conv_thr            =       0.0000000010 Ry

     new unit-cell volume =    168.06192 a.u.^3 (    24.90421 Ang^3 )
     density =      7.44716 g/cm^3

CELL_PARAMETERS (angstrom)
   2.496018474  -0.000000000   0.000000000
  -1.248009237   2.161199541   0.000000000
   0.000000000   0.000000000   4.616683022

ATOMIC_POSITIONS (angstrom)
Fe            0.0000000000        0.0000116434        0.0000000000
Fe            0.0000000000        1.4407923701        2.3083398686



     Writing config-only to output data dir /home/gridsan/epan1/labutil/lab3_samples/problem1/Lab3/Fe_hcp_a_2.5_ecut_30_nk_2/pwscf.save/
     NEW-OLD atomic charge density approx. for the potential

     Check: negative core charge=   -0.000010
     extrapolated charge   15.68015, renormalised to   16.00000
     Generating pointlists ...

     total cpu time spent up to now is      165.8 secs

     Self-consistent Calculation

     iteration #  1     ecut=    30.00 Ry     beta= 0.50
     Davidson diagonalization with overlap
     ethr =  1.00E-06,  avg # of iterations =  7.3

     total cpu time spent up to now is      172.4 secs

     total energy              =    -111.46889924 Ry
     estimated scf accuracy    <       0.04215166 Ry

     total magnetization       =     5.01 Bohr mag/cell
     absolute magnetization    =     5.38 Bohr mag/cell

     iteration #  2     ecut=    30.00 Ry     beta= 0.50
     Davidson diagonalization with overlap
     ethr =  2.63E-04,  avg # of iterations =  4.2

     total cpu time spent up to now is      174.4 secs

     total energy              =    -111.49518603 Ry
     estimated scf accuracy    <       0.16089154 Ry

     total magnetization       =     4.92 Bohr mag/cell
     absolute magnetization    =     5.45 Bohr mag/cell

     iteration #  3     ecut=    30.00 Ry     beta= 0.50
     Davidson diagonalization with overlap
     ethr =  2.63E-04,  avg # of iterations =  2.0

     total cpu time spent up to now is      178.7 secs

     total energy              =    -111.50821648 Ry
     estimated scf accuracy    <       0.01195923 Ry

     total magnetization       =     5.05 Bohr mag/cell
     absolute magnetization    =     5.38 Bohr mag/cell

     iteration #  4     ecut=    30.00 Ry     beta= 0.50
     Davidson diagonalization with overlap
     ethr =  7.47E-05,  avg # of iterations =  2.0

     total cpu time spent up to now is      181.5 secs

     total energy              =    -111.50870222 Ry
     estimated scf accuracy    <       0.00854609 Ry

     total magnetization       =     5.05 Bohr mag/cell
     absolute magnetization    =     5.37 Bohr mag/cell

     iteration #  5     ecut=    30.00 Ry     beta= 0.50
     Davidson diagonalization with overlap
     ethr =  5.34E-05,  avg # of iterations =  1.0

     total cpu time spent up to now is      183.5 secs

     total energy              =    -111.50870529 Ry
     estimated scf accuracy    <       0.00335997 Ry

     total magnetization       =     5.04 Bohr mag/cell
     absolute magnetization    =     5.36 Bohr mag/cell

     iteration #  6     ecut=    30.00 Ry     beta= 0.50
     Davidson diagonalization with overlap
     ethr =  2.10E-05,  avg # of iterations =  1.2

     total cpu time spent up to now is      184.8 secs

     total energy              =    -111.50813354 Ry
     estimated scf accuracy    <       0.00223634 Ry

     total magnetization       =     5.04 Bohr mag/cell
     absolute magnetization    =     5.36 Bohr mag/cell

     iteration #  7     ecut=    30.00 Ry     beta= 0.50
     Davidson diagonalization with overlap
     ethr =  1.40E-05,  avg # of iterations =  1.1

     total cpu time spent up to now is      187.4 secs

     total energy              =    -111.50817946 Ry
     estimated scf accuracy    <       0.00036473 Ry

     total magnetization       =     5.04 Bohr mag/cell
     absolute magnetization    =     5.36 Bohr mag/cell

     iteration #  8     ecut=    30.00 Ry     beta= 0.50
     Davidson diagonalization with overlap
     ethr =  2.28E-06,  avg # of iterations =  2.1

     total cpu time spent up to now is      189.3 secs

     total energy              =    -111.50825078 Ry
     estimated scf accuracy    <       0.00002670 Ry

     total magnetization       =     5.04 Bohr mag/cell
     absolute magnetization    =     5.36 Bohr mag/cell

     iteration #  9     ecut=    30.00 Ry     beta= 0.50
     Davidson diagonalization with overlap
     ethr =  1.67E-07,  avg # of iterations =  1.7

     total cpu time spent up to now is      192.0 secs

     total energy              =    -111.50824363 Ry
     estimated scf accuracy    <       0.00002076 Ry

     total magnetization       =     5.04 Bohr mag/cell
     absolute magnetization    =     5.35 Bohr mag/cell

     iteration # 10     ecut=    30.00 Ry     beta= 0.50
     Davidson diagonalization with overlap
     ethr =  1.30E-07,  avg # of iterations =  2.8

     total cpu time spent up to now is      195.3 secs

     total energy              =    -111.50824859 Ry
     estimated scf accuracy    <       0.00000042 Ry

     total magnetization       =     5.04 Bohr mag/cell
     absolute magnetization    =     5.35 Bohr mag/cell

     iteration # 11     ecut=    30.00 Ry     beta= 0.50
     Davidson diagonalization with overlap
     ethr =  2.61E-09,  avg # of iterations =  4.8

     total cpu time spent up to now is      200.3 secs

     total energy              =    -111.50824886 Ry
     estimated scf accuracy    <       0.00000045 Ry

     total magnetization       =     5.04 Bohr mag/cell
     absolute magnetization    =     5.35 Bohr mag/cell

     iteration # 12     ecut=    30.00 Ry     beta= 0.50
     Davidson diagonalization with overlap
     ethr =  2.61E-09,  avg # of iterations =  2.9

     total cpu time spent up to now is      201.8 secs

     total energy              =    -111.50824902 Ry
     estimated scf accuracy    <       0.00000009 Ry

     total magnetization       =     5.04 Bohr mag/cell
     absolute magnetization    =     5.35 Bohr mag/cell

     iteration # 13     ecut=    30.00 Ry     beta= 0.50
     Davidson diagonalization with overlap
     ethr =  5.88E-10,  avg # of iterations =  2.0

     total cpu time spent up to now is      204.6 secs

     total energy              =    -111.50824903 Ry
     estimated scf accuracy    <          8.0E-09 Ry

     total magnetization       =     5.04 Bohr mag/cell
     absolute magnetization    =     5.35 Bohr mag/cell

     iteration # 14     ecut=    30.00 Ry     beta= 0.50
     Davidson diagonalization with overlap
     ethr =  5.01E-11,  avg # of iterations =  4.6

     total cpu time spent up to now is      205.8 secs

     total energy              =    -111.50824904 Ry
     estimated scf accuracy    <          4.3E-09 Ry

     total magnetization       =     5.04 Bohr mag/cell
     absolute magnetization    =     5.35 Bohr mag/cell

     iteration # 15     ecut=    30.00 Ry     beta= 0.50
     Davidson diagonalization with overlap
     ethr =  2.71E-11,  avg # of iterations =  2.4

     total cpu time spent up to now is      207.3 secs

     total energy              =    -111.50824904 Ry
     estimated scf accuracy    <          6.6E-09 Ry

     total magnetization       =     5.04 Bohr mag/cell
     absolute magnetization    =     5.35 Bohr mag/cell

     iteration # 16     ecut=    30.00 Ry     beta= 0.50
     Davidson diagonalization with overlap
     ethr =  2.71E-11,  avg # of iterations =  2.2

     Magnetic moment per site  (integrated on atomic sphere of radius R)
     atom   1 (R=0.412)  charge=  6.5283  magn=  2.5803
     atom   2 (R=0.412)  charge=  6.5283  magn=  2.5803

     total cpu time spent up to now is      209.4 secs

     End of self-consistent calculation

 ------ SPIN UP ------------


          k = 0.0000 0.0000 0.0000 (   391 PWs)   bands (ev):

     4.1549   7.6421   9.7400  10.3971  10.4004  10.5741  10.5776  11.1228
    11.1588  11.1594  11.7808  11.7814

          k = 0.0000 0.0000-0.2708 (   422 PWs)   bands (ev):

     5.8983   5.8984   9.5987   9.5988  10.4055  10.4055  10.4086  10.4086
    11.5556  11.5556  11.5557  11.5558

          k =-0.0000-0.5784 0.0000 (   428 PWs)   bands (ev):

     8.1567   8.1750   8.2505   9.7825  10.4161  10.5055  10.7129  11.7755
    12.5739  12.6362  14.1479  16.0550

          k =-0.0000-0.5784-0.2708 (   420 PWs)   bands (ev):

     7.8782   7.8782   8.8921   8.8922  11.0483  11.0483  11.7586  11.7586
    12.6072  12.6072  14.1171  14.1171

          k =-0.5008 0.2892 0.0000 (   428 PWs)   bands (ev):

     8.1598   8.1778   8.2502   9.7823  10.4173  10.5048  10.7120  11.7761
    12.5691  12.6314  14.1469  16.0535

          k =-0.5008 0.2892-0.2708 (   420 PWs)   bands (ev):

     7.8796   7.8796   8.8935   8.8935  11.0492  11.0492  11.7584  11.7584
    12.6024  12.6024  14.1148  14.1148

 ------ SPIN DOWN ----------


          k = 0.0000 0.0000 0.0000 (   391 PWs)   bands (ev):

     4.2481   8.6061  11.2195  11.8325  12.9087  12.9168  13.1384  13.1464
    14.4682  14.4685  15.2173  15.2176

          k = 0.0000 0.0000-0.2708 (   422 PWs)   bands (ev):

     6.0297   6.0298  11.3837  11.3837  12.9573  12.9573  12.9650  12.9651
    14.9180  14.9181  14.9186  14.9186

          k =-0.0000-0.5784 0.0000 (   428 PWs)   bands (ev):

     9.5685   9.8580  10.4050  11.6761  12.3724  12.5368  13.5048  15.2247
    15.5089  15.5814  15.9183  17.2741

          k =-0.0000-0.5784-0.2708 (   420 PWs)   bands (ev):

     9.5290   9.5290  11.0153  11.0153  13.4190  13.4191  14.2808  14.2809
    15.3531  15.3531  15.5485  15.5485

          k =-0.5008 0.2892 0.0000 (   428 PWs)   bands (ev):

     9.5660   9.8552  10.4048  11.6748  12.3723  12.5349  13.5061  15.2251
    15.5130  15.5855  15.9170  17.2721

          k =-0.5008 0.2892-0.2708 (   420 PWs)   bands (ev):

     9.5271   9.5271  11.0138  11.0138  13.4176  13.4176  14.2818  14.2818
    15.3523  15.3524  15.5526  15.5526

     the Fermi energy is    13.0971 ev

!    total energy              =    -111.50824904 Ry
     estimated scf accuracy    <          5.9E-10 Ry
     smearing contrib. (-TS)   =       0.00109928 Ry
     internal energy E=F+TS    =    -111.50934832 Ry

     The total energy is F=E-TS. E is the sum of the following terms:
     one-electron contribution =      11.05775145 Ry
     hartree contribution      =      14.69380588 Ry
     xc contribution           =     -53.06621651 Ry
     ewald contribution        =     -84.19468915 Ry

     total magnetization       =     5.04 Bohr mag/cell
     absolute magnetization    =     5.35 Bohr mag/cell

     convergence has been achieved in  16 iterations

     Forces acting on atoms (cartesian axes, Ry/au):

     atom    1 type  1   force =     0.00000000    0.00005193    0.00000000
     atom    2 type  1   force =    -0.00000000   -0.00005193    0.00000000
     The non-local contrib.  to forces
     atom    1 type  1   force =     0.00000000    0.00014435    0.00000000
     atom    2 type  1   force =    -0.00000000   -0.00014434    0.00000000
     The ionic contribution  to forces
     atom    1 type  1   force =     0.00000000   -0.00020379   -0.00002828
     atom    2 type  1   force =     0.00000000    0.00020379    0.00002828
     The local contribution  to forces
     atom    1 type  1   force =    -0.00000000    0.00011932    0.00000000
     atom    2 type  1   force =    -0.00000000   -0.00011920    0.00009407
     The core correction contribution to forces
     atom    1 type  1   force =     0.00000000   -0.00000814    0.00000002
     atom    2 type  1   force =    -0.00000000    0.00000817    0.00001488
     The Hubbard contrib.    to forces
     atom    1 type  1   force =     0.00000000    0.00000000    0.00000000
     atom    2 type  1   force =     0.00000000    0.00000000    0.00000000
     The SCF correction term to forces
     atom    1 type  1   force =     0.00000000    0.00000024   -0.00000000
     atom    2 type  1   force =    -0.00000000   -0.00000031    0.00000000

     Total force =     0.000073     Total SCF correction =     0.000000


     Computing stress (Cartesian axis) and pressure

          total   stress  (Ry/bohr**3)                   (kbar)     P=      -20.98
  -0.00011493  -0.00000000   0.00000000          -16.91       -0.00        0.00
  -0.00000000  -0.00015921   0.00000000           -0.00      -23.42        0.00
   0.00000000   0.00000000  -0.00015380            0.00        0.00      -22.62

     Energy error            =      1.3E-03 Ry
     Gradient error          =      5.2E-05 Ry/Bohr
     Cell gradient error     =      2.3E+01 kbar

     number of scf cycles    =   4
     number of bfgs steps    =   3

     enthalpy           old  =    -111.5069903055 Ry
     enthalpy           new  =    -111.5082490438 Ry

     CASE: enthalpy          _new < enthalpy          _old

     new trust radius        =       0.0122362875 bohr
     new conv_thr            =       0.0000000010 Ry

     new unit-cell volume =    165.99996 a.u.^3 (    24.59866 Ang^3 )
     density =      7.53966 g/cm^3

CELL_PARAMETERS (angstrom)
   2.488266355  -0.000000000   0.000000000
  -1.244133178   2.151000018   0.000000000
   0.000000000   0.000000000   4.595937372

ATOMIC_POSITIONS (angstrom)
Fe            0.0000000000        0.0000468095        0.0000000000
Fe            0.0000000000        1.4339575013        2.2979670509



     Writing config-only to output data dir /home/gridsan/epan1/labutil/lab3_samples/problem1/Lab3/Fe_hcp_a_2.5_ecut_30_nk_2/pwscf.save/
     NEW-OLD atomic charge density approx. for the potential

     Check: negative core charge=   -0.000008
     extrapolated charge   15.80127, renormalised to   16.00000
     Generating pointlists ...

     total cpu time spent up to now is      211.3 secs

     Self-consistent Calculation

     iteration #  1     ecut=    30.00 Ry     beta= 0.50
     Davidson diagonalization with overlap
     ethr =  1.00E-06,  avg # of iterations =  6.0

     total cpu time spent up to now is      214.9 secs

     total energy              =    -111.49464920 Ry
     estimated scf accuracy    <       0.01412664 Ry

     total magnetization       =     5.03 Bohr mag/cell
     absolute magnetization    =     5.37 Bohr mag/cell

     iteration #  2     ecut=    30.00 Ry     beta= 0.50
     Davidson diagonalization with overlap
     ethr =  8.83E-05,  avg # of iterations =  4.2

     total cpu time spent up to now is      218.7 secs

     total energy              =    -111.50601853 Ry
     estimated scf accuracy    <       0.04098983 Ry

     total magnetization       =     5.10 Bohr mag/cell
     absolute magnetization    =     5.44 Bohr mag/cell

     iteration #  3     ecut=    30.00 Ry     beta= 0.50
     Davidson diagonalization with overlap
     ethr =  8.83E-05,  avg # of iterations =  2.0

     total cpu time spent up to now is      222.3 secs

     total energy              =    -111.50867592 Ry
     estimated scf accuracy    <       0.00558027 Ry

     total magnetization       =     5.06 Bohr mag/cell
     absolute magnetization    =     5.37 Bohr mag/cell

     iteration #  4     ecut=    30.00 Ry     beta= 0.50
     Davidson diagonalization with overlap
     ethr =  3.49E-05,  avg # of iterations =  1.2

     total cpu time spent up to now is      224.5 secs

     total energy              =    -111.50853846 Ry
     estimated scf accuracy    <       0.00530100 Ry

     total magnetization       =     5.06 Bohr mag/cell
     absolute magnetization    =     5.36 Bohr mag/cell

     iteration #  5     ecut=    30.00 Ry     beta= 0.50
     Davidson diagonalization with overlap
     ethr =  3.31E-05,  avg # of iterations =  1.0

     total cpu time spent up to now is      225.7 secs

     total energy              =    -111.50848586 Ry
     estimated scf accuracy    <       0.00141294 Ry

     total magnetization       =     5.06 Bohr mag/cell
     absolute magnetization    =     5.36 Bohr mag/cell

     iteration #  6     ecut=    30.00 Ry     beta= 0.50
     Davidson diagonalization with overlap
     ethr =  8.83E-06,  avg # of iterations =  1.2

     total cpu time spent up to now is      229.3 secs

     total energy              =    -111.50825612 Ry
     estimated scf accuracy    <       0.00055789 Ry

     total magnetization       =     5.06 Bohr mag/cell
     absolute magnetization    =     5.36 Bohr mag/cell

     iteration #  7     ecut=    30.00 Ry     beta= 0.50
     Davidson diagonalization with overlap
     ethr =  3.49E-06,  avg # of iterations =  3.2

     total cpu time spent up to now is      231.6 secs

     total energy              =    -111.50844216 Ry
     estimated scf accuracy    <       0.00004884 Ry

     total magnetization       =     5.06 Bohr mag/cell
     absolute magnetization    =     5.36 Bohr mag/cell

     iteration #  8     ecut=    30.00 Ry     beta= 0.50
     Davidson diagonalization with overlap
     ethr =  3.05E-07,  avg # of iterations =  2.7

     total cpu time spent up to now is      233.4 secs

     total energy              =    -111.50843257 Ry
     estimated scf accuracy    <       0.00009068 Ry

     total magnetization       =     5.06 Bohr mag/cell
     absolute magnetization    =     5.36 Bohr mag/cell

     iteration #  9     ecut=    30.00 Ry     beta= 0.50
     Davidson diagonalization with overlap
     ethr =  3.05E-07,  avg # of iterations =  1.5

     total cpu time spent up to now is      235.1 secs

     total energy              =    -111.50843138 Ry
     estimated scf accuracy    <       0.00003023 Ry

     total magnetization       =     5.05 Bohr mag/cell
     absolute magnetization    =     5.35 Bohr mag/cell

     iteration # 10     ecut=    30.00 Ry     beta= 0.50
     Davidson diagonalization with overlap
     ethr =  1.89E-07,  avg # of iterations =  1.1

     total cpu time spent up to now is      236.8 secs

     total energy              =    -111.50842870 Ry
     estimated scf accuracy    <       0.00001359 Ry

     total magnetization       =     5.05 Bohr mag/cell
     absolute magnetization    =     5.35 Bohr mag/cell

     iteration # 11     ecut=    30.00 Ry     beta= 0.50
     Davidson diagonalization with overlap
     ethr =  8.50E-08,  avg # of iterations =  2.0

     total cpu time spent up to now is      239.0 secs

     total energy              =    -111.50842957 Ry
     estimated scf accuracy    <       0.00000170 Ry

     total magnetization       =     5.06 Bohr mag/cell
     absolute magnetization    =     5.35 Bohr mag/cell

     iteration # 12     ecut=    30.00 Ry     beta= 0.50
     Davidson diagonalization with overlap
     ethr =  1.06E-08,  avg # of iterations =  3.0

     total cpu time spent up to now is      240.2 secs

     total energy              =    -111.50843002 Ry
     estimated scf accuracy    <       0.00000014 Ry

     total magnetization       =     5.06 Bohr mag/cell
     absolute magnetization    =     5.35 Bohr mag/cell

     iteration # 13     ecut=    30.00 Ry     beta= 0.50
     Davidson diagonalization with overlap
     ethr =  8.84E-10,  avg # of iterations =  4.3

     total cpu time spent up to now is      242.1 secs

     total energy              =    -111.50843011 Ry
     estimated scf accuracy    <       0.00000008 Ry

     total magnetization       =     5.06 Bohr mag/cell
     absolute magnetization    =     5.35 Bohr mag/cell

     iteration # 14     ecut=    30.00 Ry     beta= 0.50
     Davidson diagonalization with overlap
     ethr =  5.21E-10,  avg # of iterations =  1.2

     total cpu time spent up to now is      243.2 secs

     total energy              =    -111.50843011 Ry
     estimated scf accuracy    <       0.00000004 Ry

     total magnetization       =     5.06 Bohr mag/cell
     absolute magnetization    =     5.35 Bohr mag/cell

     iteration # 15     ecut=    30.00 Ry     beta= 0.50
     Davidson diagonalization with overlap
     ethr =  2.31E-10,  avg # of iterations =  2.0

     total cpu time spent up to now is      245.0 secs

     total energy              =    -111.50843012 Ry
     estimated scf accuracy    <          2.8E-09 Ry

     total magnetization       =     5.06 Bohr mag/cell
     absolute magnetization    =     5.35 Bohr mag/cell

     iteration # 16     ecut=    30.00 Ry     beta= 0.50
     Davidson diagonalization with overlap
     ethr =  1.73E-11,  avg # of iterations =  4.6

     Magnetic moment per site  (integrated on atomic sphere of radius R)
     atom   1 (R=0.412)  charge=  6.5410  magn=  2.5834
     atom   2 (R=0.412)  charge=  6.5410  magn=  2.5834

     total cpu time spent up to now is      248.8 secs

     End of self-consistent calculation

 ------ SPIN UP ------------


          k = 0.0000 0.0000 0.0000 (   391 PWs)   bands (ev):

     4.2836   7.7908   9.9144  10.5651  10.5956  10.7455  10.7779  11.3008
    11.3580  11.3641  11.9942  11.9996

          k = 0.0000 0.0000-0.2720 (   422 PWs)   bands (ev):

     6.0436   6.0437   9.7675   9.7676  10.5752  10.5752  10.6030  10.6030
    11.7653  11.7654  11.7673  11.7673

          k =-0.0000-0.5811 0.0000 (   428 PWs)   bands (ev):

     8.2814   8.3075   8.3962   9.9602  10.5956  10.6958  10.9012  11.9893
    12.8220  12.8859  14.3849  16.3191

          k =-0.0000-0.5811-0.2720 (   420 PWs)   bands (ev):

     8.0103   8.0103   9.0413   9.0413  11.2431  11.2432  11.9683  11.9683
    12.8561  12.8561  14.3465  14.3466

          k =-0.5024 0.2906 0.0000 (   428 PWs)   bands (ev):

     8.3107   8.3337   8.3934   9.9577  10.6069  10.6891  10.8917  11.9947
    12.7774  12.8411  14.3756  16.3043

          k =-0.5024 0.2906-0.2720 (   420 PWs)   bands (ev):

     8.0239   8.0239   9.0537   9.0537  11.2519  11.2519  11.9660  11.9660
    12.8116  12.8116  14.3247  14.3247

 ------ SPIN DOWN ----------


          k = 0.0000 0.0000 0.0000 (   391 PWs)   bands (ev):

     4.3883   8.7652  11.4105  12.0063  13.0653  13.1408  13.3002  13.3750
    14.6726  14.6761  15.4370  15.4395

          k = 0.0000 0.0000-0.2720 (   422 PWs)   bands (ev):

     6.1872   6.1873  11.5521  11.5522  13.1156  13.1156  13.1883  13.1883
    15.1312  15.1313  15.1366  15.1366

          k =-0.0000-0.5811 0.0000 (   428 PWs)   bands (ev):

     9.7408  10.0226  10.5499  11.8698  12.5508  12.7347  13.6861  15.4449
    15.7198  15.7937  16.1672  17.5494

          k =-0.0000-0.5811-0.2720 (   420 PWs)   bands (ev):

     9.6860   9.6860  11.1835  11.1836  13.6344  13.6345  14.4789  14.4789
    15.5896  15.5896  15.7602  15.7602

          k =-0.5024 0.2906 0.0000 (   428 PWs)   bands (ev):

     9.7169   9.9970  10.5487  11.8565  12.5493  12.7162  13.6986  15.4488
    15.7574  15.8314  16.1553  17.5303

          k =-0.5024 0.2906-0.2720 (   420 PWs)   bands (ev):

     9.6682   9.6682  11.1692  11.1693  13.6207  13.6207  14.4881  14.4882
    15.5818  15.5818  15.7979  15.7979

     the Fermi energy is    13.2889 ev

!    total energy              =    -111.50843012 Ry
     estimated scf accuracy    <          9.3E-11 Ry
     smearing contrib. (-TS)   =       0.00138703 Ry
     internal energy E=F+TS    =    -111.50981715 Ry

     The total energy is F=E-TS. E is the sum of the following terms:
     one-electron contribution =      11.55922589 Ry
     hartree contribution      =      14.55948894 Ry
     xc contribution           =     -53.08459295 Ry
     ewald contribution        =     -84.54393902 Ry

     total magnetization       =     5.06 Bohr mag/cell
     absolute magnetization    =     5.35 Bohr mag/cell

     convergence has been achieved in  16 iterations

     Forces acting on atoms (cartesian axes, Ry/au):

     atom    1 type  1   force =     0.00000000    0.00048071    0.00000000
     atom    2 type  1   force =    -0.00000000   -0.00048071    0.00000000
     The non-local contrib.  to forces
     atom    1 type  1   force =     0.00000000    0.00135090    0.00000000
     atom    2 type  1   force =    -0.00000000   -0.00135022    0.00000000
     The ionic contribution  to forces
     atom    1 type  1   force =     0.00000000   -0.00190045   -0.00002850
     atom    2 type  1   force =     0.00000000    0.00190045    0.00002850
     The local contribution  to forces
     atom    1 type  1   force =    -0.00000000    0.00110686    0.00000000
     atom    2 type  1   force =    -0.00000000   -0.00110830    0.00009344
     The core correction contribution to forces
     atom    1 type  1   force =    -0.00000000   -0.00007509    0.00000002
     atom    2 type  1   force =     0.00000000    0.00007490    0.00001480
     The Hubbard contrib.    to forces
     atom    1 type  1   force =     0.00000000    0.00000000    0.00000000
     atom    2 type  1   force =     0.00000000    0.00000000    0.00000000
     The SCF correction term to forces
     atom    1 type  1   force =     0.00000000   -0.00000104   -0.00000000
     atom    2 type  1   force =    -0.00000000    0.00000293    0.00000000

     Total force =     0.000680     Total SCF correction =     0.000003


     Computing stress (Cartesian axis) and pressure

          total   stress  (Ry/bohr**3)                   (kbar)     P=        0.17
   0.00022164  -0.00000000   0.00000000           32.60       -0.00        0.00
  -0.00000000  -0.00019589   0.00000000           -0.00      -28.82        0.00
   0.00000000   0.00000000  -0.00002237            0.00        0.00       -3.29

     Energy error            =      1.8E-04 Ry
     Gradient error          =      4.8E-04 Ry/Bohr
     Cell gradient error     =      3.3E+01 kbar

     number of scf cycles    =   5
     number of bfgs steps    =   4

     enthalpy           old  =    -111.5082490438 Ry
     enthalpy           new  =    -111.5084301224 Ry

     CASE: enthalpy          _new < enthalpy          _old

     new trust radius        =       0.0366559697 bohr
     new conv_thr            =       0.0000000010 Ry

     new unit-cell volume =    162.40136 a.u.^3 (    24.06540 Ang^3 )
     density =      7.70673 g/cm^3

CELL_PARAMETERS (angstrom)
   2.490706621  -0.000000000   0.000000000
  -1.245353310   2.120401447   0.000000000
   0.000000000   0.000000000   4.556720410

ATOMIC_POSITIONS (angstrom)
Fe            0.0000000000        0.0003672271        0.0000000000
Fe            0.0000000000        1.4132379754        2.2783585838



     Writing config-only to output data dir /home/gridsan/epan1/labutil/lab3_samples/problem1/Lab3/Fe_hcp_a_2.5_ecut_30_nk_2/pwscf.save/
     NEW-OLD atomic charge density approx. for the potential

     Check: negative core charge=   -0.000006
     extrapolated charge   15.64549, renormalised to   16.00000
     Generating pointlists ...
     new r_m :   0.4057 (alat units)  1.9169 (a.u.) for type    1

     total cpu time spent up to now is      250.7 secs

     Self-consistent Calculation

     iteration #  1     ecut=    30.00 Ry     beta= 0.50
     Davidson diagonalization with overlap
     ethr =  1.00E-06,  avg # of iterations =  7.6

     total cpu time spent up to now is      258.3 secs

     total energy              =    -111.46686930 Ry
     estimated scf accuracy    <       0.04363978 Ry

     total magnetization       =     5.01 Bohr mag/cell
     absolute magnetization    =     5.36 Bohr mag/cell

     iteration #  2     ecut=    30.00 Ry     beta= 0.50
     Davidson diagonalization with overlap
     ethr =  2.73E-04,  avg # of iterations =  4.2

     total cpu time spent up to now is      262.0 secs

     total energy              =    -111.49518765 Ry
     estimated scf accuracy    <       0.19080246 Ry

     total magnetization       =     4.63 Bohr mag/cell
     absolute magnetization    =     5.18 Bohr mag/cell

     iteration #  3     ecut=    30.00 Ry     beta= 0.50
     Davidson diagonalization with overlap
     ethr =  2.73E-04,  avg # of iterations =  2.0

     total cpu time spent up to now is      263.2 secs

     total energy              =    -111.50923405 Ry
     estimated scf accuracy    <       0.01431098 Ry

     total magnetization       =     5.08 Bohr mag/cell
     absolute magnetization    =     5.37 Bohr mag/cell

     iteration #  4     ecut=    30.00 Ry     beta= 0.50
     Davidson diagonalization with overlap
     ethr =  8.94E-05,  avg # of iterations =  1.9

     total cpu time spent up to now is      265.7 secs

     total energy              =    -111.50974979 Ry
     estimated scf accuracy    <       0.00497172 Ry

     total magnetization       =     5.06 Bohr mag/cell
     absolute magnetization    =     5.36 Bohr mag/cell

     iteration #  5     ecut=    30.00 Ry     beta= 0.50
     Davidson diagonalization with overlap
     ethr =  3.11E-05,  avg # of iterations =  1.6

     total cpu time spent up to now is      268.3 secs

     total energy              =    -111.50877711 Ry
     estimated scf accuracy    <       0.00400435 Ry

     total magnetization       =     5.06 Bohr mag/cell
     absolute magnetization    =     5.35 Bohr mag/cell

     iteration #  6     ecut=    30.00 Ry     beta= 0.50
     Davidson diagonalization with overlap
     ethr =  2.50E-05,  avg # of iterations =  2.2

     total cpu time spent up to now is      270.8 secs

     total energy              =    -111.50937215 Ry
     estimated scf accuracy    <       0.00006190 Ry

     total magnetization       =     5.04 Bohr mag/cell
     absolute magnetization    =     5.34 Bohr mag/cell

     iteration #  7     ecut=    30.00 Ry     beta= 0.50
     Davidson diagonalization with overlap
     ethr =  3.87E-07,  avg # of iterations =  4.0

     total cpu time spent up to now is      273.2 secs

     total energy              =    -111.50943932 Ry
     estimated scf accuracy    <       0.00015438 Ry

     total magnetization       =     5.04 Bohr mag/cell
     absolute magnetization    =     5.33 Bohr mag/cell

     iteration #  8     ecut=    30.00 Ry     beta= 0.50
     Davidson diagonalization with overlap
     ethr =  3.87E-07,  avg # of iterations =  1.3

     total cpu time spent up to now is      274.6 secs

     total energy              =    -111.50943402 Ry
     estimated scf accuracy    <       0.00004559 Ry

     total magnetization       =     5.05 Bohr mag/cell
     absolute magnetization    =     5.33 Bohr mag/cell

     iteration #  9     ecut=    30.00 Ry     beta= 0.50
     Davidson diagonalization with overlap
     ethr =  2.85E-07,  avg # of iterations =  1.8

     total cpu time spent up to now is      277.3 secs

[...]
     The local contribution  to forces
     atom    1 type  1   force =     0.00000000    0.40448633   -0.00000000
     atom    2 type  1   force =    -0.00000000   -0.40448816    0.00008660
     The core correction contribution to forces
     atom    1 type  1   force =    -0.00000000    0.00243991   -0.00000001
     atom    2 type  1   force =    -0.00000000   -0.00244026    0.00001380
     The Hubbard contrib.    to forces
     atom    1 type  1   force =     0.00000000    0.00000000    0.00000000
     atom    2 type  1   force =     0.00000000    0.00000000    0.00000000
     The SCF correction term to forces
     atom    1 type  1   force =    -0.00000000   -0.00000133    0.00000000
     atom    2 type  1   force =    -0.00000000    0.00000327    0.00000000

     Total force =     0.001041     Total SCF correction =     0.000004


     Computing stress (Cartesian axis) and pressure

          total   stress  (Ry/bohr**3)                   (kbar)     P=        5.99
   0.00004368  -0.00000000   0.00000000            6.43       -0.00        0.00
  -0.00000000   0.00003782   0.00000000           -0.00        5.56        0.00
   0.00000000   0.00000000   0.00004056            0.00        0.00        5.97

     Energy error            =      2.1E-03 Ry
     Gradient error          =      7.4E-04 Ry/Bohr
     Cell gradient error     =      6.4E+00 kbar

     number of scf cycles    =  49
     number of bfgs steps    =  22

     enthalpy           old  =    -111.5808361828 Ry
     enthalpy           new  =    -111.5787673472 Ry

     CASE: enthalpy          _new > enthalpy          _old

     new trust radius        =       0.0003977815 bohr
     new conv_thr            =       0.0000000010 Ry

     new unit-cell volume =    156.19196 a.u.^3 (    23.14526 Ang^3 )
     density =      8.01311 g/cm^3

CELL_PARAMETERS (angstrom)
   3.043804167   0.000000000   0.000000000
  -1.521902083   1.677263874   0.000000000
   0.000000000   0.000000000   4.533608070

ATOMIC_POSITIONS (angstrom)
Fe           -0.0000000000        0.0958501634        0.0000000000
Fe            0.0000000000        1.0223291046        2.2668024221



     Writing config-only to output data dir /home/gridsan/epan1/labutil/lab3_samples/problem1/Lab3/Fe_hcp_a_2.5_ecut_30_nk_2/pwscf.save/
     NEW-OLD atomic charge density approx. for the potential

     Check: negative core charge=   -0.000021
     extrapolated charge   16.11272, renormalised to   16.00000
     Generating pointlists ...

     total cpu time spent up to now is     2207.7 secs

     Self-consistent Calculation

     iteration #  1     ecut=    30.00 Ry     beta= 0.50
     Davidson diagonalization with overlap
     ethr =  1.00E-06,  avg # of iterations =  5.8

     total cpu time spent up to now is     2209.1 secs

     total energy              =    -111.56670578 Ry
     estimated scf accuracy    <       0.00602680 Ry

     total magnetization       =     3.99 Bohr mag/cell
     absolute magnetization    =     4.50 Bohr mag/cell

     iteration #  2     ecut=    30.00 Ry     beta= 0.50
     Davidson diagonalization with overlap
     ethr =  3.77E-05,  avg # of iterations =  3.6

     total cpu time spent up to now is     2210.0 secs

     total energy              =    -111.57140689 Ry
     estimated scf accuracy    <       0.01210036 Ry

     total magnetization       =     4.02 Bohr mag/cell
     absolute magnetization    =     4.53 Bohr mag/cell

     iteration #  3     ecut=    30.00 Ry     beta= 0.50
     Davidson diagonalization with overlap
     ethr =  3.77E-05,  avg # of iterations =  1.8

     total cpu time spent up to now is     2210.5 secs

     total energy              =    -111.57256226 Ry
     estimated scf accuracy    <       0.00215291 Ry

     total magnetization       =     4.03 Bohr mag/cell
     absolute magnetization    =     4.55 Bohr mag/cell

     iteration #  4     ecut=    30.00 Ry     beta= 0.50
     Davidson diagonalization with overlap
     ethr =  1.35E-05,  avg # of iterations =  1.0

     total cpu time spent up to now is     2211.0 secs

     total energy              =    -111.57211516 Ry
     estimated scf accuracy    <       0.00309039 Ry

     total magnetization       =     4.03 Bohr mag/cell
     absolute magnetization    =     4.55 Bohr mag/cell

     iteration #  5     ecut=    30.00 Ry     beta= 0.50
     Davidson diagonalization with overlap
     ethr =  1.35E-05,  avg # of iterations =  1.0
     Minimization algorithm failed to find Fermi energy: reverting to bisection
     Possible cause: smearing is larger than the electronic band-gap.

     total cpu time spent up to now is     2211.6 secs

     total energy              =    -111.57201845 Ry
     estimated scf accuracy    <       0.00144468 Ry

     total magnetization       =     4.03 Bohr mag/cell
     absolute magnetization    =     4.55 Bohr mag/cell

     iteration #  6     ecut=    30.00 Ry     beta= 0.50
     Davidson diagonalization with overlap
     ethr =  9.03E-06,  avg # of iterations =  1.0

     total cpu time spent up to now is     2212.5 secs

     WARNING: integrated charge=    15.99846174, expected=    16.00000000

     total energy              =    -111.58161432 Ry
     estimated scf accuracy    <       0.00047019 Ry

     total magnetization       =     3.98 Bohr mag/cell
     absolute magnetization    =     4.50 Bohr mag/cell

     iteration #  7     ecut=    30.00 Ry     beta= 0.50
     Davidson diagonalization with overlap
     ethr =  2.94E-06,  avg # of iterations =  2.2

     total cpu time spent up to now is     2213.4 secs

     WARNING: integrated charge=    15.99865821, expected=    16.00000000

     total energy              =    -111.57808018 Ry
     estimated scf accuracy    <       0.00006071 Ry

     total magnetization       =     3.98 Bohr mag/cell
     absolute magnetization    =     4.50 Bohr mag/cell

     iteration #  8     ecut=    30.00 Ry     beta= 0.50
     Davidson diagonalization with overlap
     ethr =  3.79E-07,  avg # of iterations =  2.7

     total cpu time spent up to now is     2214.4 secs

     WARNING: integrated charge=    15.99832150, expected=    16.00000000

     total energy              =    -111.57782906 Ry
     estimated scf accuracy    <       0.00007786 Ry

     total magnetization       =     3.98 Bohr mag/cell
     absolute magnetization    =     4.50 Bohr mag/cell

     iteration #  9     ecut=    30.00 Ry     beta= 0.50
     Davidson diagonalization with overlap
     ethr =  3.79E-07,  avg # of iterations =  1.0

     total cpu time spent up to now is     2214.8 secs

     WARNING: integrated charge=    15.99701471, expected=    16.00000000

     total energy              =    -111.57853621 Ry
     estimated scf accuracy    <       0.00005405 Ry

     total magnetization       =     3.98 Bohr mag/cell
     absolute magnetization    =     4.51 Bohr mag/cell

     iteration # 10     ecut=    30.00 Ry     beta= 0.50
     Davidson diagonalization with overlap
     ethr =  3.38E-07,  avg # of iterations =  2.1

     total cpu time spent up to now is     2215.3 secs

     WARNING: integrated charge=    15.99526322, expected=    16.00000000

     total energy              =    -111.58115116 Ry
     estimated scf accuracy    <       0.00000718 Ry

     total magnetization       =     3.98 Bohr mag/cell
     absolute magnetization    =     4.50 Bohr mag/cell

     iteration # 11     ecut=    30.00 Ry     beta= 0.50
     Davidson diagonalization with overlap
     ethr =  4.49E-08,  avg # of iterations =  1.6

     total cpu time spent up to now is     2216.4 secs

     WARNING: integrated charge=    15.99000220, expected=    16.00000000

     total energy              =    -111.58069777 Ry
     estimated scf accuracy    <       0.00000101 Ry

     total magnetization       =     3.98 Bohr mag/cell
     absolute magnetization    =     4.51 Bohr mag/cell

     iteration # 12     ecut=    30.00 Ry     beta= 0.50
     Davidson diagonalization with overlap
     ethr =  6.33E-09,  avg # of iterations =  2.5

     total cpu time spent up to now is     2218.0 secs

     WARNING: integrated charge=    15.99011841, expected=    16.00000000

     total energy              =    -111.58097959 Ry
     estimated scf accuracy    <       0.00000177 Ry

     total magnetization       =     3.98 Bohr mag/cell
     absolute magnetization    =     4.50 Bohr mag/cell

     iteration # 13     ecut=    30.00 Ry     beta= 0.50
     Davidson diagonalization with overlap
     ethr =  6.33E-09,  avg # of iterations =  1.0

     total cpu time spent up to now is     2219.8 secs

     WARNING: integrated charge=    15.99126044, expected=    16.00000000

     total energy              =    -111.58098570 Ry
     estimated scf accuracy    <       0.00000088 Ry

     total magnetization       =     3.98 Bohr mag/cell
     absolute magnetization    =     4.50 Bohr mag/cell

     iteration # 14     ecut=    30.00 Ry     beta= 0.50
     Davidson diagonalization with overlap
     ethr =  5.53E-09,  avg # of iterations =  1.5

     total cpu time spent up to now is     2220.9 secs

     WARNING: integrated charge=    15.99146852, expected=    16.00000000

     total energy              =    -111.58084805 Ry
     estimated scf accuracy    <       0.00000004 Ry

     total magnetization       =     3.98 Bohr mag/cell
     absolute magnetization    =     4.50 Bohr mag/cell

     iteration # 15     ecut=    30.00 Ry     beta= 0.50
     Davidson diagonalization with overlap
     ethr =  2.60E-10,  avg # of iterations =  4.1

     total cpu time spent up to now is     2221.8 secs

     WARNING: integrated charge=    15.99147313, expected=    16.00000000

     total energy              =    -111.58080550 Ry
     estimated scf accuracy    <          5.2E-09 Ry

     total magnetization       =     3.98 Bohr mag/cell
     absolute magnetization    =     4.51 Bohr mag/cell

     iteration # 16     ecut=    30.00 Ry     beta= 0.50
     Davidson diagonalization with overlap
     ethr =  3.25E-11,  avg # of iterations =  4.2

     total cpu time spent up to now is     2222.7 secs

     WARNING: integrated charge=    15.99147551, expected=    16.00000000

     total energy              =    -111.58080279 Ry
     estimated scf accuracy    <          4.0E-09 Ry

     total magnetization       =     3.98 Bohr mag/cell
     absolute magnetization    =     4.51 Bohr mag/cell

     iteration # 17     ecut=    30.00 Ry     beta= 0.50
     Davidson diagonalization with overlap
     ethr =  2.53E-11,  avg # of iterations =  1.0

     total cpu time spent up to now is     2223.3 secs

     WARNING: integrated charge=    15.99146152, expected=    16.00000000

     total energy              =    -111.58080352 Ry
     estimated scf accuracy    <          4.7E-09 Ry

     total magnetization       =     3.98 Bohr mag/cell
     absolute magnetization    =     4.51 Bohr mag/cell

     iteration # 18     ecut=    30.00 Ry     beta= 0.50
     Davidson diagonalization with overlap
     ethr =  2.53E-11,  avg # of iterations =  2.2

     Magnetic moment per site  (integrated on atomic sphere of radius R)
     atom   1 (R=0.366)  charge=  5.9865  magn=  2.0920
     atom   2 (R=0.366)  charge=  5.9865  magn=  2.0920

     total cpu time spent up to now is     2224.2 secs

     End of self-consistent calculation

 ------ SPIN UP ------------


          k = 0.0000 0.0000 0.0000 (   391 PWs)   bands (ev):

     5.1351   8.3563   9.0179   9.1133  10.2897  12.3696  12.3701  12.4416
    12.4622  12.5087  12.5292  12.8401

          k = 0.0000 0.0000-0.2757 (   422 PWs)   bands (ev):

     6.8211   6.8211   9.0246   9.0246  10.4100  10.4100  12.4603  12.4603
    12.4728  12.4728  12.7722  12.7723

          k = 0.0000-0.7453 0.0000 (   428 PWs)   bands (ev):

     7.6053   8.0367   9.5928   9.9987  10.5877  12.0194  12.0670  13.2883
    14.3043  14.3593  20.2284  21.0580

          k = 0.0000-0.7453-0.2757 (   420 PWs)   bands (ev):

     7.7739   7.7739  10.0028  10.0028  10.6254  10.6255  13.3718  13.3718
    14.3336  14.3336  19.9761  19.9761

          k =-0.4107 0.3726 0.0000 (   428 PWs)   bands (ev):

     8.6075   9.2371   9.3411  10.5668  10.7753  11.3771  11.3990  11.7557
    12.5629  12.9087  14.9136  17.0930

          k =-0.4107 0.3726-0.2757 (   420 PWs)   bands (ev):

     8.7322   8.7322   9.5863   9.5863  11.3180  11.3180  12.5320  12.5321
    12.9234  12.9234  14.9816  14.9816

 ------ SPIN DOWN ----------


          k = 0.0000 0.0000 0.0000 (   391 PWs)   bands (ev):

     5.0419   9.1451  10.1504  10.2626  11.9322  12.3492  15.1163  15.2281
    15.3171  15.6436  15.8743  15.9290

          k = 0.0000 0.0000-0.2757 (   422 PWs)   bands (ev):

     6.8312   6.8313  10.1735  10.1735  11.7739  11.7740  15.3455  15.3455
    15.4842  15.4842  15.9225  15.9225

          k = 0.0000-0.7453 0.0000 (   428 PWs)   bands (ev):

     9.5490  10.0965  11.7721  12.0796  12.8227  13.7325  14.8525  15.2618
    15.9112  15.9708  20.6186  20.9775

          k = 0.0000-0.7453-0.2757 (   420 PWs)   bands (ev):

     9.7449   9.7449  12.0622  12.0622  12.9857  12.9858  15.5832  15.5832
    15.9424  15.9424  19.9318  19.9318

          k =-0.4107 0.3726 0.0000 (   428 PWs)   bands (ev):

     9.9967  10.2921  10.5063  12.0580  12.2469  12.7060  14.4750  14.5014
    15.4040  15.8048  16.5161  17.8778

          k =-0.4107 0.3726-0.2757 (   420 PWs)   bands (ev):

     9.9588   9.9589  11.0238  11.0238  13.6501  13.6502  14.4714  14.4714
    15.6093  15.6093  16.1016  16.1016

     the Fermi energy is    13.9531 ev

     WARNING: integrated charge=    15.99147798, expected=    16.00000000

!    total energy              =    -111.58078034 Ry
     estimated scf accuracy    <          1.1E-10 Ry
     smearing contrib. (-TS)   =       0.00174291 Ry
     internal energy E=F+TS    =    -111.58252325 Ry

     The total energy is F=E-TS. E is the sum of the following terms:
     one-electron contribution =      12.96939676 Ry
     hartree contribution      =      13.93259445 Ry
     xc contribution           =     -52.93593853 Ry
     ewald contribution        =     -85.54857593 Ry

     total magnetization       =     3.98 Bohr mag/cell
     absolute magnetization    =     4.51 Bohr mag/cell

     convergence has been achieved in  18 iterations

     Forces acting on atoms (cartesian axes, Ry/au):

     atom    1 type  1   force =     0.00000000   -0.00073175    0.00000000
     atom    2 type  1   force =    -0.00000000    0.00073175    0.00000000
     The non-local contrib.  to forces
     atom    1 type  1   force =     0.00000000   -0.00553101    0.00000000
     atom    2 type  1   force =    -0.00000000    0.00553236    0.00000000
     The ionic contribution  to forces
     atom    1 type  1   force =     0.00000000   -0.40947455   -0.00003080
     atom    2 type  1   force =     0.00000000    0.40947455    0.00003080
     The local contribution  to forces
     atom    1 type  1   force =     0.00000000    0.41158528   -0.00000000
     atom    2 type  1   force =    -0.00000000   -0.41158768    0.00008656
     The core correction contribution to forces
     atom    1 type  1   force =     0.00000000    0.00266920   -0.00000001
     atom    2 type  1   force =    -0.00000000   -0.00266948    0.00001380
     The Hubbard contrib.    to forces
     atom    1 type  1   force =     0.00000000    0.00000000    0.00000000
     atom    2 type  1   force =     0.00000000    0.00000000    0.00000000
     The SCF correction term to forces
     atom    1 type  1   force =     0.00000000    0.00002087   -0.00000000
     atom    2 type  1   force =    -0.00000000   -0.00001645   -0.00000000

     Total force =     0.001035     Total SCF correction =     0.000027


     Computing stress (Cartesian axis) and pressure

          total   stress  (Ry/bohr**3)                   (kbar)     P=      -14.25
  -0.00013563   0.00000000   0.00000000          -19.95        0.00        0.00
   0.00000000  -0.00014975   0.00000000            0.00      -22.03        0.00
   0.00000000   0.00000000  -0.00000525            0.00        0.00       -0.77

     Energy error            =      5.6E-05 Ry
     Gradient error          =      7.3E-04 Ry/Bohr
     Cell gradient error     =      2.2E+01 kbar

     number of scf cycles    =  50
     number of bfgs steps    =  22

     enthalpy           old  =    -111.5808361828 Ry
     enthalpy           new  =    -111.5807803445 Ry

     CASE: enthalpy          _new > enthalpy          _old

     new trust radius        =       0.0000228656 bohr

     trust_radius < trust_radius_min

     resetting bfgs history


     The maximum number of steps has been reached.

     End of BFGS Geometry Optimization
     new unit-cell volume =    155.02794 a.u.^3 (    22.97277 Ang^3 )
     density =      8.07328 g/cm^3

CELL_PARAMETERS (angstrom)
   3.033276013   0.000000000   0.000000000
  -1.516638006   1.670883779   0.000000000
   0.000000000   0.000000000   4.532681375

ATOMIC_POSITIONS (angstrom)
Fe           -0.0000000000        0.0951075908        0.0000000000
Fe            0.0000000000        1.0188182676        2.2663390751



     Writing config-only to output data dir /home/gridsan/epan1/labutil/lab3_samples/problem1/Lab3/Fe_hcp_a_2.5_ecut_30_nk_2/pwscf.save/
     NEW-OLD atomic charge density approx. for the potential

     Check: negative core charge=   -0.000021
     extrapolated charge   15.87135, renormalised to   16.00000
     Generating pointlists ...

     init_run     :      1.09s CPU      2.25s WALL (       1 calls)
     electrons    :   1183.34s CPU   2111.23s WALL (      50 calls)
     update_pot   :     11.27s CPU     21.78s WALL (      50 calls)
     forces       :     12.59s CPU     25.35s WALL (      50 calls)
     stress       :     23.78s CPU     44.54s WALL (      50 calls)

     Called by init_run:
     wfcinit      :      0.10s CPU      0.21s WALL (       1 calls)
     potinit      :      0.37s CPU      0.75s WALL (       1 calls)
     hinit0       :      0.42s CPU      0.94s WALL (       1 calls)

     Called by electrons:
     c_bands      :    915.37s CPU   1609.01s WALL (     800 calls)
     sum_band     :    118.81s CPU    218.22s WALL (     800 calls)
     v_of_rho     :     51.22s CPU     96.81s WALL (     851 calls)
     newd         :     18.96s CPU     36.08s WALL (     851 calls)
     mix_rho      :     51.07s CPU     91.30s WALL (     800 calls)

     Called by c_bands:
     init_us_2    :      0.76s CPU      1.46s WALL (   20412 calls)
     init_us_2:cp :      0.72s CPU      1.39s WALL (   20412 calls)
     cegterg      :    768.49s CPU   1357.08s WALL (    9600 calls)

     Called by *egterg:
     cdiaghg      :     45.04s CPU    142.40s WALL (   33731 calls)
     h_psi        :    481.02s CPU    817.45s WALL (   34331 calls)
     s_psi        :      0.87s CPU      1.35s WALL (   34331 calls)
     g_psi        :      0.11s CPU      0.21s WALL (   24719 calls)

     Called by h_psi:
     h_psi:calbec :     42.44s CPU     74.88s WALL (   34331 calls)
     vloc_psi     :    437.54s CPU    740.42s WALL (   34331 calls)
     add_vuspsi   :      0.74s CPU      1.14s WALL (   34331 calls)

     General routines
     calbec       :     62.19s CPU    111.28s WALL (   46931 calls)
     fft          :     51.74s CPU     92.60s WALL (   23223 calls)
     ffts         :      6.91s CPU     12.36s WALL (    3302 calls)
     fftw         :    508.17s CPU    865.16s WALL (  721512 calls)
     interpolate  :      6.86s CPU     12.30s WALL (    1702 calls)
     davcio       :      0.00s CPU      0.02s WALL (      12 calls)

     Parallel routines

     PWSCF        :  20m39.38s CPU  37m 5.50s WALL


   This run was terminated on:  17:44: 3   1Nov2023            

=------------------------------------------------------------------------------=
   JOB DONE.
=------------------------------------------------------------------------------=
