
     Program PWSCF v.7.2 starts on 31Oct2023 at 10:22:35 

     This program is part of the open-source Quantum ESPRESSO suite
     for quantum simulation of materials; please cite
         "P. Giannozzi et al., J. Phys.:Condens. Matter 21 395502 (2009);
         "P. Giannozzi et al., J. Phys.:Condens. Matter 29 465901 (2017);
         "P. Giannozzi et al., J. Chem. Phys. 152 154105 (2020);
          URL http://www.quantum-espresso.org", 
     in publications or presentations arising from this work. More details at
     http://www.quantum-espresso.org/quote

     Parallel version (MPI), running on     8 processors

     MPI processes distributed on     8 nodes
     186347 MiB available memory on the printing compute node when the environment starts

     Waiting for input...
     Reading input from standard input

     Current dimensions of program PWSCF are:
     Max number of different atomic species (ntypx) = 10
     Max number of k-points (npk) =  40000
     Max angular momentum in pseudopotentials (lmaxx) =  4
     file Fe.pbe-nd-rrkjus.UPF: wavefunction(s)  4S renormalized
     Message from routine find_sym:
     Not a group! Trying with lower acceptance parameter...
     Message from routine find_sym:
     Symmetry operations form a group
     Message from routine setup:
     using ibrav=0 with symmetry is DISCOURAGED, use correct ibrav instead

     R & G space division:  proc/nbgrp/npool/nimage =       8
     Subspace diagonalization in iterative solution of the eigenvalue problem:
     a serial algorithm will be used


     Parallelization info
     --------------------
     sticks:   dense  smooth     PW     G-vecs:    dense   smooth      PW
     Min          45      23      7                 1167      417      77
     Max          46      24      9                 1174      422      80
     Sum         367     187     61                 9369     3357     627

     Using Slab Decomposition



     bravais-lattice index     =            0
     lattice parameter (alat)  =       4.7243  a.u.
     unit-cell volume          =     149.1185 (a.u.)^3
     number of atoms/cell      =            2
     number of atomic types    =            1
     number of electrons       =        16.00
     number of Kohn-Sham states=           12
     kinetic-energy cutoff     =      30.0000  Ry
     charge density cutoff     =     240.0000  Ry
     scf convergence threshold =      1.0E-07
     mixing beta               =       0.5000
     number of iterations used =            8  plain     mixing
     energy convergence thresh.=      1.0E-04
     force convergence thresh. =      1.0E-03
     press convergence thresh. =      5.0E-01
     Exchange-correlation=  SLA  PW   PBE  PBE
                           (   1   4   3   4   0   0   0)
     nstep                     =           50


     celldm(1)=   4.724315  celldm(2)=   0.000000  celldm(3)=   0.000000
     celldm(4)=   0.000000  celldm(5)=   0.000000  celldm(6)=   0.000000

     crystal axes: (cart. coord. in units of alat)
               a(1) = (   1.000000   0.000000   0.000000 )  
               a(2) = (  -0.500000   0.866025   0.000000 )  
               a(3) = (   0.000000   0.000000   1.632993 )  

     reciprocal axes: (cart. coord. in units 2 pi/alat)
               b(1) = (  1.000000  0.577350 -0.000000 )  
               b(2) = (  0.000000  1.154701  0.000000 )  
               b(3) = (  0.000000 -0.000000  0.612372 )  


     PseudoPot. # 1 for Fe read from file:
     /home/gridsan/epan1/labutil/lab3_samples/pseudopotentials/Fe.pbe-nd-rrkjus.UPF
     MD5 check sum: 398036227a04b607635f6f5e8dfd8242
     Pseudo is Ultrasoft + core correction, Zval =  8.0
     Generated by new atomic code, or converted to UPF format
     Using radial grid of  957 points,  6 beta functions with: 
                l(1) =   0
                l(2) =   0
                l(3) =   1
                l(4) =   1
                l(5) =   2
                l(6) =   2
     Q(r) pseudized with 0 coefficients 


     atomic species   valence    mass     pseudopotential
        Fe             8.00    55.84500     Fe( 1.00)

     Starting magnetic structure 
     atomic species   magnetization
        Fe           0.700

      4 Sym. Ops. (no inversion) found



   Cartesian axes

     site n.     atom                  positions (alat units)
         1           Fe  tau(   1) = (   0.0000000   0.0000000   0.0000000  )
         2           Fe  tau(   2) = (  -0.0000000   0.5773520   0.8164960  )

     number of k points=     6  Methfessel-Paxton smearing, width (Ry)=  0.0200
                       cart. coord. in units 2pi/alat
        k(    1) = (   0.0000000   0.0000000   0.0000000), wk =   0.1250000
        k(    2) = (   0.0000000   0.0000000  -0.3061862), wk =   0.1250000
        k(    3) = (   0.0000000  -0.5773503   0.0000000), wk =   0.1250000
        k(    4) = (   0.0000000  -0.5773503  -0.3061862), wk =   0.1250000
        k(    5) = (  -0.5000000   0.2886751   0.0000000), wk =   0.2500000
        k(    6) = (  -0.5000000   0.2886751  -0.3061862), wk =   0.2500000

     Dense  grid:     9369 G-vectors     FFT dimensions: (  24,  24,  40)

     Smooth grid:     3357 G-vectors     FFT dimensions: (  18,  18,  27)

     Estimated max dynamical RAM per process >       7.41 MB

     Estimated total dynamical RAM >      59.25 MB
     Generating pointlists ...
     new r_m :   0.4125 (alat units)  1.9488 (a.u.) for type    1

     Initial potential from superposition of free atoms

     starting charge      15.9987, renormalised to      16.0000
     Starting wfcs are   12 randomized atomic wfcs

     total cpu time spent up to now is        0.5 secs

     Self-consistent Calculation

     iteration #  1     ecut=    30.00 Ry     beta= 0.50
     Davidson diagonalization with overlap
     ethr =  1.00E-02,  avg # of iterations =  3.9

     total cpu time spent up to now is        0.6 secs

     total energy              =    -111.24869254 Ry
     estimated scf accuracy    <       0.43690721 Ry

     total magnetization       =     7.00 Bohr mag/cell
     absolute magnetization    =     7.00 Bohr mag/cell

     iteration #  2     ecut=    30.00 Ry     beta= 0.50
     Davidson diagonalization with overlap
     ethr =  2.73E-03,  avg # of iterations =  2.0

     total cpu time spent up to now is        0.6 secs

     total energy              =    -111.39296132 Ry
     estimated scf accuracy    <       0.10835497 Ry

     total magnetization       =     5.28 Bohr mag/cell
     absolute magnetization    =     5.29 Bohr mag/cell

     iteration #  3     ecut=    30.00 Ry     beta= 0.50
     Davidson diagonalization with overlap
     ethr =  6.77E-04,  avg # of iterations =  1.2

     total cpu time spent up to now is        0.7 secs

     total energy              =    -111.47117474 Ry
     estimated scf accuracy    <       0.04189310 Ry

     total magnetization       =     4.73 Bohr mag/cell
     absolute magnetization    =     4.86 Bohr mag/cell

     iteration #  4     ecut=    30.00 Ry     beta= 0.50
     Davidson diagonalization with overlap
     ethr =  2.62E-04,  avg # of iterations =  2.7

     total cpu time spent up to now is        0.8 secs

     total energy              =    -111.42795783 Ry
     estimated scf accuracy    <       0.87344618 Ry

     total magnetization       =     3.76 Bohr mag/cell
     absolute magnetization    =     4.06 Bohr mag/cell

     iteration #  5     ecut=    30.00 Ry     beta= 0.50
     Davidson diagonalization with overlap
     ethr =  2.62E-04,  avg # of iterations =  1.9

     total cpu time spent up to now is        0.9 secs

     total energy              =    -111.46118357 Ry
     estimated scf accuracy    <       0.04764555 Ry

     total magnetization       =     3.47 Bohr mag/cell
     absolute magnetization    =     3.84 Bohr mag/cell

     iteration #  6     ecut=    30.00 Ry     beta= 0.50
     Davidson diagonalization with overlap
     ethr =  2.62E-04,  avg # of iterations =  1.0

     total cpu time spent up to now is        0.9 secs

     total energy              =    -111.47099578 Ry
     estimated scf accuracy    <       0.02708360 Ry

     total magnetization       =     3.75 Bohr mag/cell
     absolute magnetization    =     4.02 Bohr mag/cell

     iteration #  7     ecut=    30.00 Ry     beta= 0.50
     Davidson diagonalization with overlap
     ethr =  1.69E-04,  avg # of iterations =  1.0

     total cpu time spent up to now is        1.0 secs

     total energy              =    -111.47436054 Ry
     estimated scf accuracy    <       0.01297577 Ry

     total magnetization       =     4.17 Bohr mag/cell
     absolute magnetization    =     4.31 Bohr mag/cell

     iteration #  8     ecut=    30.00 Ry     beta= 0.50
     Davidson diagonalization with overlap
     ethr =  8.11E-05,  avg # of iterations =  1.0

     total cpu time spent up to now is        1.1 secs

     total energy              =    -111.47678065 Ry
     estimated scf accuracy    <       0.00195079 Ry

     total magnetization       =     4.68 Bohr mag/cell
     absolute magnetization    =     4.76 Bohr mag/cell

     iteration #  9     ecut=    30.00 Ry     beta= 0.50
     Davidson diagonalization with overlap
     ethr =  1.22E-05,  avg # of iterations =  1.0

     total cpu time spent up to now is        1.1 secs

     total energy              =    -111.47744984 Ry
     estimated scf accuracy    <       0.00156789 Ry

     total magnetization       =     4.76 Bohr mag/cell
     absolute magnetization    =     4.84 Bohr mag/cell

     iteration # 10     ecut=    30.00 Ry     beta= 0.50
     Davidson diagonalization with overlap
     ethr =  9.80E-06,  avg # of iterations =  1.0

     total cpu time spent up to now is        1.2 secs

     total energy              =    -111.47746488 Ry
     estimated scf accuracy    <       0.00197544 Ry

     total magnetization       =     4.94 Bohr mag/cell
     absolute magnetization    =     5.01 Bohr mag/cell

     iteration # 11     ecut=    30.00 Ry     beta= 0.50
     Davidson diagonalization with overlap
     ethr =  9.80E-06,  avg # of iterations =  1.0
     Minimization algorithm failed to find Fermi energy: reverting to bisection
     Possible cause: smearing is larger than the electronic band-gap.

     total cpu time spent up to now is        1.3 secs

     total energy              =    -111.47738724 Ry
     estimated scf accuracy    <       0.00169384 Ry

     total magnetization       =     4.89 Bohr mag/cell
     absolute magnetization    =     4.96 Bohr mag/cell

     iteration # 12     ecut=    30.00 Ry     beta= 0.50
     Davidson diagonalization with overlap
     ethr =  9.80E-06,  avg # of iterations =  1.0

     total cpu time spent up to now is        1.3 secs

     total energy              =    -111.47750537 Ry
     estimated scf accuracy    <       0.00157006 Ry

     total magnetization       =     4.86 Bohr mag/cell
     absolute magnetization    =     4.94 Bohr mag/cell

     iteration # 13     ecut=    30.00 Ry     beta= 0.50
     Davidson diagonalization with overlap
     ethr =  9.80E-06,  avg # of iterations =  1.0

     total cpu time spent up to now is        1.4 secs

     total energy              =    -111.47746895 Ry
     estimated scf accuracy    <       0.00115146 Ry

     total magnetization       =     4.89 Bohr mag/cell
     absolute magnetization    =     4.98 Bohr mag/cell

     iteration # 14     ecut=    30.00 Ry     beta= 0.50
     Davidson diagonalization with overlap
     ethr =  7.20E-06,  avg # of iterations =  2.3

     total cpu time spent up to now is        1.5 secs

     total energy              =    -111.47341440 Ry
     estimated scf accuracy    <       0.00051473 Ry

     total magnetization       =     5.10 Bohr mag/cell
     absolute magnetization    =     5.23 Bohr mag/cell

     iteration # 15     ecut=    30.00 Ry     beta= 0.50
     Davidson diagonalization with overlap
     ethr =  3.22E-06,  avg # of iterations =  2.8

     total cpu time spent up to now is        1.6 secs

     total energy              =    -111.47737219 Ry
     estimated scf accuracy    <       0.00334608 Ry

     total magnetization       =     4.73 Bohr mag/cell
     absolute magnetization    =     4.81 Bohr mag/cell

     iteration # 16     ecut=    30.00 Ry     beta= 0.50
     Davidson diagonalization with overlap
     ethr =  3.22E-06,  avg # of iterations =  1.5
     Minimization algorithm failed to find Fermi energy: reverting to bisection
     Possible cause: smearing is larger than the electronic band-gap.

     total cpu time spent up to now is        1.7 secs

     total energy              =    -111.47792689 Ry
     estimated scf accuracy    <       0.00386560 Ry

     total magnetization       =     4.99 Bohr mag/cell
     absolute magnetization    =     5.07 Bohr mag/cell

     iteration # 17     ecut=    30.00 Ry     beta= 0.50
     Davidson diagonalization with overlap
     ethr =  3.22E-06,  avg # of iterations =  1.0
     Minimization algorithm failed to find Fermi energy: reverting to bisection
     Possible cause: smearing is larger than the electronic band-gap.

     total cpu time spent up to now is        1.7 secs

     total energy              =    -111.47799564 Ry
     estimated scf accuracy    <       0.00552011 Ry

     total magnetization       =     4.97 Bohr mag/cell
     absolute magnetization    =     5.04 Bohr mag/cell

     iteration # 18     ecut=    30.00 Ry     beta= 0.50
     Davidson diagonalization with overlap
     ethr =  3.22E-06,  avg # of iterations =  1.0

     total cpu time spent up to now is        1.8 secs

     total energy              =    -111.47446132 Ry
     estimated scf accuracy    <       0.00549623 Ry

     total magnetization       =     4.97 Bohr mag/cell
     absolute magnetization    =     5.05 Bohr mag/cell

     iteration # 19     ecut=    30.00 Ry     beta= 0.50
     Davidson diagonalization with overlap
     ethr =  3.22E-06,  avg # of iterations =  3.8

     total cpu time spent up to now is        1.9 secs

     total energy              =    -111.47920759 Ry
     estimated scf accuracy    <       0.00277378 Ry

     total magnetization       =     5.02 Bohr mag/cell
     absolute magnetization    =     5.18 Bohr mag/cell

     iteration # 20     ecut=    30.00 Ry     beta= 0.50
     Davidson diagonalization with overlap
     ethr =  3.22E-06,  avg # of iterations =  2.5

     total cpu time spent up to now is        2.0 secs

     total energy              =    -111.47953881 Ry
     estimated scf accuracy    <       0.00047942 Ry

     total magnetization       =     5.12 Bohr mag/cell
     absolute magnetization    =     5.23 Bohr mag/cell

     iteration # 21     ecut=    30.00 Ry     beta= 0.50
     Davidson diagonalization with overlap
     ethr =  3.00E-06,  avg # of iterations =  1.0

     total cpu time spent up to now is        2.0 secs

     total energy              =    -111.47956350 Ry
     estimated scf accuracy    <       0.00017297 Ry

     total magnetization       =     5.10 Bohr mag/cell
     absolute magnetization    =     5.23 Bohr mag/cell

     iteration # 22     ecut=    30.00 Ry     beta= 0.50
     Davidson diagonalization with overlap
     ethr =  1.08E-06,  avg # of iterations =  1.0

     total cpu time spent up to now is        2.1 secs

     total energy              =    -111.47945846 Ry
     estimated scf accuracy    <       0.00014232 Ry

     total magnetization       =     5.10 Bohr mag/cell
     absolute magnetization    =     5.23 Bohr mag/cell

     iteration # 23     ecut=    30.00 Ry     beta= 0.50
     Davidson diagonalization with overlap
     ethr =  8.90E-07,  avg # of iterations =  1.8

     total cpu time spent up to now is        2.2 secs

     total energy              =    -111.47952170 Ry
     estimated scf accuracy    <       0.00021262 Ry

     total magnetization       =     5.06 Bohr mag/cell
     absolute magnetization    =     5.21 Bohr mag/cell

     iteration # 24     ecut=    30.00 Ry     beta= 0.50
     Davidson diagonalization with overlap
     ethr =  8.90E-07,  avg # of iterations =  1.0

     total cpu time spent up to now is        2.3 secs

     total energy              =    -111.47955153 Ry
     estimated scf accuracy    <       0.00015038 Ry

     total magnetization       =     5.07 Bohr mag/cell
     absolute magnetization    =     5.21 Bohr mag/cell

     iteration # 25     ecut=    30.00 Ry     beta= 0.50
     Davidson diagonalization with overlap
     ethr =  8.90E-07,  avg # of iterations =  1.7

     total cpu time spent up to now is        2.3 secs

     total energy              =    -111.47956529 Ry
     estimated scf accuracy    <       0.00005539 Ry

     total magnetization       =     5.10 Bohr mag/cell
     absolute magnetization    =     5.23 Bohr mag/cell

     iteration # 26     ecut=    30.00 Ry     beta= 0.50
     Davidson diagonalization with overlap
     ethr =  3.46E-07,  avg # of iterations =  1.9

     total cpu time spent up to now is        2.4 secs

     total energy              =    -111.47957552 Ry
     estimated scf accuracy    <       0.00003984 Ry

     total magnetization       =     5.08 Bohr mag/cell
     absolute magnetization    =     5.21 Bohr mag/cell

     iteration # 27     ecut=    30.00 Ry     beta= 0.50
     Davidson diagonalization with overlap
     ethr =  2.49E-07,  avg # of iterations =  1.0

     total cpu time spent up to now is        2.5 secs

     total energy              =    -111.47958349 Ry
     estimated scf accuracy    <       0.00001523 Ry

     total magnetization       =     5.08 Bohr mag/cell
     absolute magnetization    =     5.22 Bohr mag/cell

     iteration # 28     ecut=    30.00 Ry     beta= 0.50
     Davidson diagonalization with overlap
     ethr =  9.52E-08,  avg # of iterations =  1.5

     total cpu time spent up to now is        2.5 secs

     total energy              =    -111.47958391 Ry
     estimated scf accuracy    <       0.00000036 Ry

     total magnetization       =     5.09 Bohr mag/cell
     absolute magnetization    =     5.22 Bohr mag/cell

     iteration # 29     ecut=    30.00 Ry     beta= 0.50
     Davidson diagonalization with overlap
     ethr =  2.23E-09,  avg # of iterations =  3.8

     Magnetic moment per site  (integrated on atomic sphere of radius R)
     atom   1 (R=0.412)  charge=  6.6407  magn=  2.5572
     atom   2 (R=0.412)  charge=  6.6408  magn=  2.5571

     total cpu time spent up to now is        2.6 secs

     End of self-consistent calculation

 ------ SPIN UP ------------


          k = 0.0000 0.0000 0.0000 (   391 PWs)   bands (ev):

     5.4500   9.1826  11.9736  11.9736  12.0330  12.3302  12.3302  12.7889
    12.7889  14.0084  14.0084  14.1703

          k = 0.0000 0.0000-0.3062 (   422 PWs)   bands (ev):

     7.6577   7.6579  11.6696  11.6697  11.9143  11.9144  11.9145  11.9146
    13.6567  13.6567  13.6567  13.6568

          k = 0.0000-0.5774 0.0000 (   428 PWs)   bands (ev):

     9.5029   9.6141   9.8169  11.8399  12.0196  12.0432  12.5071  14.1926
    14.2578  14.3567  16.1578  18.1988

          k = 0.0000-0.5774-0.3062 (   420 PWs)   bands (ev):

     9.2645   9.2646  10.6584  10.6586  12.9072  12.9073  13.7644  13.7646
    14.2907  14.2909  16.1410  16.1411

          k =-0.5000 0.2887 0.0000 (   428 PWs)   bands (ev):

     9.5029   9.6142   9.8169  11.8398  12.0196  12.0432  12.5071  14.1926
    14.2577  14.3567  16.1578  18.1987

          k =-0.5000 0.2887-0.3062 (   420 PWs)   bands (ev):

     9.2646   9.2646  10.6585  10.6586  12.9072  12.9073  13.7644  13.7646
    14.2906  14.2910  16.1410  16.1411

 ------ SPIN DOWN ----------


          k = 0.0000 0.0000 0.0000 (   391 PWs)   bands (ev):

     5.7070  10.5319  14.4280  14.4315  14.5707  14.5708  15.0180  15.0180
    15.7387  15.7388  17.1353  17.1353

          k = 0.0000 0.0000-0.3062 (   422 PWs)   bands (ev):

     7.9982   7.9983  13.7048  13.7048  14.5377  14.5377  14.5377  14.5378
    16.7272  16.7272  16.7272  16.7272

          k = 0.0000-0.5774 0.0000 (   428 PWs)   bands (ev):

    11.0117  11.3341  11.8251  13.0319  14.4496  14.5747  14.8288  17.2197
    17.4076  17.4466  18.3124  19.8664

          k = 0.0000-0.5774-0.3062 (   420 PWs)   bands (ev):

    10.9264  10.9265  12.7891  12.7892  15.3626  15.3627  15.7990  15.7991
    17.3320  17.3320  17.7831  17.7831

          k =-0.5000 0.2887 0.0000 (   428 PWs)   bands (ev):

    11.0117  11.3341  11.8252  13.0319  14.4496  14.5747  14.8288  17.2197
    17.4077  17.4466  18.3125  19.8664

          k =-0.5000 0.2887-0.3062 (   420 PWs)   bands (ev):

    10.9264  10.9264  12.7891  12.7891  15.3626  15.3627  15.7991  15.7991
    17.3320  17.3321  17.7831  17.7831

     the Fermi energy is    14.7102 ev

!    total energy              =    -111.47958407 Ry
     estimated scf accuracy    <       0.00000002 Ry
     smearing contrib. (-TS)   =       0.00134206 Ry
     internal energy E=F+TS    =    -111.48092613 Ry

     The total energy is F=E-TS. E is the sum of the following terms:
     one-electron contribution =      16.38473376 Ry
     hartree contribution      =      13.12368664 Ry
     xc contribution           =     -53.15484027 Ry
     ewald contribution        =     -87.83450626 Ry

     total magnetization       =     5.09 Bohr mag/cell
     absolute magnetization    =     5.22 Bohr mag/cell

     convergence has been achieved in  29 iterations

     Forces acting on atoms (cartesian axes, Ry/au):

     atom    1 type  1   force =     0.00000000    0.00000915    0.00000000
     atom    2 type  1   force =     0.00000000   -0.00000915    0.00000000
     The non-local contrib.  to forces
     atom    1 type  1   force =     0.00000000    0.00000108    0.00000000
     atom    2 type  1   force =     0.00000000    0.00000616    0.00000000
     The ionic contribution  to forces
     atom    1 type  1   force =    -0.00000000    0.00000403   -0.00002690
     atom    2 type  1   force =     0.00000000   -0.00000403    0.00002690
     The local contribution  to forces
     atom    1 type  1   force =    -0.00000000   -0.00000612   -0.00000000
     atom    2 type  1   force =     0.00000000   -0.00000951    0.00007693
     The core correction contribution to forces
     atom    1 type  1   force =    -0.00000000    0.00000042    0.00000000
     atom    2 type  1   force =     0.00000000   -0.00000217    0.00001285
     The Hubbard contrib.    to forces
     atom    1 type  1   force =     0.00000000    0.00000000    0.00000000
     atom    2 type  1   force =     0.00000000    0.00000000    0.00000000
     The SCF correction term to forces
     atom    1 type  1   force =    -0.00000000    0.00000199    0.00000000
     atom    2 type  1   force =     0.00000000   -0.00000735   -0.00000001

     Total force =     0.000013     Total SCF correction =     0.000008
     SCF correction compared to forces is large: reduce conv_thr to get better values


     Computing stress (Cartesian axis) and pressure

          total   stress  (Ry/bohr**3)                   (kbar)     P=      232.76
   0.00101661   0.00000000   0.00000000          149.55        0.00        0.00
   0.00000000   0.00101641   0.00000000            0.00      149.52        0.00
   0.00000000   0.00000000   0.00271382            0.00        0.00      399.22


     BFGS Geometry Optimization
     Energy error            =      0.0E+00 Ry
     Gradient error          =      9.1E-06 Ry/Bohr
     Cell gradient error     =      4.0E+02 kbar

     number of scf cycles    =   1
     number of bfgs steps    =   0

     enthalpy           new  =    -111.4795840668 Ry

     new trust radius        =       0.1656980966 bohr
     new conv_thr            =       0.0000001000 Ry

     new unit-cell volume =    167.43166 a.u.^3 (    24.81081 Ang^3 )
     density =      7.47519 g/cm^3

CELL_PARAMETERS (angstrom)
   2.563538320  -0.000000000   0.000000000
  -1.281769160   2.220078515   0.000000000
   0.000000000   0.000000000   4.359461422

ATOMIC_POSITIONS (angstrom)
Fe            0.0000000000        0.0000049635        0.0000000000
Fe            0.0000000000        1.4800518169        2.1797291601



     Writing config-only to output data dir /home/gridsan/epan1/labutil/lab3_samples/problem1/Lab3/Fe_hcp_a_2.5_ecut_30_nk_2/pwscf.save/
     NEW-OLD atomic charge density approx. for the potential

     Check: negative core charge=   -0.000006
     extrapolated charge   17.74989, renormalised to   16.00000
     Generating pointlists ...

     total cpu time spent up to now is        2.9 secs

     Self-consistent Calculation

     iteration #  1     ecut=    30.00 Ry     beta= 0.50
     Davidson diagonalization with overlap
     ethr =  1.00E-06,  avg # of iterations = 11.1

     total cpu time spent up to now is        3.1 secs

     total energy              =    -109.95739321 Ry
     estimated scf accuracy    <       1.78627415 Ry

     total magnetization       =     2.75 Bohr mag/cell
     absolute magnetization    =     3.13 Bohr mag/cell

     iteration #  2     ecut=    30.00 Ry     beta= 0.50
     Davidson diagonalization with overlap
     ethr =  1.00E-02,  avg # of iterations =  3.2

     total cpu time spent up to now is        3.2 secs

     total energy              =    -111.54729759 Ry
     estimated scf accuracy    <       3.40912923 Ry

     total magnetization       =     4.75 Bohr mag/cell
     absolute magnetization    =     4.84 Bohr mag/cell

     iteration #  3     ecut=    30.00 Ry     beta= 0.50
     Davidson diagonalization with overlap
     ethr =  1.00E-02,  avg # of iterations =  1.9

     total cpu time spent up to now is        3.3 secs

     total energy              =    -111.49599281 Ry
     estimated scf accuracy    <       0.94555943 Ry

     total magnetization       =     4.75 Bohr mag/cell
     absolute magnetization    =     4.99 Bohr mag/cell

     iteration #  4     ecut=    30.00 Ry     beta= 0.50
     Davidson diagonalization with overlap
     ethr =  5.91E-03,  avg # of iterations =  1.2

     total cpu time spent up to now is        3.4 secs

     total energy              =    -111.49790060 Ry
     estimated scf accuracy    <       0.32656019 Ry

     total magnetization       =     4.82 Bohr mag/cell
     absolute magnetization    =     5.05 Bohr mag/cell

     iteration #  5     ecut=    30.00 Ry     beta= 0.50
     Davidson diagonalization with overlap
     ethr =  2.04E-03,  avg # of iterations =  1.7

     total cpu time spent up to now is        3.5 secs

     total energy              =    -111.52501917 Ry
     estimated scf accuracy    <       0.12703308 Ry

     total magnetization       =     5.03 Bohr mag/cell
     absolute magnetization    =     5.22 Bohr mag/cell

     iteration #  6     ecut=    30.00 Ry     beta= 0.50
     Davidson diagonalization with overlap
     ethr =  7.94E-04,  avg # of iterations =  1.0

     total cpu time spent up to now is        3.5 secs

     total energy              =    -111.48858448 Ry
     estimated scf accuracy    <       0.15138907 Ry

     total magnetization       =     4.96 Bohr mag/cell
     absolute magnetization    =     5.15 Bohr mag/cell

     iteration #  7     ecut=    30.00 Ry     beta= 0.50
     Davidson diagonalization with overlap
     ethr =  7.94E-04,  avg # of iterations =  1.0

     total cpu time spent up to now is        3.6 secs

     total energy              =    -111.49735176 Ry
     estimated scf accuracy    <       0.02251767 Ry

     total magnetization       =     5.01 Bohr mag/cell
     absolute magnetization    =     5.24 Bohr mag/cell

     iteration #  8     ecut=    30.00 Ry     beta= 0.50
     Davidson diagonalization with overlap
     ethr =  1.41E-04,  avg # of iterations =  1.9

     total cpu time spent up to now is        3.7 secs

     total energy              =    -111.49846009 Ry
     estimated scf accuracy    <       0.00463909 Ry

     total magnetization       =     5.01 Bohr mag/cell
     absolute magnetization    =     5.26 Bohr mag/cell

     iteration #  9     ecut=    30.00 Ry     beta= 0.50
     Davidson diagonalization with overlap
     ethr =  2.90E-05,  avg # of iterations =  2.1

     total cpu time spent up to now is        3.8 secs

     total energy              =    -111.49899332 Ry
     estimated scf accuracy    <       0.00035671 Ry

     total magnetization       =     5.00 Bohr mag/cell
     absolute magnetization    =     5.25 Bohr mag/cell

     iteration # 10     ecut=    30.00 Ry     beta= 0.50
     Davidson diagonalization with overlap
     ethr =  2.23E-06,  avg # of iterations =  3.3

     total cpu time spent up to now is        3.9 secs

     total energy              =    -111.49915412 Ry
     estimated scf accuracy    <       0.00006235 Ry

     total magnetization       =     5.00 Bohr mag/cell
     absolute magnetization    =     5.25 Bohr mag/cell

     iteration # 11     ecut=    30.00 Ry     beta= 0.50
     Davidson diagonalization with overlap
     ethr =  3.90E-07,  avg # of iterations =  2.3

     total cpu time spent up to now is        3.9 secs

     total energy              =    -111.49916928 Ry
     estimated scf accuracy    <       0.00003752 Ry

     total magnetization       =     5.00 Bohr mag/cell
     absolute magnetization    =     5.25 Bohr mag/cell

     iteration # 12     ecut=    30.00 Ry     beta= 0.50
     Davidson diagonalization with overlap
     ethr =  2.34E-07,  avg # of iterations =  1.5

     total cpu time spent up to now is        4.0 secs

     total energy              =    -111.49916441 Ry
     estimated scf accuracy    <       0.00002565 Ry

     total magnetization       =     5.01 Bohr mag/cell
     absolute magnetization    =     5.25 Bohr mag/cell

     iteration # 13     ecut=    30.00 Ry     beta= 0.50
     Davidson diagonalization with overlap
     ethr =  1.60E-07,  avg # of iterations =  1.8

     total cpu time spent up to now is        4.1 secs

     total energy              =    -111.49916805 Ry
     estimated scf accuracy    <       0.00000189 Ry

     total magnetization       =     5.00 Bohr mag/cell
     absolute magnetization    =     5.25 Bohr mag/cell

     iteration # 14     ecut=    30.00 Ry     beta= 0.50
     Davidson diagonalization with overlap
     ethr =  1.18E-08,  avg # of iterations =  4.6

     total cpu time spent up to now is        4.2 secs

     total energy              =    -111.49916966 Ry
     estimated scf accuracy    <       0.00000013 Ry

     total magnetization       =     5.00 Bohr mag/cell
     absolute magnetization    =     5.25 Bohr mag/cell

     iteration # 15     ecut=    30.00 Ry     beta= 0.50
     Davidson diagonalization with overlap
     ethr =  7.89E-10,  avg # of iterations =  5.8

     total cpu time spent up to now is        4.3 secs

     total energy              =    -111.49916962 Ry
     estimated scf accuracy    <       0.00000071 Ry

     total magnetization       =     5.00 Bohr mag/cell
     absolute magnetization    =     5.25 Bohr mag/cell

     iteration # 16     ecut=    30.00 Ry     beta= 0.50
     Davidson diagonalization with overlap
     ethr =  7.89E-10,  avg # of iterations =  3.2

     Magnetic moment per site  (integrated on atomic sphere of radius R)
     atom   1 (R=0.412)  charge=  6.5067  magn=  2.5450
     atom   2 (R=0.412)  charge=  6.5066  magn=  2.5451

     total cpu time spent up to now is        4.4 secs

     End of self-consistent calculation

 ------ SPIN UP ------------


          k = 0.0000 0.0000 0.0000 (   391 PWs)   bands (ev):

     4.1533   7.8148  10.1795  10.2809  10.2810  10.5334  10.5334  10.9193
    10.9193  11.8006  11.8007  11.8628

          k = 0.0000 0.0000-0.2867 (   422 PWs)   bands (ev):

     6.1101   6.1102   9.9163   9.9165  10.2459  10.2460  10.2460  10.2461
    11.5318  11.5318  11.5319  11.5319

          k =-0.0000-0.5630 0.0000 (   428 PWs)   bands (ev):

     8.1690   8.1756   8.3048  10.0467  10.1459  10.4733  10.6663  11.9363
    12.2288  12.3365  14.0070  15.8360

          k =-0.0000-0.5630-0.2867 (   420 PWs)   bands (ev):

     7.8717   7.8717   9.0493   9.0494  10.9554  10.9555  11.8126  11.8127
    12.2902  12.2903  14.0297  14.0297

          k =-0.4876 0.2815 0.0000 (   428 PWs)   bands (ev):

     8.1690   8.1756   8.3048  10.0467  10.1459  10.4733  10.6663  11.9363
    12.2287  12.3364  14.0070  15.8360

          k =-0.4876 0.2815-0.2867 (   420 PWs)   bands (ev):

     7.8717   7.8717   9.0494   9.0494  10.9554  10.9556  11.8126  11.8127
    12.2901  12.2903  14.0297  14.0297

 ------ SPIN DOWN ----------


          k = 0.0000 0.0000 0.0000 (   391 PWs)   bands (ev):

     4.2957   8.8954  12.0249  12.3024  12.7978  12.7979  13.1227  13.1228
    14.0751  14.0751  15.1161  15.1161

          k = 0.0000 0.0000-0.2867 (   422 PWs)   bands (ev):

     6.3000   6.3001  11.7390  11.7391  12.8158  12.8158  12.8159  12.8160
    14.7581  14.7581  14.7582  14.7583

          k =-0.0000-0.5630 0.0000 (   428 PWs)   bands (ev):

     9.4951   9.8868  10.4439  11.3484  12.6103  12.7428  13.0865  15.1567
    15.2811  15.2960  15.9040  17.2749

          k =-0.0000-0.5630-0.2867 (   420 PWs)   bands (ev):

     9.5250   9.5250  11.1326  11.1326  13.3228  13.3229  14.0485  14.0486
    15.2297  15.2298  15.4542  15.4542

          k =-0.4876 0.2815 0.0000 (   428 PWs)   bands (ev):

     9.4951   9.8868  10.4439  11.3484  12.6103  12.7427  13.0865  15.1567
    15.2812  15.2960  15.9039  17.2749

          k =-0.4876 0.2815-0.2867 (   420 PWs)   bands (ev):

     9.5250   9.5250  11.1325  11.1326  13.3228  13.3228  14.0485  14.0486
    15.2298  15.2298  15.4542  15.4542

     the Fermi energy is    12.9653 ev

!    total energy              =    -111.49916978 Ry
     estimated scf accuracy    <          5.0E-09 Ry
     smearing contrib. (-TS)   =       0.00046897 Ry
     internal energy E=F+TS    =    -111.49963875 Ry

     The total energy is F=E-TS. E is the sum of the following terms:
     one-electron contribution =      11.59586489 Ry
     hartree contribution      =      14.39323052 Ry
     xc contribution           =     -52.99987036 Ry
     ewald contribution        =     -84.48886381 Ry

     total magnetization       =     5.00 Bohr mag/cell
     absolute magnetization    =     5.26 Bohr mag/cell

     convergence has been achieved in  16 iterations

     Forces acting on atoms (cartesian axes, Ry/au):

     atom    1 type  1   force =     0.00000000    0.00000003    0.00000000
     atom    2 type  1   force =    -0.00000000   -0.00000003    0.00000000
     The non-local contrib.  to forces
     atom    1 type  1   force =     0.00000000    0.00000014    0.00000000
     atom    2 type  1   force =    -0.00000000   -0.00000003    0.00000000
     The ionic contribution  to forces
     atom    1 type  1   force =    -0.00000000   -0.00001120   -0.00002605
     atom    2 type  1   force =     0.00000000    0.00001120    0.00002605
     The local contribution  to forces
     atom    1 type  1   force =    -0.00000000    0.00001053   -0.00000000
     atom    2 type  1   force =    -0.00000000   -0.00001085    0.00008554
     The core correction contribution to forces
     atom    1 type  1   force =     0.00000000    0.00000012    0.00000002
     atom    2 type  1   force =    -0.00000000   -0.00000016    0.00001389
     The Hubbard contrib.    to forces
     atom    1 type  1   force =     0.00000000    0.00000000    0.00000000
     atom    2 type  1   force =     0.00000000    0.00000000    0.00000000
     The SCF correction term to forces
     atom    1 type  1   force =    -0.00000000    0.00000017   -0.00000000
     atom    2 type  1   force =    -0.00000000   -0.00000048    0.00000000

     Total force =     0.000000     Total SCF correction =     0.000001
     SCF correction compared to forces is large: reduce conv_thr to get better values


     Computing stress (Cartesian axis) and pressure

          total   stress  (Ry/bohr**3)                   (kbar)     P=      -19.75
  -0.00074575  -0.00000000   0.00000000         -109.70       -0.00        0.00
  -0.00000000  -0.00074638   0.00000000           -0.00     -109.80        0.00
   0.00000000   0.00000000   0.00108940            0.00        0.00      160.26

     Energy error            =      2.0E-02 Ry
     Gradient error          =      3.5E-08 Ry/Bohr
     Cell gradient error     =      1.6E+02 kbar

     number of scf cycles    =   2
     number of bfgs steps    =   1

     enthalpy           old  =    -111.4795840668 Ry
     enthalpy           new  =    -111.4991697806 Ry

     CASE: enthalpy          _new < enthalpy          _old

     new trust radius        =       0.1409769322 bohr
     new conv_thr            =       0.0000000010 Ry

     new unit-cell volume =    171.42181 a.u.^3 (    25.40209 Ang^3 )
     density =      7.30119 g/cm^3

CELL_PARAMETERS (angstrom)
   2.526042697   0.000000000   0.000000000
  -1.263021348   2.187557929   0.000000000
   0.000000000   0.000000000   4.596944192

ATOMIC_POSITIONS (angstrom)
Fe            0.0000000000        0.0000066680        0.0000000000
Fe            0.0000000000        1.4583696564        2.2984704604



     Writing config-only to output data dir /home/gridsan/epan1/labutil/lab3_samples/problem1/Lab3/Fe_hcp_a_2.5_ecut_30_nk_2/pwscf.save/
     NEW-OLD atomic charge density approx. for the potential

     Check: negative core charge=   -0.000011
     extrapolated charge   16.37240, renormalised to   16.00000
     Generating pointlists ...

     total cpu time spent up to now is        4.7 secs

     Self-consistent Calculation

     iteration #  1     ecut=    30.00 Ry     beta= 0.50
     Davidson diagonalization with overlap
     ethr =  1.00E-06,  avg # of iterations =  8.6

     total cpu time spent up to now is        4.9 secs

     total energy              =    -111.41543784 Ry
     estimated scf accuracy    <       0.09753216 Ry

     total magnetization       =     5.08 Bohr mag/cell
     absolute magnetization    =     5.51 Bohr mag/cell

     iteration #  2     ecut=    30.00 Ry     beta= 0.50
     Davidson diagonalization with overlap
     ethr =  6.10E-04,  avg # of iterations =  3.8

     total cpu time spent up to now is        5.0 secs

     total energy              =    -111.50608121 Ry
     estimated scf accuracy    <       0.22684531 Ry

     total magnetization       =     5.01 Bohr mag/cell
     absolute magnetization    =     5.38 Bohr mag/cell

     iteration #  3     ecut=    30.00 Ry     beta= 0.50
     Davidson diagonalization with overlap
     ethr =  6.10E-04,  avg # of iterations =  2.0

     total cpu time spent up to now is        5.1 secs

     total energy              =    -111.51512255 Ry
     estimated scf accuracy    <       0.06312141 Ry

     total magnetization       =     5.00 Bohr mag/cell
     absolute magnetization    =     5.37 Bohr mag/cell

     iteration #  4     ecut=    30.00 Ry     beta= 0.50
     Davidson diagonalization with overlap
     ethr =  3.95E-04,  avg # of iterations =  1.0

     total cpu time spent up to now is        5.1 secs

     total energy              =    -111.50758788 Ry
     estimated scf accuracy    <       0.04434389 Ry

     total magnetization       =     5.00 Bohr mag/cell
     absolute magnetization    =     5.37 Bohr mag/cell

     iteration #  5     ecut=    30.00 Ry     beta= 0.50
     Davidson diagonalization with overlap
     ethr =  2.77E-04,  avg # of iterations =  1.2

     total cpu time spent up to now is        5.2 secs

     total energy              =    -111.50783246 Ry
     estimated scf accuracy    <       0.01258451 Ry

     total magnetization       =     5.00 Bohr mag/cell
     absolute magnetization    =     5.35 Bohr mag/cell

     iteration #  6     ecut=    30.00 Ry     beta= 0.50
     Davidson diagonalization with overlap
     ethr =  7.87E-05,  avg # of iterations =  1.5

     total cpu time spent up to now is        5.3 secs

     total energy              =    -111.50560764 Ry
     estimated scf accuracy    <       0.00673583 Ry

     total magnetization       =     5.01 Bohr mag/cell
     absolute magnetization    =     5.34 Bohr mag/cell

     iteration #  7     ecut=    30.00 Ry     beta= 0.50
     Davidson diagonalization with overlap
     ethr =  4.21E-05,  avg # of iterations =  2.6

     total cpu time spent up to now is        5.4 secs

     total energy              =    -111.50686304 Ry
     estimated scf accuracy    <       0.00004826 Ry

     total magnetization       =     5.01 Bohr mag/cell
     absolute magnetization    =     5.35 Bohr mag/cell

     iteration #  8     ecut=    30.00 Ry     beta= 0.50
     Davidson diagonalization with overlap
     ethr =  3.02E-07,  avg # of iterations =  4.4

     total cpu time spent up to now is        5.5 secs

     total energy              =    -111.50699637 Ry
     estimated scf accuracy    <       0.00006535 Ry

     total magnetization       =     5.01 Bohr mag/cell
     absolute magnetization    =     5.34 Bohr mag/cell

     iteration #  9     ecut=    30.00 Ry     beta= 0.50
     Davidson diagonalization with overlap
     ethr =  3.02E-07,  avg # of iterations =  1.0

     total cpu time spent up to now is        5.6 secs

     total energy              =    -111.50697386 Ry
     estimated scf accuracy    <       0.00004360 Ry

     total magnetization       =     5.01 Bohr mag/cell
     absolute magnetization    =     5.34 Bohr mag/cell

     iteration # 10     ecut=    30.00 Ry     beta= 0.50
     Davidson diagonalization with overlap
     ethr =  2.73E-07,  avg # of iterations =  2.8

     total cpu time spent up to now is        5.7 secs

     total energy              =    -111.50698601 Ry
     estimated scf accuracy    <       0.00001642 Ry

     total magnetization       =     5.01 Bohr mag/cell
     absolute magnetization    =     5.34 Bohr mag/cell

     iteration # 11     ecut=    30.00 Ry     beta= 0.50
     Davidson diagonalization with overlap
     ethr =  1.03E-07,  avg # of iterations =  2.2

     total cpu time spent up to now is        5.7 secs

     total energy              =    -111.50699002 Ry
     estimated scf accuracy    <       0.00000185 Ry

     total magnetization       =     5.01 Bohr mag/cell
     absolute magnetization    =     5.34 Bohr mag/cell

     iteration # 12     ecut=    30.00 Ry     beta= 0.50
     Davidson diagonalization with overlap
     ethr =  1.16E-08,  avg # of iterations =  2.2

     total cpu time spent up to now is        5.8 secs

     total energy              =    -111.50699023 Ry
     estimated scf accuracy    <       0.00000017 Ry

     total magnetization       =     5.01 Bohr mag/cell
     absolute magnetization    =     5.34 Bohr mag/cell

     iteration # 13     ecut=    30.00 Ry     beta= 0.50
     Davidson diagonalization with overlap
     ethr =  1.05E-09,  avg # of iterations =  3.4

     total cpu time spent up to now is        5.9 secs

     total energy              =    -111.50699029 Ry
     estimated scf accuracy    <       0.00000003 Ry

     total magnetization       =     5.01 Bohr mag/cell
     absolute magnetization    =     5.34 Bohr mag/cell

     iteration # 14     ecut=    30.00 Ry     beta= 0.50
     Davidson diagonalization with overlap
     ethr =  1.82E-10,  avg # of iterations =  4.2

     total cpu time spent up to now is        6.0 secs

     total energy              =    -111.50699030 Ry
     estimated scf accuracy    <          1.5E-09 Ry

     total magnetization       =     5.01 Bohr mag/cell
     absolute magnetization    =     5.34 Bohr mag/cell

     iteration # 15     ecut=    30.00 Ry     beta= 0.50
     Davidson diagonalization with overlap
     ethr =  9.58E-12,  avg # of iterations =  5.1

     Magnetic moment per site  (integrated on atomic sphere of radius R)
     atom   1 (R=0.412)  charge=  6.5018  magn=  2.5699
     atom   2 (R=0.412)  charge=  6.5018  magn=  2.5699

     total cpu time spent up to now is        6.1 secs

     End of self-consistent calculation

 ------ SPIN UP ------------


          k = 0.0000 0.0000 0.0000 (   391 PWs)   bands (ev):

     3.9447   7.4449   9.5379  10.0843  10.0847  10.2683  10.2687  10.7700
    10.7700  10.9665  11.4167  11.4168

          k = 0.0000 0.0000-0.2719 (   422 PWs)   bands (ev):

     5.7053   5.7054   9.3812   9.3812  10.0841  10.0841  10.0844  10.0844
    11.1914  11.1915  11.1915  11.1915

          k = 0.0000-0.5714 0.0000 (   428 PWs)   bands (ev):

     7.9388   7.9409   8.0149   9.5366  10.0474  10.2220  10.3631  11.4376
    12.1442  12.2116  13.7439  15.6014

          k = 0.0000-0.5714-0.2719 (   420 PWs)   bands (ev):

     7.6462   7.6463   8.6671   8.6672  10.6914  10.6915  11.4264  11.4264
    12.1806  12.1806  13.7420  13.7420

          k =-0.4948 0.2857 0.0000 (   428 PWs)   bands (ev):

     7.9392   7.9412   8.0148   9.5366  10.0475  10.2219  10.3630  11.4377
    12.1437  12.2110  13.7438  15.6012

          k =-0.4948 0.2857-0.2719 (   420 PWs)   bands (ev):

     7.6464   7.6464   8.6673   8.6673  10.6916  10.6916  11.4264  11.4264
    12.1800  12.1800  13.7417  13.7417

 ------ SPIN DOWN ----------


          k = 0.0000 0.0000 0.0000 (   391 PWs)   bands (ev):

     4.0275   8.4099  11.0564  11.6317  12.5806  12.5816  12.8199  12.8209
    14.0572  14.0572  14.8367  14.8367

          k = 0.0000 0.0000-0.2719 (   422 PWs)   bands (ev):

     5.8248   5.8249  11.1721  11.1722  12.6253  12.6253  12.6263  12.6263
    14.5319  14.5319  14.5319  14.5320

          k = 0.0000-0.5714 0.0000 (   428 PWs)   bands (ev):

     9.2975   9.6230  10.1762  11.2995  12.1308  12.2563  13.1162  14.8761
    15.0593  15.1377  15.5178  16.8478

          k = 0.0000-0.5714-0.2719 (   420 PWs)   bands (ev):

     9.2892   9.2892  10.7745  10.7745  13.0516  13.0516  13.9058  13.9058
    14.9958  14.9958  15.1027  15.1027

          k =-0.4948 0.2857 0.0000 (   428 PWs)   bands (ev):

     9.2972   9.6226  10.1762  11.2993  12.1308  12.2561  13.1164  14.8762
    15.0598  15.1382  15.5176  16.8475

          k =-0.4948 0.2857-0.2719 (   420 PWs)   bands (ev):

     9.2890   9.2890  10.7743  10.7743  13.0514  13.0514  13.9059  13.9060
    14.9957  14.9957  15.1032  15.1032

     the Fermi energy is    12.7717 ev

!    total energy              =    -111.50699030 Ry
     estimated scf accuracy    <          1.5E-10 Ry
     smearing contrib. (-TS)   =       0.00073588 Ry
     internal energy E=F+TS    =    -111.50772618 Ry

     The total energy is F=E-TS. E is the sum of the following terms:
     one-electron contribution =      10.36976456 Ry
     hartree contribution      =      14.83950990 Ry
     xc contribution           =     -53.02226290 Ry
     ewald contribution        =     -83.69473775 Ry

     total magnetization       =     5.01 Bohr mag/cell
     absolute magnetization    =     5.34 Bohr mag/cell

     convergence has been achieved in  15 iterations

     Forces acting on atoms (cartesian axes, Ry/au):

     atom    1 type  1   force =    -0.00000000    0.00000719    0.00000000
     atom    2 type  1   force =     0.00000000   -0.00000719    0.00000000
     The non-local contrib.  to forces
     atom    1 type  1   force =    -0.00000000    0.00001969    0.00000000
     atom    2 type  1   force =     0.00000000   -0.00001959    0.00000000
     The ionic contribution  to forces
     atom    1 type  1   force =    -0.00000000   -0.00003369   -0.00002748
     atom    2 type  1   force =     0.00000000    0.00003369    0.00002748
     The local contribution  to forces
     atom    1 type  1   force =    -0.00000000    0.00002189    0.00000000
     atom    2 type  1   force =    -0.00000000   -0.00002229    0.00009331
     The core correction contribution to forces
     atom    1 type  1   force =     0.00000000   -0.00000121    0.00000002
     atom    2 type  1   force =    -0.00000000    0.00000117    0.00001480
     The Hubbard contrib.    to forces
     atom    1 type  1   force =     0.00000000    0.00000000    0.00000000
     atom    2 type  1   force =     0.00000000    0.00000000    0.00000000
     The SCF correction term to forces
     atom    1 type  1   force =     0.00000000    0.00000039   -0.00000000
     atom    2 type  1   force =     0.00000000   -0.00000027    0.00000000

     Total force =     0.000010     Total SCF correction =     0.000000


     Computing stress (Cartesian axis) and pressure

          total   stress  (Ry/bohr**3)                   (kbar)     P=      -54.70
  -0.00050745   0.00000000   0.00000000          -74.65        0.00        0.00
   0.00000000  -0.00051249   0.00000000            0.00      -75.39        0.00
   0.00000000   0.00000000  -0.00009567            0.00        0.00      -14.07

     Energy error            =      7.8E-03 Ry
     Gradient error          =      7.2E-06 Ry/Bohr
     Cell gradient error     =      7.5E+01 kbar

     number of scf cycles    =   3
     number of bfgs steps    =   2

     enthalpy           old  =    -111.4991697806 Ry
     enthalpy           new  =    -111.5069903032 Ry

     CASE: enthalpy          _new < enthalpy          _old

     new trust radius        =       0.0315517623 bohr
     new conv_thr            =       0.0000000010 Ry

     new unit-cell volume =    168.06196 a.u.^3 (    24.90421 Ang^3 )
     density =      7.44716 g/cm^3

CELL_PARAMETERS (angstrom)
   2.496018550   0.000000000   0.000000000
  -1.248009275   2.161199462   0.000000000
   0.000000000   0.000000000   4.616684130

ATOMIC_POSITIONS (angstrom)
Fe            0.0000000000        0.0000116452        0.0000000000
Fe            0.0000000000        1.4407923152        2.3083404228



     Writing config-only to output data dir /home/gridsan/epan1/labutil/lab3_samples/problem1/Lab3/Fe_hcp_a_2.5_ecut_30_nk_2/pwscf.save/
     NEW-OLD atomic charge density approx. for the potential

     Check: negative core charge=   -0.000010
     extrapolated charge   15.68016, renormalised to   16.00000
     Generating pointlists ...

     total cpu time spent up to now is        6.4 secs

     Self-consistent Calculation

     iteration #  1     ecut=    30.00 Ry     beta= 0.50
     Davidson diagonalization with overlap
     ethr =  1.00E-06,  avg # of iterations =  7.3

     total cpu time spent up to now is        6.6 secs

     total energy              =    -111.46889981 Ry
     estimated scf accuracy    <       0.04215107 Ry

     total magnetization       =     5.01 Bohr mag/cell
     absolute magnetization    =     5.38 Bohr mag/cell

     iteration #  2     ecut=    30.00 Ry     beta= 0.50
     Davidson diagonalization with overlap
     ethr =  2.63E-04,  avg # of iterations =  4.2

     total cpu time spent up to now is        6.7 secs

     total energy              =    -111.49518633 Ry
     estimated scf accuracy    <       0.16088822 Ry

     total magnetization       =     4.92 Bohr mag/cell
     absolute magnetization    =     5.45 Bohr mag/cell

     iteration #  3     ecut=    30.00 Ry     beta= 0.50
     Davidson diagonalization with overlap
     ethr =  2.63E-04,  avg # of iterations =  2.0

     total cpu time spent up to now is        6.8 secs

     total energy              =    -111.50821648 Ry
     estimated scf accuracy    <       0.01195909 Ry

     total magnetization       =     5.05 Bohr mag/cell
     absolute magnetization    =     5.38 Bohr mag/cell

     iteration #  4     ecut=    30.00 Ry     beta= 0.50
     Davidson diagonalization with overlap
     ethr =  7.47E-05,  avg # of iterations =  2.0

     total cpu time spent up to now is        6.8 secs

     total energy              =    -111.50870220 Ry
     estimated scf accuracy    <       0.00854618 Ry

     total magnetization       =     5.05 Bohr mag/cell
     absolute magnetization    =     5.37 Bohr mag/cell

     iteration #  5     ecut=    30.00 Ry     beta= 0.50
     Davidson diagonalization with overlap
     ethr =  5.34E-05,  avg # of iterations =  1.0

     total cpu time spent up to now is        6.9 secs

     total energy              =    -111.50870527 Ry
     estimated scf accuracy    <       0.00335992 Ry

     total magnetization       =     5.04 Bohr mag/cell
     absolute magnetization    =     5.36 Bohr mag/cell

     iteration #  6     ecut=    30.00 Ry     beta= 0.50
     Davidson diagonalization with overlap
     ethr =  2.10E-05,  avg # of iterations =  1.2

     total cpu time spent up to now is        7.0 secs

     total energy              =    -111.50813352 Ry
     estimated scf accuracy    <       0.00223628 Ry

     total magnetization       =     5.04 Bohr mag/cell
     absolute magnetization    =     5.36 Bohr mag/cell

     iteration #  7     ecut=    30.00 Ry     beta= 0.50
     Davidson diagonalization with overlap
     ethr =  1.40E-05,  avg # of iterations =  1.1

     total cpu time spent up to now is        7.1 secs

     total energy              =    -111.50817945 Ry
     estimated scf accuracy    <       0.00036470 Ry

     total magnetization       =     5.04 Bohr mag/cell
     absolute magnetization    =     5.36 Bohr mag/cell

     iteration #  8     ecut=    30.00 Ry     beta= 0.50
     Davidson diagonalization with overlap
     ethr =  2.28E-06,  avg # of iterations =  2.1

     total cpu time spent up to now is        7.1 secs

     total energy              =    -111.50825077 Ry
     estimated scf accuracy    <       0.00002670 Ry

     total magnetization       =     5.04 Bohr mag/cell
     absolute magnetization    =     5.36 Bohr mag/cell

     iteration #  9     ecut=    30.00 Ry     beta= 0.50
     Davidson diagonalization with overlap
     ethr =  1.67E-07,  avg # of iterations =  1.7

     total cpu time spent up to now is        7.2 secs

     total energy              =    -111.50824362 Ry
     estimated scf accuracy    <       0.00002076 Ry

     total magnetization       =     5.04 Bohr mag/cell
     absolute magnetization    =     5.35 Bohr mag/cell

     iteration # 10     ecut=    30.00 Ry     beta= 0.50
     Davidson diagonalization with overlap
     ethr =  1.30E-07,  avg # of iterations =  2.8

     total cpu time spent up to now is        7.3 secs

     total energy              =    -111.50824858 Ry
     estimated scf accuracy    <       0.00000042 Ry

     total magnetization       =     5.04 Bohr mag/cell
     absolute magnetization    =     5.35 Bohr mag/cell

     iteration # 11     ecut=    30.00 Ry     beta= 0.50
     Davidson diagonalization with overlap
     ethr =  2.61E-09,  avg # of iterations =  4.8

     total cpu time spent up to now is        7.4 secs

     total energy              =    -111.50824886 Ry
     estimated scf accuracy    <       0.00000045 Ry

     total magnetization       =     5.04 Bohr mag/cell
     absolute magnetization    =     5.35 Bohr mag/cell

     iteration # 12     ecut=    30.00 Ry     beta= 0.50
     Davidson diagonalization with overlap
     ethr =  2.61E-09,  avg # of iterations =  2.9

     total cpu time spent up to now is        7.5 secs

     total energy              =    -111.50824901 Ry
     estimated scf accuracy    <       0.00000009 Ry

     total magnetization       =     5.04 Bohr mag/cell
     absolute magnetization    =     5.35 Bohr mag/cell

     iteration # 13     ecut=    30.00 Ry     beta= 0.50
     Davidson diagonalization with overlap
     ethr =  5.87E-10,  avg # of iterations =  2.0

     total cpu time spent up to now is        7.6 secs

     total energy              =    -111.50824903 Ry
     estimated scf accuracy    <          8.0E-09 Ry

     total magnetization       =     5.04 Bohr mag/cell
     absolute magnetization    =     5.35 Bohr mag/cell

     iteration # 14     ecut=    30.00 Ry     beta= 0.50
     Davidson diagonalization with overlap
     ethr =  5.01E-11,  avg # of iterations =  4.6

     total cpu time spent up to now is        7.7 secs

     total energy              =    -111.50824904 Ry
     estimated scf accuracy    <          4.3E-09 Ry

     total magnetization       =     5.04 Bohr mag/cell
     absolute magnetization    =     5.35 Bohr mag/cell

     iteration # 15     ecut=    30.00 Ry     beta= 0.50
     Davidson diagonalization with overlap
     ethr =  2.71E-11,  avg # of iterations =  2.4

     total cpu time spent up to now is        7.8 secs

     total energy              =    -111.50824904 Ry
     estimated scf accuracy    <          6.6E-09 Ry

     total magnetization       =     5.04 Bohr mag/cell
     absolute magnetization    =     5.35 Bohr mag/cell

     iteration # 16     ecut=    30.00 Ry     beta= 0.50
     Davidson diagonalization with overlap
     ethr =  2.71E-11,  avg # of iterations =  2.2

     Magnetic moment per site  (integrated on atomic sphere of radius R)
     atom   1 (R=0.412)  charge=  6.5283  magn=  2.5803
     atom   2 (R=0.412)  charge=  6.5283  magn=  2.5803

     total cpu time spent up to now is        7.9 secs

     End of self-consistent calculation

 ------ SPIN UP ------------


          k = 0.0000 0.0000 0.0000 (   391 PWs)   bands (ev):

     4.1549   7.6421   9.7400  10.3971  10.4004  10.5741  10.5776  11.1228
    11.1588  11.1594  11.7808  11.7814

          k = 0.0000 0.0000-0.2708 (   422 PWs)   bands (ev):

     5.8983   5.8984   9.5987   9.5988  10.4055  10.4055  10.4086  10.4086
    11.5556  11.5556  11.5557  11.5558

          k = 0.0000-0.5784 0.0000 (   428 PWs)   bands (ev):

     8.1567   8.1750   8.2505   9.7825  10.4161  10.5055  10.7129  11.7755
    12.5739  12.6362  14.1479  16.0550

          k = 0.0000-0.5784-0.2708 (   420 PWs)   bands (ev):

     7.8782   7.8782   8.8921   8.8922  11.0483  11.0483  11.7586  11.7586
    12.6072  12.6072  14.1171  14.1171

          k =-0.5008 0.2892 0.0000 (   428 PWs)   bands (ev):

     8.1598   8.1778   8.2502   9.7823  10.4173  10.5048  10.7120  11.7761
    12.5691  12.6314  14.1469  16.0535

          k =-0.5008 0.2892-0.2708 (   420 PWs)   bands (ev):

     7.8796   7.8796   8.8935   8.8935  11.0492  11.0492  11.7584  11.7584
    12.6024  12.6024  14.1148  14.1148

 ------ SPIN DOWN ----------


          k = 0.0000 0.0000 0.0000 (   391 PWs)   bands (ev):

     4.2481   8.6061  11.2195  11.8325  12.9087  12.9168  13.1384  13.1464
    14.4682  14.4685  15.2173  15.2176

          k = 0.0000 0.0000-0.2708 (   422 PWs)   bands (ev):

     6.0297   6.0298  11.3837  11.3837  12.9573  12.9573  12.9650  12.9651
    14.9180  14.9180  14.9186  14.9186

          k = 0.0000-0.5784 0.0000 (   428 PWs)   bands (ev):

     9.5685   9.8580  10.4050  11.6761  12.3724  12.5368  13.5048  15.2247
    15.5089  15.5814  15.9183  17.2741

          k = 0.0000-0.5784-0.2708 (   420 PWs)   bands (ev):

     9.5290   9.5290  11.0153  11.0153  13.4190  13.4191  14.2808  14.2809
    15.3531  15.3531  15.5485  15.5485

          k =-0.5008 0.2892 0.0000 (   428 PWs)   bands (ev):

     9.5660   9.8552  10.4048  11.6748  12.3723  12.5349  13.5061  15.2251
    15.5130  15.5855  15.9170  17.2721

          k =-0.5008 0.2892-0.2708 (   420 PWs)   bands (ev):

     9.5271   9.5271  11.0138  11.0138  13.4175  13.4176  14.2818  14.2818
    15.3523  15.3523  15.5526  15.5526

     the Fermi energy is    13.0971 ev

!    total energy              =    -111.50824904 Ry
     estimated scf accuracy    <          5.9E-10 Ry
     smearing contrib. (-TS)   =       0.00109927 Ry
     internal energy E=F+TS    =    -111.50934831 Ry

     The total energy is F=E-TS. E is the sum of the following terms:
     one-electron contribution =      11.05774056 Ry
     hartree contribution      =      14.69380912 Ry
     xc contribution           =     -53.06621628 Ry
     ewald contribution        =     -84.19468171 Ry

     total magnetization       =     5.04 Bohr mag/cell
     absolute magnetization    =     5.35 Bohr mag/cell

     convergence has been achieved in  16 iterations

     Forces acting on atoms (cartesian axes, Ry/au):

     atom    1 type  1   force =    -0.00000000    0.00005195    0.00000000
     atom    2 type  1   force =     0.00000000   -0.00005195    0.00000000
     The non-local contrib.  to forces
     atom    1 type  1   force =    -0.00000000    0.00014440    0.00000000
     atom    2 type  1   force =     0.00000000   -0.00014439    0.00000000
     The ionic contribution  to forces
     atom    1 type  1   force =     0.00000000   -0.00020386   -0.00002828
     atom    2 type  1   force =     0.00000000    0.00020386    0.00002828
     The local contribution  to forces
     atom    1 type  1   force =     0.00000000    0.00011937   -0.00000000
     atom    2 type  1   force =    -0.00000000   -0.00011924    0.00009407
     The core correction contribution to forces
     atom    1 type  1   force =    -0.00000000   -0.00000815    0.00000002
     atom    2 type  1   force =    -0.00000000    0.00000817    0.00001488
     The Hubbard contrib.    to forces
     atom    1 type  1   force =     0.00000000    0.00000000    0.00000000
     atom    2 type  1   force =     0.00000000    0.00000000    0.00000000
     The SCF correction term to forces
     atom    1 type  1   force =     0.00000000    0.00000024   -0.00000000
     atom    2 type  1   force =     0.00000000   -0.00000031    0.00000000

     Total force =     0.000073     Total SCF correction =     0.000000


     Computing stress (Cartesian axis) and pressure

          total   stress  (Ry/bohr**3)                   (kbar)     P=      -20.98
  -0.00011492   0.00000000   0.00000000          -16.90        0.00        0.00
   0.00000000  -0.00015922   0.00000000            0.00      -23.42        0.00
   0.00000000   0.00000000  -0.00015380            0.00        0.00      -22.62

     Energy error            =      1.3E-03 Ry
     Gradient error          =      5.2E-05 Ry/Bohr
     Cell gradient error     =      2.3E+01 kbar

     number of scf cycles    =   4
     number of bfgs steps    =   3

     enthalpy           old  =    -111.5069903032 Ry
     enthalpy           new  =    -111.5082490380 Ry

     CASE: enthalpy          _new < enthalpy          _old

     new trust radius        =       0.0122370278 bohr
     new conv_thr            =       0.0000000010 Ry

     new unit-cell volume =    166.00002 a.u.^3 (    24.59867 Ang^3 )
     density =      7.53966 g/cm^3

CELL_PARAMETERS (angstrom)
   2.488267423   0.000000000   0.000000000
  -1.244133711   2.150999323   0.000000000
   0.000000000   0.000000000   4.595938577

ATOMIC_POSITIONS (angstrom)
Fe            0.0000000000        0.0000468230        0.0000000000
Fe            0.0000000000        1.4339570243        2.2979676535



     Writing config-only to output data dir /home/gridsan/epan1/labutil/lab3_samples/problem1/Lab3/Fe_hcp_a_2.5_ecut_30_nk_2/pwscf.save/
     NEW-OLD atomic charge density approx. for the potential

     Check: negative core charge=   -0.000008
     extrapolated charge   15.80127, renormalised to   16.00000
     Generating pointlists ...

     total cpu time spent up to now is        8.2 secs

     Self-consistent Calculation

     iteration #  1     ecut=    30.00 Ry     beta= 0.50
     Davidson diagonalization with overlap
     ethr =  1.00E-06,  avg # of iterations =  6.0

     total cpu time spent up to now is        8.3 secs

     total energy              =    -111.49464950 Ry
     estimated scf accuracy    <       0.01412637 Ry

     total magnetization       =     5.03 Bohr mag/cell
     absolute magnetization    =     5.37 Bohr mag/cell

     iteration #  2     ecut=    30.00 Ry     beta= 0.50
     Davidson diagonalization with overlap
     ethr =  8.83E-05,  avg # of iterations =  4.2

     total cpu time spent up to now is        8.4 secs

     total energy              =    -111.50601857 Ry
     estimated scf accuracy    <       0.04098912 Ry

     total magnetization       =     5.10 Bohr mag/cell
     absolute magnetization    =     5.44 Bohr mag/cell

     iteration #  3     ecut=    30.00 Ry     beta= 0.50
     Davidson diagonalization with overlap
     ethr =  8.83E-05,  avg # of iterations =  2.0

     total cpu time spent up to now is        8.5 secs

     total energy              =    -111.50867660 Ry
     estimated scf accuracy    <       0.00558297 Ry

     total magnetization       =     5.06 Bohr mag/cell
     absolute magnetization    =     5.37 Bohr mag/cell

     iteration #  4     ecut=    30.00 Ry     beta= 0.50
     Davidson diagonalization with overlap
     ethr =  3.49E-05,  avg # of iterations =  1.2

     total cpu time spent up to now is        8.6 secs

     total energy              =    -111.50853845 Ry
     estimated scf accuracy    <       0.00530236 Ry

     total magnetization       =     5.06 Bohr mag/cell
     absolute magnetization    =     5.36 Bohr mag/cell

     iteration #  5     ecut=    30.00 Ry     beta= 0.50
     Davidson diagonalization with overlap
     ethr =  3.31E-05,  avg # of iterations =  1.0

     total cpu time spent up to now is        8.6 secs

     total energy              =    -111.50848546 Ry
     estimated scf accuracy    <       0.00141300 Ry

     total magnetization       =     5.06 Bohr mag/cell
     absolute magnetization    =     5.36 Bohr mag/cell

     iteration #  6     ecut=    30.00 Ry     beta= 0.50
     Davidson diagonalization with overlap
     ethr =  8.83E-06,  avg # of iterations =  1.2

     total cpu time spent up to now is        8.7 secs

     total energy              =    -111.50825626 Ry
     estimated scf accuracy    <       0.00055682 Ry

     total magnetization       =     5.06 Bohr mag/cell
     absolute magnetization    =     5.36 Bohr mag/cell

     iteration #  7     ecut=    30.00 Ry     beta= 0.50
     Davidson diagonalization with overlap
     ethr =  3.48E-06,  avg # of iterations =  3.2

     total cpu time spent up to now is        8.8 secs

     total energy              =    -111.50844222 Ry
     estimated scf accuracy    <       0.00004900 Ry

     total magnetization       =     5.06 Bohr mag/cell
     absolute magnetization    =     5.36 Bohr mag/cell

     iteration #  8     ecut=    30.00 Ry     beta= 0.50
     Davidson diagonalization with overlap
     ethr =  3.06E-07,  avg # of iterations =  2.7

     total cpu time spent up to now is        8.9 secs

     total energy              =    -111.50843258 Ry
     estimated scf accuracy    <       0.00009079 Ry

     total magnetization       =     5.06 Bohr mag/cell
     absolute magnetization    =     5.36 Bohr mag/cell

     iteration #  9     ecut=    30.00 Ry     beta= 0.50
     Davidson diagonalization with overlap
     ethr =  3.06E-07,  avg # of iterations =  1.5

     total cpu time spent up to now is        9.0 secs

     total energy              =    -111.50843138 Ry
     estimated scf accuracy    <       0.00003023 Ry

     total magnetization       =     5.05 Bohr mag/cell
     absolute magnetization    =     5.35 Bohr mag/cell

     iteration # 10     ecut=    30.00 Ry     beta= 0.50
     Davidson diagonalization with overlap
     ethr =  1.89E-07,  avg # of iterations =  1.1

     total cpu time spent up to now is        9.0 secs

     total energy              =    -111.50842873 Ry
     estimated scf accuracy    <       0.00001356 Ry

     total magnetization       =     5.05 Bohr mag/cell
     absolute magnetization    =     5.35 Bohr mag/cell

     iteration # 11     ecut=    30.00 Ry     beta= 0.50
     Davidson diagonalization with overlap
     ethr =  8.47E-08,  avg # of iterations =  2.0

     total cpu time spent up to now is        9.1 secs

     total energy              =    -111.50842959 Ry
     estimated scf accuracy    <       0.00000169 Ry

     total magnetization       =     5.06 Bohr mag/cell
     absolute magnetization    =     5.35 Bohr mag/cell

     iteration # 12     ecut=    30.00 Ry     beta= 0.50
     Davidson diagonalization with overlap
     ethr =  1.06E-08,  avg # of iterations =  3.0

     total cpu time spent up to now is        9.4 secs

     total energy              =    -111.50843004 Ry
     estimated scf accuracy    <       0.00000014 Ry

     total magnetization       =     5.06 Bohr mag/cell
     absolute magnetization    =     5.35 Bohr mag/cell

     iteration # 13     ecut=    30.00 Ry     beta= 0.50
     Davidson diagonalization with overlap
     ethr =  8.78E-10,  avg # of iterations =  4.4

     total cpu time spent up to now is        9.5 secs

     total energy              =    -111.50843014 Ry
     estimated scf accuracy    <       0.00000008 Ry

     total magnetization       =     5.06 Bohr mag/cell
     absolute magnetization    =     5.35 Bohr mag/cell

     iteration # 14     ecut=    30.00 Ry     beta= 0.50
     Davidson diagonalization with overlap
     ethr =  5.19E-10,  avg # of iterations =  1.2

     total cpu time spent up to now is        9.6 secs

     total energy              =    -111.50843014 Ry
     estimated scf accuracy    <       0.00000004 Ry

     total magnetization       =     5.06 Bohr mag/cell
     absolute magnetization    =     5.35 Bohr mag/cell

     iteration # 15     ecut=    30.00 Ry     beta= 0.50
     Davidson diagonalization with overlap
     ethr =  2.26E-10,  avg # of iterations =  2.0

     total cpu time spent up to now is        9.8 secs

     total energy              =    -111.50843014 Ry
     estimated scf accuracy    <          2.9E-09 Ry

     total magnetization       =     5.06 Bohr mag/cell
     absolute magnetization    =     5.35 Bohr mag/cell

     iteration # 16     ecut=    30.00 Ry     beta= 0.50
     Davidson diagonalization with overlap
     ethr =  1.80E-11,  avg # of iterations =  4.3

     Magnetic moment per site  (integrated on atomic sphere of radius R)
     atom   1 (R=0.412)  charge=  6.5410  magn=  2.5834
     atom   2 (R=0.412)  charge=  6.5410  magn=  2.5834

     total cpu time spent up to now is       10.0 secs

     End of self-consistent calculation

 ------ SPIN UP ------------


          k = 0.0000 0.0000 0.0000 (   391 PWs)   bands (ev):

     4.2836   7.7908   9.9144  10.5651  10.5956  10.7455  10.7779  11.3008
    11.3580  11.3640  11.9942  11.9996

          k = 0.0000 0.0000-0.2720 (   422 PWs)   bands (ev):

     6.0436   6.0437   9.7675   9.7676  10.5752  10.5752  10.6030  10.6030
    11.7653  11.7653  11.7673  11.7673

          k = 0.0000-0.5811 0.0000 (   428 PWs)   bands (ev):

     8.2814   8.3075   8.3962   9.9602  10.5956  10.6958  10.9012  11.9892
    12.8220  12.8859  14.3849  16.3191

          k = 0.0000-0.5811-0.2720 (   420 PWs)   bands (ev):

     8.0103   8.0103   9.0412   9.0413  11.2431  11.2431  11.9683  11.9683
    12.8561  12.8561  14.3465  14.3466

          k =-0.5024 0.2906 0.0000 (   428 PWs)   bands (ev):

     8.3107   8.3337   8.3934   9.9576  10.6068  10.6890  10.8917  11.9947
    12.7774  12.8411  14.3756  16.3043

          k =-0.5024 0.2906-0.2720 (   420 PWs)   bands (ev):

     8.0239   8.0239   9.0537   9.0537  11.2518  11.2519  11.9660  11.9660
    12.8116  12.8116  14.3247  14.3247

 ------ SPIN DOWN ----------


          k = 0.0000 0.0000 0.0000 (   391 PWs)   bands (ev):

     4.3883   8.7652  11.4105  12.0062  13.0653  13.1408  13.3002  13.3750
    14.6726  14.6760  15.4370  15.4395

          k = 0.0000 0.0000-0.2720 (   422 PWs)   bands (ev):

     6.1872   6.1873  11.5521  11.5522  13.1156  13.1156  13.1883  13.1883
    15.1312  15.1312  15.1366  15.1366

          k = 0.0000-0.5811 0.0000 (   428 PWs)   bands (ev):

     9.7408  10.0226  10.5499  11.8698  12.5508  12.7347  13.6861  15.4449
    15.7197  15.7937  16.1672  17.5494

          k = 0.0000-0.5811-0.2720 (   420 PWs)   bands (ev):

     9.6860   9.6860  11.1835  11.1836  13.6344  13.6344  14.4789  14.4789
    15.5896  15.5896  15.7601  15.7601

          k =-0.5024 0.2906 0.0000 (   428 PWs)   bands (ev):

     9.7169   9.9970  10.5487  11.8565  12.5493  12.7162  13.6986  15.4488
    15.7574  15.8314  16.1553  17.5302

          k =-0.5024 0.2906-0.2720 (   420 PWs)   bands (ev):

     9.6682   9.6682  11.1692  11.1692  13.6207  13.6207  14.4881  14.4881
    15.5818  15.5818  15.7979  15.7979

     the Fermi energy is    13.2889 ev

!    total energy              =    -111.50843015 Ry
     estimated scf accuracy    <          1.3E-10 Ry
     smearing contrib. (-TS)   =       0.00138704 Ry
     internal energy E=F+TS    =    -111.50981719 Ry

     The total energy is F=E-TS. E is the sum of the following terms:
     one-electron contribution =      11.55920172 Ry
     hartree contribution      =      14.55950720 Ry
     xc contribution           =     -53.08459822 Ry
     ewald contribution        =     -84.54392789 Ry

     total magnetization       =     5.06 Bohr mag/cell
     absolute magnetization    =     5.35 Bohr mag/cell

     convergence has been achieved in  16 iterations

     Forces acting on atoms (cartesian axes, Ry/au):

     atom    1 type  1   force =    -0.00000000    0.00047987    0.00000000
     atom    2 type  1   force =     0.00000000   -0.00047987    0.00000000
     The non-local contrib.  to forces
     atom    1 type  1   force =    -0.00000000    0.00135225    0.00000000
     atom    2 type  1   force =     0.00000000   -0.00135203    0.00000000
     The ionic contribution  to forces
     atom    1 type  1   force =    -0.00000000   -0.00190123   -0.00002850
     atom    2 type  1   force =     0.00000000    0.00190123    0.00002850
     The local contribution  to forces
     atom    1 type  1   force =    -0.00000000    0.00110542   -0.00000000
     atom    2 type  1   force =    -0.00000000   -0.00110605    0.00009344
     The core correction contribution to forces
     atom    1 type  1   force =    -0.00000000   -0.00007539    0.00000002
     atom    2 type  1   force =    -0.00000000    0.00007534    0.00001480
     The Hubbard contrib.    to forces
     atom    1 type  1   force =     0.00000000    0.00000000    0.00000000
     atom    2 type  1   force =     0.00000000    0.00000000    0.00000000
     The SCF correction term to forces
     atom    1 type  1   force =    -0.00000000   -0.00000087   -0.00000000
     atom    2 type  1   force =     0.00000000    0.00000195    0.00000000

     Total force =     0.000679     Total SCF correction =     0.000002


     Computing stress (Cartesian axis) and pressure

          total   stress  (Ry/bohr**3)                   (kbar)     P=        0.20
   0.00022198   0.00000000   0.00000000           32.65        0.00        0.00
   0.00000000  -0.00019572   0.00000000            0.00      -28.79        0.00
   0.00000000   0.00000000  -0.00002209            0.00        0.00       -3.25

     Energy error            =      1.8E-04 Ry
     Gradient error          =      4.8E-04 Ry/Bohr
     Cell gradient error     =      3.3E+01 kbar

     number of scf cycles    =   5
     number of bfgs steps    =   4

     enthalpy           old  =    -111.5082490380 Ry
     enthalpy           new  =    -111.5084301477 Ry

     CASE: enthalpy          _new < enthalpy          _old

     new trust radius        =       0.0366582003 bohr
     new conv_thr            =       0.0000000010 Ry

     new unit-cell volume =    162.40502 a.u.^3 (    24.06594 Ang^3 )
     density =      7.70656 g/cm^3

CELL_PARAMETERS (angstrom)
   2.490746406   0.000000000   0.000000000
  -1.245373203   2.120398905   0.000000000
   0.000000000   0.000000000   4.556755977

ATOMIC_POSITIONS (angstrom)
Fe            0.0000000000        0.0003670203        0.0000000000
Fe            0.0000000000        1.4132364878        2.2783763677



     Writing config-only to output data dir /home/gridsan/epan1/labutil/lab3_samples/problem1/Lab3/Fe_hcp_a_2.5_ecut_30_nk_2/pwscf.save/
     NEW-OLD atomic charge density approx. for the potential

     Check: negative core charge=   -0.000006
     extrapolated charge   15.64585, renormalised to   16.00000
     Generating pointlists ...
     new r_m :   0.4057 (alat units)  1.9169 (a.u.) for type    1

     total cpu time spent up to now is       10.5 secs

     Self-consistent Calculation

     iteration #  1     ecut=    30.00 Ry     beta= 0.50
     Davidson diagonalization with overlap
     ethr =  1.00E-06,  avg # of iterations =  7.6

     total cpu time spent up to now is       10.6 secs

     total energy              =    -111.46695854 Ry
     estimated scf accuracy    <       0.04355092 Ry

     total magnetization       =     5.01 Bohr mag/cell
     absolute magnetization    =     5.36 Bohr mag/cell

     iteration #  2     ecut=    30.00 Ry     beta= 0.50
     Davidson diagonalization with overlap
     ethr =  2.72E-04,  avg # of iterations =  4.2

     total cpu time spent up to now is       10.8 secs

     total energy              =    -111.49523568 Ry
     estimated scf accuracy    <       0.19028745 Ry

     total magnetization       =     4.63 Bohr mag/cell
     absolute magnetization    =     5.18 Bohr mag/cell

     iteration #  3     ecut=    30.00 Ry     beta= 0.50
     Davidson diagonalization with overlap
     ethr =  2.72E-04,  avg # of iterations =  2.0

     total cpu time spent up to now is       10.9 secs

     total energy              =    -111.50923587 Ry
     estimated scf accuracy    <       0.01429274 Ry

     total magnetization       =     5.08 Bohr mag/cell
     absolute magnetization    =     5.37 Bohr mag/cell

     iteration #  4     ecut=    30.00 Ry     beta= 0.50
     Davidson diagonalization with overlap
     ethr =  8.93E-05,  avg # of iterations =  1.9

     total cpu time spent up to now is       10.9 secs

     total energy              =    -111.50974356 Ry
     estimated scf accuracy    <       0.00494101 Ry

     total magnetization       =     5.06 Bohr mag/cell
     absolute magnetization    =     5.36 Bohr mag/cell

     iteration #  5     ecut=    30.00 Ry     beta= 0.50
     Davidson diagonalization with overlap
     ethr =  3.09E-05,  avg # of iterations =  1.7

     total cpu time spent up to now is       11.0 secs

     total energy              =    -111.50878199 Ry
     estimated scf accuracy    <       0.00401823 Ry

     total magnetization       =     5.06 Bohr mag/cell
     absolute magnetization    =     5.35 Bohr mag/cell

     iteration #  6     ecut=    30.00 Ry     beta= 0.50
     Davidson diagonalization with overlap
     ethr =  2.51E-05,  avg # of iterations =  2.1

     total cpu time spent up to now is       11.1 secs

     total energy              =    -111.50936930 Ry
     estimated scf accuracy    <       0.00006356 Ry

     total magnetization       =     5.04 Bohr mag/cell
     absolute magnetization    =     5.34 Bohr mag/cell

     iteration #  7     ecut=    30.00 Ry     beta= 0.50
     Davidson diagonalization with overlap
     ethr =  3.97E-07,  avg # of iterations =  4.0

     total cpu time spent up to now is       11.2 secs

     total energy              =    -111.50944584 Ry
     estimated scf accuracy    <       0.00015998 Ry

     total magnetization       =     5.04 Bohr mag/cell
     absolute magnetization    =     5.33 Bohr mag/cell

     iteration #  8     ecut=    30.00 Ry     beta= 0.50
     Davidson diagonalization with overlap
     ethr =  3.97E-07,  avg # of iterations =  1.2

     total cpu time spent up to now is       11.3 secs

     total energy              =    -111.50943691 Ry
     estimated scf accuracy    <       0.00005585 Ry

     total magnetization       =     5.05 Bohr mag/cell
     absolute magnetization    =     5.33 Bohr mag/cell

     iteration #  9     ecut=    30.00 Ry     beta= 0.50
     Davidson diagonalization with overlap
     ethr =  3.49E-07,  avg # of iterations =  1.7

     total cpu time spent up to now is       11.4 secs

     total energy              =    -111.50943801 Ry
     estimated scf accuracy    <       0.00001022 Ry

     total magnetization       =     5.05 Bohr mag/cell
     absolute magnetization    =     5.33 Bohr mag/cell

     iteration # 10     ecut=    30.00 Ry     beta= 0.50
[...]
     estimated scf accuracy    <       0.00160646 Ry

     total magnetization       =     4.03 Bohr mag/cell
     absolute magnetization    =     4.55 Bohr mag/cell

     iteration #  7     ecut=    30.00 Ry     beta= 0.50
     Davidson diagonalization with overlap
     ethr =  8.66E-06,  avg # of iterations =  1.0
     Minimization algorithm failed to find Fermi energy: reverting to bisection
     Possible cause: smearing is larger than the electronic band-gap.

     total cpu time spent up to now is       98.9 secs

     total energy              =    -111.57161160 Ry
     estimated scf accuracy    <       0.00102063 Ry

     total magnetization       =     4.04 Bohr mag/cell
     absolute magnetization    =     4.56 Bohr mag/cell

     iteration #  8     ecut=    30.00 Ry     beta= 0.50
     Davidson diagonalization with overlap
     ethr =  6.38E-06,  avg # of iterations =  2.1

     total cpu time spent up to now is       98.9 secs

     WARNING: integrated charge=    15.99979703, expected=    16.00000000

     total energy              =    -111.57701280 Ry
     estimated scf accuracy    <       0.00023688 Ry

     total magnetization       =     3.98 Bohr mag/cell
     absolute magnetization    =     4.51 Bohr mag/cell

     iteration #  9     ecut=    30.00 Ry     beta= 0.50
     Davidson diagonalization with overlap
     ethr =  1.48E-06,  avg # of iterations =  1.3

     total cpu time spent up to now is       99.0 secs

     WARNING: integrated charge=    15.99988280, expected=    16.00000000

     total energy              =    -111.57715723 Ry
     estimated scf accuracy    <       0.00026246 Ry

     total magnetization       =     3.98 Bohr mag/cell
     absolute magnetization    =     4.51 Bohr mag/cell

     iteration # 10     ecut=    30.00 Ry     beta= 0.50
     Davidson diagonalization with overlap
     ethr =  1.48E-06,  avg # of iterations =  1.0

     total cpu time spent up to now is       99.1 secs

     WARNING: integrated charge=    15.99996586, expected=    16.00000000

     total energy              =    -111.57712667 Ry
     estimated scf accuracy    <       0.00027024 Ry

     total magnetization       =     3.98 Bohr mag/cell
     absolute magnetization    =     4.51 Bohr mag/cell

     iteration # 11     ecut=    30.00 Ry     beta= 0.50
     Davidson diagonalization with overlap
     ethr =  1.48E-06,  avg # of iterations =  1.0

     total cpu time spent up to now is       99.2 secs

     WARNING: integrated charge=    15.99991293, expected=    16.00000000

     total energy              =    -111.57685240 Ry
     estimated scf accuracy    <       0.00032999 Ry

     total magnetization       =     3.98 Bohr mag/cell
     absolute magnetization    =     4.51 Bohr mag/cell

     iteration # 12     ecut=    30.00 Ry     beta= 0.50
     Davidson diagonalization with overlap
     ethr =  1.48E-06,  avg # of iterations =  1.0

     total cpu time spent up to now is       99.3 secs

     WARNING: integrated charge=    15.99986010, expected=    16.00000000

     total energy              =    -111.57688850 Ry
     estimated scf accuracy    <       0.00032502 Ry

     total magnetization       =     3.98 Bohr mag/cell
     absolute magnetization    =     4.51 Bohr mag/cell

     iteration # 13     ecut=    30.00 Ry     beta= 0.50
     Davidson diagonalization with overlap
     ethr =  1.48E-06,  avg # of iterations =  1.0

     total cpu time spent up to now is       99.4 secs

     WARNING: integrated charge=    15.99300424, expected=    16.00000000

     total energy              =    -111.57683504 Ry
     estimated scf accuracy    <       0.00030702 Ry

     total magnetization       =     3.98 Bohr mag/cell
     absolute magnetization    =     4.51 Bohr mag/cell

     iteration # 14     ecut=    30.00 Ry     beta= 0.50
     Davidson diagonalization with overlap
     ethr =  1.48E-06,  avg # of iterations =  2.3
     Minimization algorithm failed to find Fermi energy: reverting to bisection
     Possible cause: smearing is larger than the electronic band-gap.

     total cpu time spent up to now is       99.5 secs

     WARNING: integrated charge=    15.99511735, expected=    16.00000000

     total energy              =    -111.57186100 Ry
     estimated scf accuracy    <       0.00023147 Ry

     total magnetization       =     4.04 Bohr mag/cell
     absolute magnetization    =     4.57 Bohr mag/cell

     iteration # 15     ecut=    30.00 Ry     beta= 0.50
     Davidson diagonalization with overlap
     ethr =  1.45E-06,  avg # of iterations =  1.0

     total cpu time spent up to now is       99.6 secs

     WARNING: integrated charge=    15.99533395, expected=    16.00000000

     total energy              =    -111.58160131 Ry
     estimated scf accuracy    <       0.00002168 Ry

     total magnetization       =     3.98 Bohr mag/cell
     absolute magnetization    =     4.51 Bohr mag/cell

     iteration # 16     ecut=    30.00 Ry     beta= 0.50
     Davidson diagonalization with overlap
     ethr =  1.36E-07,  avg # of iterations =  1.0

     total cpu time spent up to now is       99.6 secs

     WARNING: integrated charge=    15.99525427, expected=    16.00000000

     total energy              =    -111.58162849 Ry
     estimated scf accuracy    <       0.00002376 Ry

     total magnetization       =     3.98 Bohr mag/cell
     absolute magnetization    =     4.51 Bohr mag/cell

     iteration # 17     ecut=    30.00 Ry     beta= 0.50
     Davidson diagonalization with overlap
     ethr =  1.36E-07,  avg # of iterations =  1.0

     total cpu time spent up to now is       99.8 secs

     WARNING: integrated charge=    15.99454197, expected=    16.00000000

     total energy              =    -111.58172323 Ry
     estimated scf accuracy    <       0.00002258 Ry

     total magnetization       =     3.98 Bohr mag/cell
     absolute magnetization    =     4.51 Bohr mag/cell

     iteration # 18     ecut=    30.00 Ry     beta= 0.50
     Davidson diagonalization with overlap
     ethr =  1.36E-07,  avg # of iterations =  1.0

     total cpu time spent up to now is       99.9 secs

     WARNING: integrated charge=    15.99625919, expected=    16.00000000

     total energy              =    -111.58185774 Ry
     estimated scf accuracy    <       0.00002317 Ry

     total magnetization       =     3.98 Bohr mag/cell
     absolute magnetization    =     4.51 Bohr mag/cell

     iteration # 19     ecut=    30.00 Ry     beta= 0.50
     Davidson diagonalization with overlap
     ethr =  1.36E-07,  avg # of iterations =  1.7

     total cpu time spent up to now is       99.9 secs

     WARNING: integrated charge=    15.99730668, expected=    16.00000000

     total energy              =    -111.58066481 Ry
     estimated scf accuracy    <       0.00003068 Ry

     total magnetization       =     3.98 Bohr mag/cell
     absolute magnetization    =     4.51 Bohr mag/cell

     iteration # 20     ecut=    30.00 Ry     beta= 0.50
     Davidson diagonalization with overlap
     ethr =  1.36E-07,  avg # of iterations =  1.1

     total cpu time spent up to now is      100.0 secs

     WARNING: integrated charge=    15.99757873, expected=    16.00000000

     total energy              =    -111.58000382 Ry
     estimated scf accuracy    <       0.00004120 Ry

     total magnetization       =     3.98 Bohr mag/cell
     absolute magnetization    =     4.51 Bohr mag/cell

     iteration # 21     ecut=    30.00 Ry     beta= 0.50
     Davidson diagonalization with overlap
     ethr =  1.36E-07,  avg # of iterations =  1.1

     total cpu time spent up to now is      100.1 secs

     WARNING: integrated charge=    15.99744230, expected=    16.00000000

     total energy              =    -111.57989762 Ry
     estimated scf accuracy    <       0.00004206 Ry

     total magnetization       =     3.98 Bohr mag/cell
     absolute magnetization    =     4.51 Bohr mag/cell

     iteration # 22     ecut=    30.00 Ry     beta= 0.50
     Davidson diagonalization with overlap
     ethr =  1.36E-07,  avg # of iterations =  1.0

     total cpu time spent up to now is      100.2 secs

     WARNING: integrated charge=    15.99745372, expected=    16.00000000

     total energy              =    -111.58000278 Ry
     estimated scf accuracy    <       0.00004257 Ry

     total magnetization       =     3.98 Bohr mag/cell
     absolute magnetization    =     4.51 Bohr mag/cell

     iteration # 23     ecut=    30.00 Ry     beta= 0.50
     Davidson diagonalization with overlap
     ethr =  1.36E-07,  avg # of iterations =  1.0

     total cpu time spent up to now is      100.3 secs

     WARNING: integrated charge=    15.99279009, expected=    16.00000000

     total energy              =    -111.58004431 Ry
     estimated scf accuracy    <       0.00004330 Ry

     total magnetization       =     3.98 Bohr mag/cell
     absolute magnetization    =     4.51 Bohr mag/cell

     iteration # 24     ecut=    30.00 Ry     beta= 0.50
     Davidson diagonalization with overlap
     ethr =  1.36E-07,  avg # of iterations =  1.6

     total cpu time spent up to now is      100.4 secs

     WARNING: integrated charge=    15.99119862, expected=    16.00000000

     total energy              =    -111.58088033 Ry
     estimated scf accuracy    <       0.00000165 Ry

     total magnetization       =     3.98 Bohr mag/cell
     absolute magnetization    =     4.51 Bohr mag/cell

     iteration # 25     ecut=    30.00 Ry     beta= 0.50
     Davidson diagonalization with overlap
     ethr =  1.03E-08,  avg # of iterations =  2.8

     total cpu time spent up to now is      100.5 secs

     WARNING: integrated charge=    15.99065936, expected=    16.00000000

     total energy              =    -111.58167908 Ry
     estimated scf accuracy    <       0.00000005 Ry

     total magnetization       =     3.98 Bohr mag/cell
     absolute magnetization    =     4.51 Bohr mag/cell

     iteration # 26     ecut=    30.00 Ry     beta= 0.50
     Davidson diagonalization with overlap
     ethr =  3.07E-10,  avg # of iterations =  4.1

     total cpu time spent up to now is      100.6 secs

     WARNING: integrated charge=    15.99060529, expected=    16.00000000

     total energy              =    -111.58173159 Ry
     estimated scf accuracy    <       0.00000006 Ry

     total magnetization       =     3.98 Bohr mag/cell
     absolute magnetization    =     4.51 Bohr mag/cell

     iteration # 27     ecut=    30.00 Ry     beta= 0.50
     Davidson diagonalization with overlap
     ethr =  3.07E-10,  avg # of iterations =  1.8

     total cpu time spent up to now is      100.6 secs

     WARNING: integrated charge=    15.99061977, expected=    16.00000000

     total energy              =    -111.58168239 Ry
     estimated scf accuracy    <          7.9E-09 Ry

     total magnetization       =     3.98 Bohr mag/cell
     absolute magnetization    =     4.51 Bohr mag/cell

     iteration # 28     ecut=    30.00 Ry     beta= 0.50
     Davidson diagonalization with overlap
     ethr =  4.95E-11,  avg # of iterations =  3.1

     Magnetic moment per site  (integrated on atomic sphere of radius R)
     atom   1 (R=0.365)  charge=  5.9705  magn=  2.0918
     atom   2 (R=0.365)  charge=  5.9705  magn=  2.0918

     total cpu time spent up to now is      100.7 secs

     End of self-consistent calculation

 ------ SPIN UP ------------


          k = 0.0000 0.0000 0.0000 (   391 PWs)   bands (ev):

     5.1108   8.3268   8.9828   9.0753  10.2509  12.3341  12.3386  12.4023
    12.4289  12.4745  12.4906  12.7964

          k = 0.0000 0.0000-0.2754 (   422 PWs)   bands (ev):

     6.7917   6.7918   8.9888   8.9888  10.3752  10.3752  12.4274  12.4274
    12.4363  12.4363  12.7319  12.7320

          k = 0.0000-0.7462 0.0000 (   428 PWs)   bands (ev):

     7.5748   8.0054   9.5539   9.9811  10.5545  11.9728  12.0270  13.2606
    14.2682  14.3222  20.2365  21.0438

          k = 0.0000-0.7462-0.2754 (   420 PWs)   bands (ev):

     7.7438   7.7438   9.9791   9.9791  10.5830  10.5830  13.3301  13.3301
    14.2971  14.2971  19.9791  19.9791

          k =-0.4098 0.3731 0.0000 (   428 PWs)   bands (ev):

     8.5779   9.2110   9.3199  10.5340  10.7377  11.3305  11.3501  11.7281
    12.5327  12.8659  14.8697  17.0500

          k =-0.4098 0.3731-0.2754 (   420 PWs)   bands (ev):

     8.7068   8.7068   9.5584   9.5584  11.2722  11.2722  12.4916  12.4916
    12.8862  12.8862  14.9433  14.9433

 ------ SPIN DOWN ----------


          k = 0.0000 0.0000 0.0000 (   391 PWs)   bands (ev):

     5.0169   9.1151  10.1142  10.2231  11.8932  12.3080  15.0813  15.1995
    15.2796  15.5980  15.8455  15.8989

          k = 0.0000 0.0000-0.2754 (   422 PWs)   bands (ev):

     6.8012   6.8013  10.1362  10.1362  11.7393  11.7393  15.3114  15.3114
    15.4460  15.4461  15.8905  15.8905

          k = 0.0000-0.7462 0.0000 (   428 PWs)   bands (ev):

     9.5202  10.0699  11.7322  12.0660  12.7899  13.6968  14.8060  15.2364
    15.8740  15.9324  20.6237  20.8828

          k = 0.0000-0.7462-0.2754 (   420 PWs)   bands (ev):

     9.7185   9.7185  12.0398  12.0398  12.9422  12.9423  15.5420  15.5420
    15.9047  15.9047  19.9342  19.9342

          k =-0.4098 0.3731 0.0000 (   428 PWs)   bands (ev):

     9.9687  10.2628  10.4830  12.0283  12.2095  12.6746  14.4326  14.4569
    15.3763  15.7617  16.4735  17.8318

          k =-0.4098 0.3731-0.2754 (   420 PWs)   bands (ev):

     9.9338   9.9338  10.9938  10.9938  13.6131  13.6131  14.4282  14.4282
    15.5737  15.5737  16.0598  16.0598

     the Fermi energy is    13.9152 ev

     WARNING: integrated charge=    15.99060952, expected=    16.00000000

!    total energy              =    -111.58163952 Ry
     estimated scf accuracy    <          1.1E-10 Ry
     smearing contrib. (-TS)   =       0.00175745 Ry
     internal energy E=F+TS    =    -111.58339696 Ry

     The total energy is F=E-TS. E is the sum of the following terms:
     one-electron contribution =      12.86788489 Ry
     hartree contribution      =      13.96110771 Ry
     xc contribution           =     -52.93262116 Ry
     ewald contribution        =     -85.47976841 Ry

     total magnetization       =     3.98 Bohr mag/cell
     absolute magnetization    =     4.51 Bohr mag/cell

     convergence has been achieved in  28 iterations

     Forces acting on atoms (cartesian axes, Ry/au):

     atom    1 type  1   force =     0.00000000   -0.00093234    0.00000000
     atom    2 type  1   force =    -0.00000000    0.00093234    0.00000000
     The non-local contrib.  to forces
     atom    1 type  1   force =     0.00000000   -0.00633712    0.00000000
     atom    2 type  1   force =    -0.00000000    0.00633737    0.00000000
     The ionic contribution  to forces
     atom    1 type  1   force =     0.00000000   -0.40865542   -0.00003080
     atom    2 type  1   force =    -0.00000000    0.40865542    0.00003080
     The local contribution  to forces
     atom    1 type  1   force =    -0.00000000    0.41135428    0.00000000
     atom    2 type  1   force =     0.00000000   -0.41135677    0.00008674
     The core correction contribution to forces
     atom    1 type  1   force =    -0.00000000    0.00271124   -0.00000001
     atom    2 type  1   force =     0.00000000   -0.00271168    0.00001381
     The Hubbard contrib.    to forces
     atom    1 type  1   force =     0.00000000    0.00000000    0.00000000
     atom    2 type  1   force =     0.00000000    0.00000000    0.00000000
     The SCF correction term to forces
     atom    1 type  1   force =    -0.00000000   -0.00000665   -0.00000000
     atom    2 type  1   force =    -0.00000000    0.00000668    0.00000000

     Total force =     0.001319     Total SCF correction =     0.000009


     Computing stress (Cartesian axis) and pressure

          total   stress  (Ry/bohr**3)                   (kbar)     P=      -19.67
  -0.00018143   0.00000000   0.00000000          -26.69        0.00        0.00
   0.00000000  -0.00016244   0.00000000            0.00      -23.90        0.00
   0.00000000   0.00000000  -0.00005729            0.00        0.00       -8.43

     Energy error            =      1.0E-04 Ry
     Gradient error          =      9.3E-04 Ry/Bohr
     Cell gradient error     =      2.7E+01 kbar

     number of scf cycles    =  50
     number of bfgs steps    =  22

     enthalpy           old  =    -111.5817440688 Ry
     enthalpy           new  =    -111.5816395189 Ry

     CASE: enthalpy          _new > enthalpy          _old

     new trust radius        =       0.0000179278 bohr

     trust_radius < trust_radius_min

     resetting bfgs history


     The maximum number of steps has been reached.

     End of BFGS Geometry Optimization
     new unit-cell volume =    154.93042 a.u.^3 (    22.95832 Ang^3 )
     density =      8.07836 g/cm^3

CELL_PARAMETERS (angstrom)
   3.036056024   0.000000000   0.000000000
  -1.518028012   1.668225293   0.000000000
   0.000000000   0.000000000   4.532894388

ATOMIC_POSITIONS (angstrom)
Fe            0.0000000000        0.0959359984        0.0000000000
Fe           -0.0000000000        1.0162175313        2.2664455812



     Writing config-only to output data dir /home/gridsan/epan1/labutil/lab3_samples/problem1/Lab3/Fe_hcp_a_2.5_ecut_30_nk_2/pwscf.save/
     NEW-OLD atomic charge density approx. for the potential

     Check: negative core charge=   -0.000021
     extrapolated charge   15.82586, renormalised to   16.00000
     Generating pointlists ...

     init_run     :      0.32s CPU      0.33s WALL (       1 calls)
     electrons    :     88.81s CPU     84.11s WALL (      50 calls)
     update_pot   :      3.85s CPU      3.55s WALL (      50 calls)
     forces       :      3.44s CPU      3.00s WALL (      50 calls)
     stress       :      7.43s CPU      6.94s WALL (      50 calls)

     Called by init_run:
     wfcinit      :      0.01s CPU      0.01s WALL (       1 calls)
     potinit      :      0.09s CPU      0.09s WALL (       1 calls)
     hinit0       :      0.22s CPU      0.22s WALL (       1 calls)

     Called by electrons:
     c_bands      :     57.89s CPU     56.69s WALL (     905 calls)
     sum_band     :     18.17s CPU     15.97s WALL (     905 calls)
     v_of_rho     :      5.15s CPU      4.66s WALL (     956 calls)
     newd         :      4.96s CPU      4.25s WALL (     956 calls)
     mix_rho      :      1.47s CPU      1.27s WALL (     905 calls)

     Called by c_bands:
     init_us_2    :      0.86s CPU      0.81s WALL (   22932 calls)
     init_us_2:cp :      0.83s CPU      0.77s WALL (   22932 calls)
     cegterg      :     50.24s CPU     46.43s WALL (   10860 calls)

     Called by *egterg:
     cdiaghg      :      9.90s CPU      9.23s WALL (   36175 calls)
     h_psi        :     32.43s CPU     29.90s WALL (   36775 calls)
     s_psi        :      0.95s CPU      0.88s WALL (   36775 calls)
     g_psi        :      0.11s CPU      0.11s WALL (   25903 calls)

     Called by h_psi:
     h_psi:calbec :      2.77s CPU      2.59s WALL (   36775 calls)
     vloc_psi     :     28.69s CPU     26.41s WALL (   36775 calls)
     add_vuspsi   :      0.72s CPU      0.66s WALL (   36775 calls)

     General routines
     calbec       :      4.09s CPU      3.81s WALL (   50635 calls)
     fft          :      3.07s CPU      2.74s WALL (   25848 calls)
     ffts         :      0.41s CPU      0.38s WALL (    3722 calls)
     fftw         :     31.41s CPU     28.83s WALL (  796860 calls)
     interpolate  :      0.50s CPU      0.46s WALL (    1912 calls)
     davcio       :      0.00s CPU      0.00s WALL (      12 calls)

     Parallel routines

     PWSCF        :   1m45.72s CPU   1m41.17s WALL


   This run was terminated on:  10:24:17  31Oct2023            

=------------------------------------------------------------------------------=
   JOB DONE.
=------------------------------------------------------------------------------=
