
     Program PWSCF v.7.2 starts on  2Nov2023 at 18: 5:30 

     This program is part of the open-source Quantum ESPRESSO suite
     for quantum simulation of materials; please cite
         "P. Giannozzi et al., J. Phys.:Condens. Matter 21 395502 (2009);
         "P. Giannozzi et al., J. Phys.:Condens. Matter 29 465901 (2017);
         "P. Giannozzi et al., J. Chem. Phys. 152 154105 (2020);
          URL http://www.quantum-espresso.org", 
     in publications or presentations arising from this work. More details at
     http://www.quantum-espresso.org/quote

     Parallel version (MPI), running on     2 processors

     MPI processes distributed on     2 nodes
     187044 MiB available memory on the printing compute node when the environment starts

     Waiting for input...
     Reading input from standard input
Warning: card &CELL ignored
Warning: card / ignored

     Current dimensions of program PWSCF are:
     Max number of different atomic species (ntypx) = 10
     Max number of k-points (npk) =  40000
     Max angular momentum in pseudopotentials (lmaxx) =  4
     file O.pz-rrkjus.UPF: wavefunction(s)  2S renormalized
     Message from routine setup:
     using ibrav=0 with symmetry is DISCOURAGED, use correct ibrav instead

     R & G space division:  proc/nbgrp/npool/nimage =       2
     Subspace diagonalization in iterative solution of the eigenvalue problem:
     a serial algorithm will be used


     Parallelization info
     --------------------
     sticks:   dense  smooth     PW     G-vecs:    dense   smooth      PW
     Min         516     254     74                12418     4366     709
     Max         517     255     75                12419     4367     710
     Sum        1033     509    149                24837     8733    1419

     Using Slab Decomposition



     bravais-lattice index     =            0
     lattice parameter (alat)  =       7.3321  a.u.
     unit-cell volume          =     394.1775 (a.u.)^3
     number of atoms/cell      =            5
     number of atomic types    =            3
     number of electrons       =        44.00
     number of Kohn-Sham states=           22
     kinetic-energy cutoff     =      30.0000  Ry
     charge density cutoff     =     240.0000  Ry
     scf convergence threshold =      1.0E-07
     mixing beta               =       0.7000
     number of iterations used =            8  plain     mixing
     energy convergence thresh.=      1.0E-04
     force convergence thresh. =      1.0E-03
     Exchange-correlation= SLA  PZ   NOGX NOGC
                           (   1   1   0   0   0   0   0)
     nstep                     =           50


     celldm(1)=   7.332137  celldm(2)=   0.000000  celldm(3)=   0.000000
     celldm(4)=   0.000000  celldm(5)=   0.000000  celldm(6)=   0.000000

     crystal axes: (cart. coord. in units of alat)
               a(1) = (   1.000000   0.000000   0.000000 )  
               a(2) = (   0.000000   1.000000   0.000000 )  
               a(3) = (   0.000000   0.000000   1.000000 )  

     reciprocal axes: (cart. coord. in units 2 pi/alat)
               b(1) = (  1.000000  0.000000  0.000000 )  
               b(2) = (  0.000000  1.000000  0.000000 )  
               b(3) = (  0.000000  0.000000  1.000000 )  


     PseudoPot. # 1 for O  read from file:
     /home/gridsan/epan1/labutil/lab3_samples/pseudopotentials/O.pz-rrkjus.UPF
     MD5 check sum: 24fb942a68ef5d262e498166c462ef4a
     Pseudo is Ultrasoft, Zval =  6.0
     Generated by new atomic code, or converted to UPF format
     Using radial grid of 1269 points,  4 beta functions with: 
                l(1) =   0
                l(2) =   0
                l(3) =   1
                l(4) =   1
     Q(r) pseudized with 0 coefficients 


     PseudoPot. # 2 for Pb read from file:
     /home/gridsan/epan1/labutil/lab3_samples/pseudopotentials/Pb.pz-d-van.UPF
     MD5 check sum: 4e1e5920686a026ae26139ac417581ff
     Pseudo is Ultrasoft, Zval = 14.0
     Generated by new atomic code, or converted to UPF format
     Using radial grid of  899 points,  6 beta functions with: 
                l(1) =   0
                l(2) =   0
                l(3) =   1
                l(4) =   1
                l(5) =   2
                l(6) =   2
     Q(r) pseudized with  8 coefficients,  rinner =    1.000   1.000   1.000
                                                       1.000   1.000

     PseudoPot. # 3 for Ti read from file:
     /home/gridsan/epan1/labutil/lab3_samples/pseudopotentials/Ti.pz-sp-van_ak.UPF
     MD5 check sum: 545d0e6e05332b8871a8093f427cb0ca
     Pseudo is Ultrasoft, Zval = 12.0
     Generated by new atomic code, or converted to UPF format
     Using radial grid of  851 points,  6 beta functions with: 
                l(1) =   0
                l(2) =   0
                l(3) =   1
                l(4) =   1
                l(5) =   2
                l(6) =   2
     Q(r) pseudized with  8 coefficients,  rinner =    1.000   1.000   1.000
                                                       1.000   1.000

     atomic species   valence    mass     pseudopotential
        O              6.00    15.99900     O ( 1.00)
        Pb            14.00   207.20000     Pb( 1.00)
        Ti            12.00    47.86700     Ti( 1.00)

      8 Sym. Ops. (no inversion) found



   Cartesian axes

     site n.     atom                  positions (alat units)
         1           Pb  tau(   1) = (   0.0000000   0.0000000   0.0000000  )
         2           Ti  tau(   2) = (   0.5000000   0.5000000   0.4947371  )
         3           O   tau(   3) = (   0.0000000   0.5000000   0.5000000  )
         4           O   tau(   4) = (   0.5000000   0.0000000   0.5000000  )
         5           O   tau(   5) = (   0.5000000   0.5000000   0.0000000  )

     number of k points=     6
                       cart. coord. in units 2pi/alat
        k(    1) = (   0.1250000   0.1250000   0.1250000), wk =   0.2500000
        k(    2) = (   0.1250000   0.1250000   0.3750000), wk =   0.2500000
        k(    3) = (   0.1250000   0.3750000   0.3750000), wk =   0.5000000
        k(    4) = (   0.3750000   0.3750000   0.3750000), wk =   0.2500000
        k(    5) = (   0.3750000  -0.1250000   0.1250000), wk =   0.5000000
        k(    6) = (   0.3750000  -0.3750000   0.1250000), wk =   0.2500000

     Dense  grid:    24837 G-vectors     FFT dimensions: (  40,  40,  40)

     Smooth grid:     8733 G-vectors     FFT dimensions: (  25,  25,  25)

     Estimated max dynamical RAM per process >      51.66 MB

     Estimated total dynamical RAM >     103.32 MB

     Initial potential from superposition of free atoms

     starting charge      42.9982, renormalised to      44.0000
     Starting wfcs are   31 randomized atomic wfcs

     total cpu time spent up to now is        1.5 secs

     Self-consistent Calculation

     iteration #  1     ecut=    30.00 Ry     beta= 0.70
     Davidson diagonalization with overlap
     ethr =  1.00E-02,  avg # of iterations =  2.0

     total cpu time spent up to now is        1.8 secs

     total energy              =    -332.61371359 Ry
     estimated scf accuracy    <       1.10350110 Ry

     iteration #  2     ecut=    30.00 Ry     beta= 0.70
     Davidson diagonalization with overlap
     ethr =  2.51E-03,  avg # of iterations =  6.5

     total cpu time spent up to now is        2.2 secs

     total energy              =    -332.34993753 Ry
     estimated scf accuracy    <       4.37822854 Ry

     iteration #  3     ecut=    30.00 Ry     beta= 0.70
     Davidson diagonalization with overlap
     ethr =  2.51E-03,  avg # of iterations =  5.7

     total cpu time spent up to now is        2.5 secs

     total energy              =    -333.15941905 Ry
     estimated scf accuracy    <       0.22946366 Ry

     iteration #  4     ecut=    30.00 Ry     beta= 0.70
     Davidson diagonalization with overlap
     ethr =  5.22E-04,  avg # of iterations =  2.2

     total cpu time spent up to now is        2.8 secs

     total energy              =    -333.15495184 Ry
     estimated scf accuracy    <       0.06420128 Ry

     iteration #  5     ecut=    30.00 Ry     beta= 0.70
     Davidson diagonalization with overlap
     ethr =  1.46E-04,  avg # of iterations =  5.3

     total cpu time spent up to now is        3.1 secs

     total energy              =    -333.18270978 Ry
     estimated scf accuracy    <       0.02394294 Ry

     iteration #  6     ecut=    30.00 Ry     beta= 0.70
     Davidson diagonalization with overlap
     ethr =  5.44E-05,  avg # of iterations =  2.3

     total cpu time spent up to now is        3.4 secs

     total energy              =    -333.18208833 Ry
     estimated scf accuracy    <       0.00719235 Ry

     iteration #  7     ecut=    30.00 Ry     beta= 0.70
     Davidson diagonalization with overlap
     ethr =  1.63E-05,  avg # of iterations =  4.2

     total cpu time spent up to now is        3.7 secs

     total energy              =    -333.18453605 Ry
     estimated scf accuracy    <       0.00041119 Ry

     iteration #  8     ecut=    30.00 Ry     beta= 0.70
     Davidson diagonalization with overlap
     ethr =  9.35E-07,  avg # of iterations =  4.0

     total cpu time spent up to now is        4.0 secs

     total energy              =    -333.18450396 Ry
     estimated scf accuracy    <       0.00048344 Ry

     iteration #  9     ecut=    30.00 Ry     beta= 0.70
     Davidson diagonalization with overlap
     ethr =  9.35E-07,  avg # of iterations =  1.2

     total cpu time spent up to now is        4.3 secs

     total energy              =    -333.18443595 Ry
     estimated scf accuracy    <       0.00027039 Ry

     iteration # 10     ecut=    30.00 Ry     beta= 0.70
     Davidson diagonalization with overlap
     ethr =  6.15E-07,  avg # of iterations =  3.2

     total cpu time spent up to now is        4.6 secs

     total energy              =    -333.18447879 Ry
     estimated scf accuracy    <       0.00000935 Ry

     iteration # 11     ecut=    30.00 Ry     beta= 0.70
     Davidson diagonalization with overlap
     ethr =  2.12E-08,  avg # of iterations =  6.3

     total cpu time spent up to now is        4.9 secs

     total energy              =    -333.18448841 Ry
     estimated scf accuracy    <       0.00001631 Ry

     iteration # 12     ecut=    30.00 Ry     beta= 0.70
     Davidson diagonalization with overlap
     ethr =  2.12E-08,  avg # of iterations =  1.0

     total cpu time spent up to now is        5.2 secs

     total energy              =    -333.18448484 Ry
     estimated scf accuracy    <       0.00001058 Ry

     iteration # 13     ecut=    30.00 Ry     beta= 0.70
     Davidson diagonalization with overlap
     ethr =  2.12E-08,  avg # of iterations =  4.2

     total cpu time spent up to now is        5.5 secs

     total energy              =    -333.18448712 Ry
     estimated scf accuracy    <       0.00000011 Ry

     iteration # 14     ecut=    30.00 Ry     beta= 0.70
     Davidson diagonalization with overlap
     ethr =  2.60E-10,  avg # of iterations =  6.3

     total cpu time spent up to now is        5.9 secs

     total energy              =    -333.18448717 Ry
     estimated scf accuracy    <       0.00000013 Ry

     iteration # 15     ecut=    30.00 Ry     beta= 0.70
     Davidson diagonalization with overlap
     ethr =  2.60E-10,  avg # of iterations =  4.7

     total cpu time spent up to now is        6.2 secs

     End of self-consistent calculation

          k = 0.1250 0.1250 0.1250 (  1096 PWs)   bands (ev):

   -44.7353 -21.3411 -21.3393 -21.3388  -6.3714  -5.3033  -5.3013  -4.0225
    -4.0223  -4.0087  -3.8413  -3.8411   4.6075   7.2638   7.2647   8.0304
     9.0976   9.1001   9.8517   9.9095   9.9233  10.0576

          k = 0.1250 0.1250 0.3750 (  1095 PWs)   bands (ev):

   -44.7341 -21.3974 -21.3373 -21.3364  -5.9636  -5.1817  -5.1331  -4.0832
    -4.0176  -4.0052  -3.9391  -3.8108   3.8787   6.7941   7.2996   7.8072
     8.4057   8.7006   9.3412   9.9033  10.0673  10.8101

          k = 0.1250 0.3750 0.3750 (  1093 PWs)   bands (ev):

   -44.7329 -21.3942 -21.3923 -21.3349  -5.7499  -5.0547  -4.9859  -4.0568
    -4.0135  -3.9596  -3.8713  -3.7214   3.5138   6.7576   6.8061   7.1486
     7.4570   8.6266   9.4049   9.4391   9.9874  10.6808

          k = 0.3750 0.3750 0.3750 (  1082 PWs)   bands (ev):

   -44.7316 -21.3915 -21.3898 -21.3896  -5.3517  -5.1813  -5.1797  -3.9694
    -3.9691  -3.6804  -3.6138  -3.6131   4.1312   5.9157   5.9172   6.6670
     6.9881   6.9893   7.9328  10.6353  10.6376  10.7128

          k = 0.3750-0.1250 0.1250 (  1095 PWs)   bands (ev):

   -44.7341 -21.3957 -21.3386 -21.3367  -5.9649  -5.1833  -5.1308  -4.0831
    -4.0174  -4.0052  -3.9394  -3.8106   3.8795   6.7958   7.3030   7.8070
     8.4043   8.7049   9.3378   9.9036  10.0631  10.8081

          k = 0.3750-0.3750 0.1250 (  1093 PWs)   bands (ev):

   -44.7329 -21.3929 -21.3920 -21.3366  -5.7523  -5.0536  -4.9846  -4.0566
    -4.0135  -3.9593  -3.8712  -3.7223   3.5144   6.7673   6.7989   7.1476
     7.4558   8.6255   9.4066   9.4398   9.9865  10.6833

     highest occupied level (ev):    10.8101

!    total energy              =    -333.18448718 Ry
     estimated scf accuracy    <          6.4E-09 Ry

     The total energy is the sum of the following terms:
     one-electron contribution =     -76.94489138 Ry
     hartree contribution      =      66.35260259 Ry
     xc contribution           =     -49.63312069 Ry
     ewald contribution        =    -272.95907771 Ry

     convergence has been achieved in  15 iterations

     Forces acting on atoms (cartesian axes, Ry/au):

     atom    1 type  2   force =     0.00000000    0.00000000   -0.00224730
     atom    2 type  3   force =     0.00000000    0.00000000    0.00251815
     atom    3 type  1   force =     0.00000000    0.00000000    0.00008487
     atom    4 type  1   force =     0.00000000    0.00000000    0.00008487
     atom    5 type  1   force =     0.00000000    0.00000000   -0.00044060
     The non-local contrib.  to forces
     atom    1 type  2   force =     0.00000000    0.00000000    0.00123514
     atom    2 type  3   force =     0.00000000    0.00000000   -0.00171149
     atom    3 type  1   force =     0.00000000    0.00000000   -0.00999300
     atom    4 type  1   force =     0.00000000    0.00000000   -0.00999300
     atom    5 type  1   force =     0.00000000    0.00000000    0.03916355
     The ionic contribution  to forces
     atom    1 type  2   force =     0.00000000    0.00000000   -0.13775879
     atom    2 type  3   force =     0.00000000    0.00000000    0.31508317
     atom    3 type  1   force =     0.00000000   -0.00000000    0.15294443
     atom    4 type  1   force =    -0.00000000    0.00000000    0.15294443
     atom    5 type  1   force =    -0.00000000   -0.00000000   -0.48321324
     The local contribution  to forces
     atom    1 type  2   force =    -0.00000000   -0.00000000    0.13427519
     atom    2 type  3   force =    -0.00000000   -0.00000000   -0.31086078
     atom    3 type  1   force =     0.00000000   -0.00000000   -0.14287075
     atom    4 type  1   force =    -0.00000000    0.00000000   -0.14287075
     atom    5 type  1   force =    -0.00000000   -0.00000000    0.44361624
     The core correction contribution to forces
     atom    1 type  2   force =     0.00000000    0.00000000    0.00000000
     atom    2 type  3   force =     0.00000000    0.00000000    0.00000000
     atom    3 type  1   force =     0.00000000    0.00000000    0.00000000
     atom    4 type  1   force =     0.00000000    0.00000000    0.00000000
     atom    5 type  1   force =     0.00000000    0.00000000    0.00000000
     The Hubbard contrib.    to forces
     atom    1 type  2   force =     0.00000000    0.00000000    0.00000000
     atom    2 type  3   force =     0.00000000    0.00000000    0.00000000
     atom    3 type  1   force =     0.00000000    0.00000000    0.00000000
     atom    4 type  1   force =     0.00000000    0.00000000    0.00000000
     atom    5 type  1   force =     0.00000000    0.00000000    0.00000000
     The SCF correction term to forces
     atom    1 type  2   force =    -0.00000000    0.00000000    0.00000000
     atom    2 type  3   force =    -0.00000000    0.00000000    0.00000000
     atom    3 type  1   force =    -0.00000000   -0.00000000    0.00000326
     atom    4 type  1   force =     0.00000000   -0.00000000    0.00000326
     atom    5 type  1   force =     0.00000000    0.00000000   -0.00000807

     Total force =     0.000457     Total SCF correction =     0.000009


     Computing stress (Cartesian axis) and pressure

          total   stress  (Ry/bohr**3)                   (kbar)     P=      -22.84
  -0.00015663   0.00000000   0.00000000          -23.04        0.00        0.00
   0.00000000  -0.00015663   0.00000000            0.00      -23.04        0.00
   0.00000000   0.00000000  -0.00015258            0.00        0.00      -22.44


     BFGS Geometry Optimization
     Energy error            =      0.0E+00 Ry
     Gradient error          =      4.4E-04 Ry/Bohr

     bfgs converged in   1 scf cycles and   0 bfgs steps
     (criteria: energy <  1.0E-04 Ry, force <  1.0E-03 Ry/Bohr)

     End of BFGS Geometry Optimization

     Final energy             =    -333.1844871847 Ry
Begin final coordinates

ATOMIC_POSITIONS (angstrom)
Pb            0.0000000000        0.0000000000        0.0000000000    0   0   0
Ti            1.9400000000        1.9400000000        1.9195800000    0   0   0
O             0.0000000000        1.9400000000        1.9400000000
O             1.9400000000        0.0000000000        1.9400000000
O             1.9400000000        1.9400000000        0.0000000000
End final coordinates



     init_run     :      0.72s CPU      0.70s WALL (       1 calls)
     electrons    :      5.68s CPU      4.67s WALL (       1 calls)
     forces       :      0.15s CPU      0.11s WALL (       1 calls)
     stress       :      1.11s CPU      0.89s WALL (       1 calls)

     Called by init_run:
     wfcinit      :      0.08s CPU      0.08s WALL (       1 calls)
     potinit      :      0.04s CPU      0.05s WALL (       1 calls)
     hinit0       :      0.47s CPU      0.47s WALL (       1 calls)

     Called by electrons:
     c_bands      :      3.26s CPU      2.44s WALL (      15 calls)
     sum_band     :      1.54s CPU      1.35s WALL (      15 calls)
     v_of_rho     :      0.04s CPU      0.05s WALL (      16 calls)
     newd         :      0.83s CPU      0.83s WALL (      16 calls)
     mix_rho      :      0.04s CPU      0.03s WALL (      15 calls)

     Called by c_bands:
     init_us_2    :      0.12s CPU      0.09s WALL (     198 calls)
     init_us_2:cp :      0.12s CPU      0.09s WALL (     198 calls)
     cegterg      :      2.98s CPU      2.22s WALL (      90 calls)

     Called by *egterg:
     cdiaghg      :      0.53s CPU      0.38s WALL (     444 calls)
     h_psi        :      2.03s CPU      1.55s WALL (     450 calls)
     s_psi        :      0.09s CPU      0.07s WALL (     450 calls)
     g_psi        :      0.02s CPU      0.01s WALL (     354 calls)

     Called by h_psi:
     h_psi:calbec :      0.12s CPU      0.09s WALL (     450 calls)
     vloc_psi     :      1.80s CPU      1.38s WALL (     450 calls)
     add_vuspsi   :      0.09s CPU      0.07s WALL (     450 calls)

     General routines
     calbec       :      0.16s CPU      0.13s WALL (     570 calls)
     fft          :      0.24s CPU      0.23s WALL (      99 calls)
     ffts         :      0.04s CPU      0.04s WALL (      31 calls)
     fftw         :      1.73s CPU      1.32s WALL (   13376 calls)
     interpolate  :      0.05s CPU      0.05s WALL (      16 calls)

     Parallel routines

     PWSCF        :      8.00s CPU      7.18s WALL


   This run was terminated on:  18: 5:37   2Nov2023            

=------------------------------------------------------------------------------=
   JOB DONE.
=------------------------------------------------------------------------------=
