
     Program PWSCF v.7.2 starts on  1Nov2023 at 18: 5:55 

     This program is part of the open-source Quantum ESPRESSO suite
     for quantum simulation of materials; please cite
         "P. Giannozzi et al., J. Phys.:Condens. Matter 21 395502 (2009);
         "P. Giannozzi et al., J. Phys.:Condens. Matter 29 465901 (2017);
         "P. Giannozzi et al., J. Chem. Phys. 152 154105 (2020);
          URL http://www.quantum-espresso.org", 
     in publications or presentations arising from this work. More details at
     http://www.quantum-espresso.org/quote

     Parallel version (MPI), running on     8 processors

     MPI processes distributed on     8 nodes
     186942 MiB available memory on the printing compute node when the environment starts

     Waiting for input...
     Reading input from standard input

     Current dimensions of program PWSCF are:
     Max number of different atomic species (ntypx) = 10
     Max number of k-points (npk) =  40000
     Max angular momentum in pseudopotentials (lmaxx) =  4
     file Fe.pbe-nd-rrkjus.UPF: wavefunction(s)  4S renormalized
     Message from routine find_sym:
     Not a group! Trying with lower acceptance parameter...
     Message from routine find_sym:
     Symmetry operations form a group
     Message from routine setup:
     using ibrav=0 with symmetry is DISCOURAGED, use correct ibrav instead

     R & G space division:  proc/nbgrp/npool/nimage =       8
     Subspace diagonalization in iterative solution of the eigenvalue problem:
     a serial algorithm will be used


     Parallelization info
     --------------------
     sticks:   dense  smooth     PW     G-vecs:    dense   smooth      PW
     Min          45      23      7                 1167      417      81
     Max          46      24      8                 1174      422      84
     Sum         367     187     61                 9369     3357     663

     Using Slab Decomposition



     bravais-lattice index     =            0
     lattice parameter (alat)  =       4.7243  a.u.
     unit-cell volume          =     149.1185 (a.u.)^3
     number of atoms/cell      =            2
     number of atomic types    =            1
     number of electrons       =        16.00
     number of Kohn-Sham states=           12
     kinetic-energy cutoff     =      30.0000  Ry
     charge density cutoff     =     240.0000  Ry
     scf convergence threshold =      1.0E-07
     mixing beta               =       0.5000
     number of iterations used =            8  plain     mixing
     energy convergence thresh.=      1.0E-04
     force convergence thresh. =      1.0E-03
     press convergence thresh. =      5.0E-01
     Exchange-correlation=  SLA  PW   PBE  PBE
                           (   1   4   3   4   0   0   0)
     nstep                     =           50


     celldm(1)=   4.724315  celldm(2)=   0.000000  celldm(3)=   0.000000
     celldm(4)=   0.000000  celldm(5)=   0.000000  celldm(6)=   0.000000

     crystal axes: (cart. coord. in units of alat)
               a(1) = (   1.000000   0.000000   0.000000 )  
               a(2) = (  -0.500000   0.866025   0.000000 )  
               a(3) = (   0.000000   0.000000   1.632993 )  

     reciprocal axes: (cart. coord. in units 2 pi/alat)
               b(1) = (  1.000000  0.577350 -0.000000 )  
               b(2) = (  0.000000  1.154701  0.000000 )  
               b(3) = (  0.000000 -0.000000  0.612372 )  


     PseudoPot. # 1 for Fe read from file:
     /home/gridsan/epan1/labutil/lab3_samples/pseudopotentials/Fe.pbe-nd-rrkjus.UPF
     MD5 check sum: 398036227a04b607635f6f5e8dfd8242
     Pseudo is Ultrasoft + core correction, Zval =  8.0
     Generated by new atomic code, or converted to UPF format
     Using radial grid of  957 points,  6 beta functions with: 
                l(1) =   0
                l(2) =   0
                l(3) =   1
                l(4) =   1
                l(5) =   2
                l(6) =   2
     Q(r) pseudized with 0 coefficients 


     atomic species   valence    mass     pseudopotential
        Fe             8.00    55.84500     Fe( 1.00)

     Starting magnetic structure 
     atomic species   magnetization
        Fe           0.700

      4 Sym. Ops. (no inversion) found



   Cartesian axes

     site n.     atom                  positions (alat units)
         1           Fe  tau(   1) = (   0.0000000   0.0000000   0.0000000  )
         2           Fe  tau(   2) = (  -0.0000000   0.5773520   0.8164960  )

     number of k points=   186  Methfessel-Paxton smearing, width (Ry)=  0.0200

     Number of k-points >= 100: set verbosity='high' to print them.

     Dense  grid:     9369 G-vectors     FFT dimensions: (  24,  24,  40)

     Smooth grid:     3357 G-vectors     FFT dimensions: (  18,  18,  27)

     Estimated max dynamical RAM per process >      10.77 MB

     Estimated total dynamical RAM >      86.14 MB
     Generating pointlists ...
     new r_m :   0.4125 (alat units)  1.9488 (a.u.) for type    1

     Initial potential from superposition of free atoms

     starting charge      15.9987, renormalised to      16.0000
     Starting wfcs are   12 randomized atomic wfcs

     total cpu time spent up to now is        0.9 secs

     Self-consistent Calculation

     iteration #  1     ecut=    30.00 Ry     beta= 0.50
     Davidson diagonalization with overlap
     ethr =  1.00E-02,  avg # of iterations =  3.8

     total cpu time spent up to now is        3.1 secs

     total energy              =    -111.36522774 Ry
     estimated scf accuracy    <       0.51066754 Ry

     total magnetization       =     6.37 Bohr mag/cell
     absolute magnetization    =     6.37 Bohr mag/cell

     iteration #  2     ecut=    30.00 Ry     beta= 0.50
     Davidson diagonalization with overlap
     ethr =  3.19E-03,  avg # of iterations =  1.9

     total cpu time spent up to now is        4.8 secs

     total energy              =    -111.53054989 Ry
     estimated scf accuracy    <       0.04673887 Ry

     total magnetization       =     5.65 Bohr mag/cell
     absolute magnetization    =     5.67 Bohr mag/cell

     iteration #  3     ecut=    30.00 Ry     beta= 0.50
     Davidson diagonalization with overlap
     ethr =  2.92E-04,  avg # of iterations =  1.4

     total cpu time spent up to now is        6.3 secs

     total energy              =    -111.56177710 Ry
     estimated scf accuracy    <       0.01339635 Ry

     total magnetization       =     5.47 Bohr mag/cell
     absolute magnetization    =     5.53 Bohr mag/cell

     iteration #  4     ecut=    30.00 Ry     beta= 0.50
     Davidson diagonalization with overlap
     ethr =  8.37E-05,  avg # of iterations =  2.1

     total cpu time spent up to now is        8.0 secs

     total energy              =    -111.56072058 Ry
     estimated scf accuracy    <       0.10506863 Ry

     total magnetization       =     5.17 Bohr mag/cell
     absolute magnetization    =     5.31 Bohr mag/cell

     iteration #  5     ecut=    30.00 Ry     beta= 0.50
     Davidson diagonalization with overlap
     ethr =  8.37E-05,  avg # of iterations =  1.0

     total cpu time spent up to now is        9.6 secs

     total energy              =    -111.56650763 Ry
     estimated scf accuracy    <       0.00040883 Ry

     total magnetization       =     5.17 Bohr mag/cell
     absolute magnetization    =     5.33 Bohr mag/cell

     iteration #  6     ecut=    30.00 Ry     beta= 0.50
     Davidson diagonalization with overlap
     ethr =  2.56E-06,  avg # of iterations =  4.0

     total cpu time spent up to now is       12.4 secs

     total energy              =    -111.56679546 Ry
     estimated scf accuracy    <       0.00014804 Ry

     total magnetization       =     5.16 Bohr mag/cell
     absolute magnetization    =     5.33 Bohr mag/cell

     iteration #  7     ecut=    30.00 Ry     beta= 0.50
     Davidson diagonalization with overlap
     ethr =  9.25E-07,  avg # of iterations =  2.5

     total cpu time spent up to now is       14.3 secs

     total energy              =    -111.56684708 Ry
     estimated scf accuracy    <       0.00001053 Ry

     total magnetization       =     5.17 Bohr mag/cell
     absolute magnetization    =     5.33 Bohr mag/cell

     iteration #  8     ecut=    30.00 Ry     beta= 0.50
     Davidson diagonalization with overlap
     ethr =  6.58E-08,  avg # of iterations =  5.9

     total cpu time spent up to now is       17.6 secs

     total energy              =    -111.56686331 Ry
     estimated scf accuracy    <       0.00000072 Ry

     total magnetization       =     5.16 Bohr mag/cell
     absolute magnetization    =     5.33 Bohr mag/cell

     iteration #  9     ecut=    30.00 Ry     beta= 0.50
     Davidson diagonalization with overlap
     ethr =  4.52E-09,  avg # of iterations =  5.9

     total cpu time spent up to now is       20.9 secs

     total energy              =    -111.56686438 Ry
     estimated scf accuracy    <       0.00000130 Ry

     total magnetization       =     5.16 Bohr mag/cell
     absolute magnetization    =     5.33 Bohr mag/cell

     iteration # 10     ecut=    30.00 Ry     beta= 0.50
     Davidson diagonalization with overlap
     ethr =  4.52E-09,  avg # of iterations =  2.6

     Magnetic moment per site  (integrated on atomic sphere of radius R)
     atom   1 (R=0.412)  charge=  6.6070  magn=  2.6059
     atom   2 (R=0.412)  charge=  6.6066  magn=  2.6064

     total cpu time spent up to now is       23.7 secs

     End of self-consistent calculation

     Number of k-points >= 100: set verbosity='high' to print the bands.

     the Fermi energy is    14.3308 ev

!    total energy              =    -111.56686471 Ry
     estimated scf accuracy    <       0.00000007 Ry
     smearing contrib. (-TS)   =       0.00019415 Ry
     internal energy E=F+TS    =    -111.56705886 Ry

     The total energy is F=E-TS. E is the sum of the following terms:
     one-electron contribution =      16.48470867 Ry
     hartree contribution      =      12.82349248 Ry
     xc contribution           =     -53.04075376 Ry
     ewald contribution        =     -87.83450626 Ry

     total magnetization       =     5.16 Bohr mag/cell
     absolute magnetization    =     5.33 Bohr mag/cell

     convergence has been achieved in  10 iterations

     Forces acting on atoms (cartesian axes, Ry/au):

     atom    1 type  1   force =     0.00000000   -0.00000112    0.00000000
     atom    2 type  1   force =     0.00000000    0.00000112    0.00000000
     The non-local contrib.  to forces
     atom    1 type  1   force =     0.00000000    0.00000028    0.00000000
     atom    2 type  1   force =     0.00000000    0.00000333    0.00000000
     The ionic contribution  to forces
     atom    1 type  1   force =    -0.00000000    0.00000403   -0.00002690
     atom    2 type  1   force =     0.00000000   -0.00000403    0.00002690
     The local contribution  to forces
     atom    1 type  1   force =    -0.00000000   -0.00000473   -0.00000000
     atom    2 type  1   force =    -0.00000000   -0.00000057    0.00007646
     The core correction contribution to forces
     atom    1 type  1   force =    -0.00000000   -0.00000018    0.00000000
     atom    2 type  1   force =    -0.00000000   -0.00000048    0.00001275
     The Hubbard contrib.    to forces
     atom    1 type  1   force =     0.00000000    0.00000000    0.00000000
     atom    2 type  1   force =     0.00000000    0.00000000    0.00000000
     The SCF correction term to forces
     atom    1 type  1   force =     0.00000000    0.00000083    0.00000001
     atom    2 type  1   force =    -0.00000000    0.00000421   -0.00000003

     Total force =     0.000002     Total SCF correction =     0.000004
     SCF correction compared to forces is large: reduce conv_thr to get better values


     Computing stress (Cartesian axis) and pressure

          total   stress  (Ry/bohr**3)                   (kbar)     P=      201.30
   0.00109418   0.00000000   0.00000000          160.96        0.00        0.00
   0.00000000   0.00109416   0.00000000            0.00      160.96        0.00
   0.00000000   0.00000000   0.00191690            0.00        0.00      281.99


     BFGS Geometry Optimization
     Energy error            =      0.0E+00 Ry
     Gradient error          =      1.1E-06 Ry/Bohr
     Cell gradient error     =      2.8E+02 kbar

     number of scf cycles    =   1
     number of bfgs steps    =   0

     enthalpy           new  =    -111.5668647138 Ry

     new trust radius        =       0.1170405067 bohr
     new conv_thr            =       0.0000001000 Ry

     new unit-cell volume =    164.93061 a.u.^3 (    24.44020 Ang^3 )
     density =      7.58855 g/cm^3

CELL_PARAMETERS (angstrom)
   2.568386441   0.000000000   0.000000000
  -1.284193220   2.224286499   0.000000000
   0.000000000   0.000000000   4.278126106

ATOMIC_POSITIONS (angstrom)
Fe            0.0000000000       -0.0000006068        0.0000000000
Fe            0.0000000000        1.4828627183        2.1390615309



     Writing config-only to output data dir /home/gridsan/epan1/labutil/lab3_samples/problem1/Lab3/Fe_hcp_a_2.5_ecut_30_nk_10/pwscf.save/
     NEW-OLD atomic charge density approx. for the potential

     Check: negative core charge=   -0.000004
     extrapolated charge   17.53382, renormalised to   16.00000
     Generating pointlists ...

     total cpu time spent up to now is       25.1 secs

     Self-consistent Calculation

     iteration #  1     ecut=    30.00 Ry     beta= 0.50
     Davidson diagonalization with overlap
     ethr =  1.00E-06,  avg # of iterations = 12.7

     total cpu time spent up to now is       32.2 secs

     total energy              =    -110.67516266 Ry
     estimated scf accuracy    <       0.92987642 Ry

     total magnetization       =     4.08 Bohr mag/cell
     absolute magnetization    =     4.32 Bohr mag/cell

     iteration #  2     ecut=    30.00 Ry     beta= 0.50
     Davidson diagonalization with overlap
     ethr =  5.81E-03,  avg # of iterations =  3.2

     total cpu time spent up to now is       34.8 secs

     total energy              =    -111.53186050 Ry
     estimated scf accuracy    <       2.01626405 Ry

     total magnetization       =     4.74 Bohr mag/cell
     absolute magnetization    =     4.90 Bohr mag/cell

     iteration #  3     ecut=    30.00 Ry     beta= 0.50
     Davidson diagonalization with overlap
     ethr =  5.81E-03,  avg # of iterations =  1.7

     total cpu time spent up to now is       36.8 secs

     total energy              =    -111.63759068 Ry
     estimated scf accuracy    <       0.42622252 Ry

     total magnetization       =     5.11 Bohr mag/cell
     absolute magnetization    =     5.28 Bohr mag/cell

     iteration #  4     ecut=    30.00 Ry     beta= 0.50
     Davidson diagonalization with overlap
     ethr =  2.66E-03,  avg # of iterations =  1.0

     total cpu time spent up to now is       38.3 secs

     total energy              =    -111.60746515 Ry
     estimated scf accuracy    <       0.30743902 Ry

     total magnetization       =     5.13 Bohr mag/cell
     absolute magnetization    =     5.30 Bohr mag/cell

     iteration #  5     ecut=    30.00 Ry     beta= 0.50
     Davidson diagonalization with overlap
     ethr =  1.92E-03,  avg # of iterations =  1.0

     total cpu time spent up to now is       39.8 secs

     total energy              =    -111.60230802 Ry
     estimated scf accuracy    <       0.15907523 Ry

     total magnetization       =     5.20 Bohr mag/cell
     absolute magnetization    =     5.37 Bohr mag/cell

     iteration #  6     ecut=    30.00 Ry     beta= 0.50
     Davidson diagonalization with overlap
     ethr =  9.94E-04,  avg # of iterations =  1.0

     total cpu time spent up to now is       41.3 secs

     total energy              =    -111.58645756 Ry
     estimated scf accuracy    <       0.11021042 Ry

     total magnetization       =     5.25 Bohr mag/cell
     absolute magnetization    =     5.43 Bohr mag/cell

     iteration #  7     ecut=    30.00 Ry     beta= 0.50
     Davidson diagonalization with overlap
     ethr =  6.89E-04,  avg # of iterations =  1.0

     total cpu time spent up to now is       42.8 secs

     total energy              =    -111.57263571 Ry
     estimated scf accuracy    <       0.04966301 Ry

     total magnetization       =     5.32 Bohr mag/cell
     absolute magnetization    =     5.51 Bohr mag/cell

     iteration #  8     ecut=    30.00 Ry     beta= 0.50
     Davidson diagonalization with overlap
     ethr =  3.10E-04,  avg # of iterations =  1.6

     total cpu time spent up to now is       44.5 secs

     total energy              =    -111.57859859 Ry
     estimated scf accuracy    <       0.00391945 Ry

     total magnetization       =     5.39 Bohr mag/cell
     absolute magnetization    =     5.60 Bohr mag/cell

     iteration #  9     ecut=    30.00 Ry     beta= 0.50
     Davidson diagonalization with overlap
     ethr =  2.45E-05,  avg # of iterations =  2.6

     total cpu time spent up to now is       46.5 secs

     total energy              =    -111.58015318 Ry
     estimated scf accuracy    <       0.00207195 Ry

     total magnetization       =     5.39 Bohr mag/cell
     absolute magnetization    =     5.61 Bohr mag/cell

     iteration # 10     ecut=    30.00 Ry     beta= 0.50
     Davidson diagonalization with overlap
     ethr =  1.29E-05,  avg # of iterations =  1.3

     total cpu time spent up to now is       48.3 secs

     total energy              =    -111.57795146 Ry
     estimated scf accuracy    <       0.00518599 Ry

     total magnetization       =     5.39 Bohr mag/cell
     absolute magnetization    =     5.60 Bohr mag/cell

     iteration # 11     ecut=    30.00 Ry     beta= 0.50
     Davidson diagonalization with overlap
     ethr =  1.29E-05,  avg # of iterations =  2.6

     total cpu time spent up to now is       50.3 secs

     total energy              =    -111.57900390 Ry
     estimated scf accuracy    <       0.00000127 Ry

     total magnetization       =     5.40 Bohr mag/cell
     absolute magnetization    =     5.62 Bohr mag/cell

     iteration # 12     ecut=    30.00 Ry     beta= 0.50
     Davidson diagonalization with overlap
     ethr =  7.91E-09,  avg # of iterations =  9.1

     total cpu time spent up to now is       55.0 secs

     total energy              =    -111.57901557 Ry
     estimated scf accuracy    <       0.00002570 Ry

     total magnetization       =     5.40 Bohr mag/cell
     absolute magnetization    =     5.62 Bohr mag/cell

     iteration # 13     ecut=    30.00 Ry     beta= 0.50
     Davidson diagonalization with overlap
     ethr =  7.91E-09,  avg # of iterations =  4.9

     total cpu time spent up to now is       58.1 secs

     total energy              =    -111.57902953 Ry
     estimated scf accuracy    <       0.00001589 Ry

     total magnetization       =     5.40 Bohr mag/cell
     absolute magnetization    =     5.62 Bohr mag/cell

     iteration # 14     ecut=    30.00 Ry     beta= 0.50
     Davidson diagonalization with overlap
     ethr =  7.91E-09,  avg # of iterations =  1.5

     total cpu time spent up to now is       59.9 secs

     total energy              =    -111.57902635 Ry
     estimated scf accuracy    <       0.00001144 Ry

     total magnetization       =     5.40 Bohr mag/cell
     absolute magnetization    =     5.62 Bohr mag/cell

     iteration # 15     ecut=    30.00 Ry     beta= 0.50
     Davidson diagonalization with overlap
     ethr =  7.91E-09,  avg # of iterations =  3.2

     total cpu time spent up to now is       62.1 secs

     total energy              =    -111.57902739 Ry
     estimated scf accuracy    <       0.00000165 Ry

     total magnetization       =     5.40 Bohr mag/cell
     absolute magnetization    =     5.62 Bohr mag/cell

     iteration # 16     ecut=    30.00 Ry     beta= 0.50
     Davidson diagonalization with overlap
     ethr =  7.91E-09,  avg # of iterations =  1.0

     total cpu time spent up to now is       63.6 secs

     total energy              =    -111.57902730 Ry
     estimated scf accuracy    <       0.00000190 Ry

     total magnetization       =     5.40 Bohr mag/cell
     absolute magnetization    =     5.62 Bohr mag/cell

     iteration # 17     ecut=    30.00 Ry     beta= 0.50
     Davidson diagonalization with overlap
     ethr =  7.91E-09,  avg # of iterations =  1.0

     total cpu time spent up to now is       65.2 secs

     total energy              =    -111.57902695 Ry
     estimated scf accuracy    <       0.00000154 Ry

     total magnetization       =     5.40 Bohr mag/cell
     absolute magnetization    =     5.62 Bohr mag/cell

     iteration # 18     ecut=    30.00 Ry     beta= 0.50
     Davidson diagonalization with overlap
     ethr =  7.91E-09,  avg # of iterations =  1.0

     total cpu time spent up to now is       66.7 secs

     total energy              =    -111.57902685 Ry
     estimated scf accuracy    <       0.00000046 Ry

     total magnetization       =     5.40 Bohr mag/cell
     absolute magnetization    =     5.62 Bohr mag/cell

     iteration # 19     ecut=    30.00 Ry     beta= 0.50
     Davidson diagonalization with overlap
     ethr =  2.85E-09,  avg # of iterations =  2.0

     Magnetic moment per site  (integrated on atomic sphere of radius R)
     atom   1 (R=0.412)  charge=  6.4789  magn=  2.7345
     atom   2 (R=0.412)  charge=  6.4789  magn=  2.7345

     total cpu time spent up to now is       68.6 secs

     End of self-consistent calculation

     Number of k-points >= 100: set verbosity='high' to print the bands.

     the Fermi energy is    12.7254 ev

!    total energy              =    -111.57902691 Ry
     estimated scf accuracy    <       0.00000002 Ry
     smearing contrib. (-TS)   =       0.00008460 Ry
     internal energy E=F+TS    =    -111.57911151 Ry

     The total energy is F=E-TS. E is the sum of the following terms:
     one-electron contribution =      12.39025044 Ry
     hartree contribution      =      13.88152164 Ry
     xc contribution           =     -52.92214101 Ry
     ewald contribution        =     -84.92874258 Ry

     total magnetization       =     5.40 Bohr mag/cell
     absolute magnetization    =     5.62 Bohr mag/cell

     convergence has been achieved in  19 iterations

     Forces acting on atoms (cartesian axes, Ry/au):

     atom    1 type  1   force =     0.00000000   -0.00000056    0.00000000
     atom    2 type  1   force =    -0.00000000    0.00000056    0.00000000
     The non-local contrib.  to forces
     atom    1 type  1   force =     0.00000000   -0.00000138    0.00000000
     atom    2 type  1   force =    -0.00000000    0.00000133    0.00000000
     The ionic contribution  to forces
     atom    1 type  1   force =     0.00000000    0.00000325   -0.00002572
     atom    2 type  1   force =     0.00000000   -0.00000325    0.00002572
     The local contribution  to forces
     atom    1 type  1   force =    -0.00000000   -0.00000232    0.00000000
     atom    2 type  1   force =    -0.00000000    0.00000245    0.00008257
     The core correction contribution to forces
     atom    1 type  1   force =     0.00000000    0.00000006    0.00000001
     atom    2 type  1   force =    -0.00000000   -0.00000005    0.00001344
     The Hubbard contrib.    to forces
     atom    1 type  1   force =     0.00000000    0.00000000    0.00000000
     atom    2 type  1   force =     0.00000000    0.00000000    0.00000000
     The SCF correction term to forces
     atom    1 type  1   force =    -0.00000000   -0.00000012    0.00000000
     atom    2 type  1   force =     0.00000000    0.00000012   -0.00000000

     Total force =     0.000001     Total SCF correction =     0.000000
     SCF correction compared to forces is large: reduce conv_thr to get better values


     Computing stress (Cartesian axis) and pressure

          total   stress  (Ry/bohr**3)                   (kbar)     P=       11.89
  -0.00007083   0.00000000   0.00000000          -10.42        0.00        0.00
   0.00000000  -0.00007085   0.00000000            0.00      -10.42        0.00
   0.00000000   0.00000000   0.00038419            0.00        0.00       56.52

     Energy error            =      1.2E-02 Ry
     Gradient error          =      5.6E-07 Ry/Bohr
     Cell gradient error     =      5.7E+01 kbar

     number of scf cycles    =   2
     number of bfgs steps    =   1

     enthalpy           old  =    -111.5668647138 Ry
     enthalpy           new  =    -111.5790269148 Ry

     CASE: enthalpy          _new < enthalpy          _old

     new trust radius        =       0.0303688705 bohr
     new conv_thr            =       0.0000000010 Ry

     new unit-cell volume =    166.39987 a.u.^3 (    24.65792 Ang^3 )
     density =      7.52154 g/cm^3

CELL_PARAMETERS (angstrom)
   2.564684620   0.000000000   0.000000000
  -1.282342310   2.221079273   0.000000000
   0.000000000   0.000000000   4.328708757

ATOMIC_POSITIONS (angstrom)
Fe            0.0000000000       -0.0000009657        0.0000000000
Fe            0.0000000000        1.4807249199        2.1643528384



     Writing config-only to output data dir /home/gridsan/epan1/labutil/lab3_samples/problem1/Lab3/Fe_hcp_a_2.5_ecut_30_nk_10/pwscf.save/
     NEW-OLD atomic charge density approx. for the potential

     Check: negative core charge=   -0.000005
     extrapolated charge   16.14126, renormalised to   16.00000
     Generating pointlists ...

     total cpu time spent up to now is       70.0 secs

     Self-consistent Calculation

     iteration #  1     ecut=    30.00 Ry     beta= 0.50
     Davidson diagonalization with overlap
     ethr =  1.00E-06,  avg # of iterations =  6.1

     total cpu time spent up to now is       73.9 secs

     total energy              =    -111.57205442 Ry
     estimated scf accuracy    <       0.00777736 Ry

     total magnetization       =     5.41 Bohr mag/cell
     absolute magnetization    =     5.63 Bohr mag/cell

     iteration #  2     ecut=    30.00 Ry     beta= 0.50
     Davidson diagonalization with overlap
     ethr =  4.86E-05,  avg # of iterations =  3.7

     total cpu time spent up to now is       76.3 secs

     total energy              =    -111.57923618 Ry
     estimated scf accuracy    <       0.01522764 Ry

     total magnetization       =     5.40 Bohr mag/cell
     absolute magnetization    =     5.62 Bohr mag/cell

     iteration #  3     ecut=    30.00 Ry     beta= 0.50
     Davidson diagonalization with overlap
     ethr =  4.86E-05,  avg # of iterations =  1.8

     total cpu time spent up to now is       78.0 secs

     total energy              =    -111.57972831 Ry
     estimated scf accuracy    <       0.00303564 Ry

     total magnetization       =     5.41 Bohr mag/cell
     absolute magnetization    =     5.63 Bohr mag/cell

     iteration #  4     ecut=    30.00 Ry     beta= 0.50
     Davidson diagonalization with overlap
     ethr =  1.90E-05,  avg # of iterations =  1.3

     total cpu time spent up to now is       79.5 secs

     total energy              =    -111.57908950 Ry
     estimated scf accuracy    <       0.00143863 Ry

     total magnetization       =     5.41 Bohr mag/cell
     absolute magnetization    =     5.63 Bohr mag/cell

     iteration #  5     ecut=    30.00 Ry     beta= 0.50
     Davidson diagonalization with overlap
     ethr =  8.99E-06,  avg # of iterations =  3.0

     total cpu time spent up to now is       82.2 secs

     total energy              =    -111.57976658 Ry
     estimated scf accuracy    <       0.00034862 Ry

     total magnetization       =     5.41 Bohr mag/cell
     absolute magnetization    =     5.64 Bohr mag/cell

     iteration #  6     ecut=    30.00 Ry     beta= 0.50
     Davidson diagonalization with overlap
     ethr =  2.18E-06,  avg # of iterations =  1.8

     total cpu time spent up to now is       83.9 secs

     total energy              =    -111.57954865 Ry
     estimated scf accuracy    <       0.00062716 Ry

     total magnetization       =     5.41 Bohr mag/cell
     absolute magnetization    =     5.64 Bohr mag/cell

     iteration #  7     ecut=    30.00 Ry     beta= 0.50
     Davidson diagonalization with overlap
     ethr =  2.18E-06,  avg # of iterations =  2.0

     total cpu time spent up to now is       85.7 secs

     total energy              =    -111.57958557 Ry
     estimated scf accuracy    <       0.00004913 Ry

     total magnetization       =     5.41 Bohr mag/cell
     absolute magnetization    =     5.64 Bohr mag/cell

     iteration #  8     ecut=    30.00 Ry     beta= 0.50
     Davidson diagonalization with overlap
     ethr =  3.07E-07,  avg # of iterations =  3.2

     total cpu time spent up to now is       88.0 secs

     total energy              =    -111.57961051 Ry
     estimated scf accuracy    <       0.00001332 Ry

     total magnetization       =     5.41 Bohr mag/cell
     absolute magnetization    =     5.64 Bohr mag/cell

     iteration #  9     ecut=    30.00 Ry     beta= 0.50
     Davidson diagonalization with overlap
     ethr =  8.32E-08,  avg # of iterations =  1.0

     total cpu time spent up to now is       89.5 secs

     total energy              =    -111.57960686 Ry
     estimated scf accuracy    <       0.00000969 Ry

     total magnetization       =     5.41 Bohr mag/cell
     absolute magnetization    =     5.64 Bohr mag/cell

     iteration # 10     ecut=    30.00 Ry     beta= 0.50
     Davidson diagonalization with overlap
     ethr =  6.06E-08,  avg # of iterations =  1.7

     total cpu time spent up to now is       91.1 secs

     total energy              =    -111.57960805 Ry
     estimated scf accuracy    <       0.00000042 Ry

     total magnetization       =     5.41 Bohr mag/cell
     absolute magnetization    =     5.64 Bohr mag/cell

     iteration # 11     ecut=    30.00 Ry     beta= 0.50
     Davidson diagonalization with overlap
     ethr =  2.64E-09,  avg # of iterations =  3.6

     total cpu time spent up to now is       94.0 secs

     total energy              =    -111.57960828 Ry
     estimated scf accuracy    <          6.3E-09 Ry

     total magnetization       =     5.41 Bohr mag/cell
     absolute magnetization    =     5.64 Bohr mag/cell

     iteration # 12     ecut=    30.00 Ry     beta= 0.50
     Davidson diagonalization with overlap
     ethr =  3.97E-11,  avg # of iterations =  7.0

     total cpu time spent up to now is       97.8 secs

     total energy              =    -111.57960830 Ry
     estimated scf accuracy    <          7.7E-09 Ry

     total magnetization       =     5.41 Bohr mag/cell
     absolute magnetization    =     5.64 Bohr mag/cell

     iteration # 13     ecut=    30.00 Ry     beta= 0.50
     Davidson diagonalization with overlap
     ethr =  3.97E-11,  avg # of iterations =  2.1

     Magnetic moment per site  (integrated on atomic sphere of radius R)
     atom   1 (R=0.412)  charge=  6.4696  magn=  2.7430
     atom   2 (R=0.412)  charge=  6.4696  magn=  2.7430

     total cpu time spent up to now is       99.7 secs

     End of self-consistent calculation

     Number of k-points >= 100: set verbosity='high' to print the bands.

     the Fermi energy is    12.5789 ev

!    total energy              =    -111.57960830 Ry
     estimated scf accuracy    <          9.9E-12 Ry
     smearing contrib. (-TS)   =       0.00001940 Ry
     internal energy E=F+TS    =    -111.57962770 Ry

     The total energy is F=E-TS. E is the sum of the following terms:
     one-electron contribution =      12.01997421 Ry
     hartree contribution      =      13.98347941 Ry
     xc contribution           =     -52.91322086 Ry
     ewald contribution        =     -84.66986047 Ry

     total magnetization       =     5.41 Bohr mag/cell
     absolute magnetization    =     5.64 Bohr mag/cell

     convergence has been achieved in  13 iterations

     Forces acting on atoms (cartesian axes, Ry/au):

     atom    1 type  1   force =     0.00000000   -0.00000086    0.00000000
     atom    2 type  1   force =    -0.00000000    0.00000086    0.00000000
     The non-local contrib.  to forces
     atom    1 type  1   force =     0.00000000   -0.00000179    0.00000000
     atom    2 type  1   force =    -0.00000000    0.00000189    0.00000000
     The ionic contribution  to forces
     atom    1 type  1   force =    -0.00000000    0.00000254   -0.00002594
     atom    2 type  1   force =     0.00000000   -0.00000254    0.00002594
     The local contribution  to forces
     atom    1 type  1   force =     0.00000000   -0.00000168   -0.00000000
     atom    2 type  1   force =    -0.00000000    0.00000164    0.00008407
     The core correction contribution to forces
     atom    1 type  1   force =     0.00000000    0.00000007    0.00000002
     atom    2 type  1   force =    -0.00000000   -0.00000007    0.00001362
     The Hubbard contrib.    to forces
     atom    1 type  1   force =     0.00000000    0.00000000    0.00000000
     atom    2 type  1   force =     0.00000000    0.00000000    0.00000000
     The SCF correction term to forces
     atom    1 type  1   force =    -0.00000000    0.00000003   -0.00000000
     atom    2 type  1   force =     0.00000000   -0.00000004    0.00000000

     Total force =     0.000001     Total SCF correction =     0.000000


     Computing stress (Cartesian axis) and pressure

          total   stress  (Ry/bohr**3)                   (kbar)     P=       -2.97
  -0.00011747   0.00000000   0.00000000          -17.28        0.00        0.00
   0.00000000  -0.00011750   0.00000000            0.00      -17.28        0.00
   0.00000000   0.00000000   0.00017431            0.00        0.00       25.64

     Energy error            =      5.8E-04 Ry
     Gradient error          =      8.6E-07 Ry/Bohr
     Cell gradient error     =      2.6E+01 kbar

     number of scf cycles    =   3
     number of bfgs steps    =   2

     enthalpy           old  =    -111.5790269148 Ry
     enthalpy           new  =    -111.5796083039 Ry

     CASE: enthalpy          _new < enthalpy          _old

     new trust radius        =       0.0358867939 bohr
     new conv_thr            =       0.0000000010 Ry

     new unit-cell volume =    166.73059 a.u.^3 (    24.70692 Ang^3 )
     density =      7.50662 g/cm^3

CELL_PARAMETERS (angstrom)
   2.549563028   0.000000000   0.000000000
  -1.274781514   2.207980015   0.000000000
   0.000000000   0.000000000   4.388921239

ATOMIC_POSITIONS (angstrom)
Fe            0.0000000000       -0.0000020536        0.0000000000
Fe            0.0000000000        1.4719931433        2.1944590584



     Writing config-only to output data dir /home/gridsan/epan1/labutil/lab3_samples/problem1/Lab3/Fe_hcp_a_2.5_ecut_30_nk_10/pwscf.save/
     NEW-OLD atomic charge density approx. for the potential

     Check: negative core charge=   -0.000006
     extrapolated charge   16.03173, renormalised to   16.00000
     Generating pointlists ...

     total cpu time spent up to now is      101.2 secs

     Self-consistent Calculation

     iteration #  1     ecut=    30.00 Ry     beta= 0.50
     Davidson diagonalization with overlap
     ethr =  1.00E-06,  avg # of iterations =  5.5

     total cpu time spent up to now is      104.8 secs

     total energy              =    -111.57957055 Ry
     estimated scf accuracy    <       0.00040213 Ry

     total magnetization       =     5.42 Bohr mag/cell
     absolute magnetization    =     5.64 Bohr mag/cell

     iteration #  2     ecut=    30.00 Ry     beta= 0.50
     Davidson diagonalization with overlap
     ethr =  2.51E-06,  avg # of iterations =  3.6

     total cpu time spent up to now is      107.2 secs

     total energy              =    -111.57990867 Ry
     estimated scf accuracy    <       0.00073582 Ry

     total magnetization       =     5.42 Bohr mag/cell
     absolute magnetization    =     5.64 Bohr mag/cell

     iteration #  3     ecut=    30.00 Ry     beta= 0.50
     Davidson diagonalization with overlap
     ethr =  2.51E-06,  avg # of iterations =  1.7

     total cpu time spent up to now is      109.2 secs

     total energy              =    -111.57987144 Ry
     estimated scf accuracy    <       0.00015600 Ry

     total magnetization       =     5.42 Bohr mag/cell
     absolute magnetization    =     5.64 Bohr mag/cell

     iteration #  4     ecut=    30.00 Ry     beta= 0.50
     Davidson diagonalization with overlap
     ethr =  9.75E-07,  avg # of iterations =  3.2

     total cpu time spent up to now is      111.7 secs

     total energy              =    -111.57994464 Ry
     estimated scf accuracy    <       0.00023481 Ry

     total magnetization       =     5.42 Bohr mag/cell
     absolute magnetization    =     5.64 Bohr mag/cell

     iteration #  5     ecut=    30.00 Ry     beta= 0.50
     Davidson diagonalization with overlap
     ethr =  9.75E-07,  avg # of iterations =  1.0

     total cpu time spent up to now is      113.3 secs

     total energy              =    -111.57992336 Ry
     estimated scf accuracy    <       0.00007981 Ry

     total magnetization       =     5.42 Bohr mag/cell
     absolute magnetization    =     5.64 Bohr mag/cell

     iteration #  6     ecut=    30.00 Ry     beta= 0.50
     Davidson diagonalization with overlap
     ethr =  4.99E-07,  avg # of iterations =  2.0

     total cpu time spent up to now is      115.0 secs

     total energy              =    -111.57993554 Ry
     estimated scf accuracy    <       0.00000158 Ry

     total magnetization       =     5.42 Bohr mag/cell
     absolute magnetization    =     5.64 Bohr mag/cell

     iteration #  7     ecut=    30.00 Ry     beta= 0.50
     Davidson diagonalization with overlap
     ethr =  9.87E-09,  avg # of iterations =  3.8

     total cpu time spent up to now is      117.5 secs

     total energy              =    -111.57993696 Ry
     estimated scf accuracy    <       0.00000143 Ry

     total magnetization       =     5.42 Bohr mag/cell
     absolute magnetization    =     5.64 Bohr mag/cell

     iteration #  8     ecut=    30.00 Ry     beta= 0.50
     Davidson diagonalization with overlap
     ethr =  8.96E-09,  avg # of iterations =  1.0

     total cpu time spent up to now is      119.0 secs

     total energy              =    -111.57993687 Ry
     estimated scf accuracy    <       0.00000048 Ry

     total magnetization       =     5.42 Bohr mag/cell
     absolute magnetization    =     5.64 Bohr mag/cell

     iteration #  9     ecut=    30.00 Ry     beta= 0.50
     Davidson diagonalization with overlap
     ethr =  2.99E-09,  avg # of iterations =  1.9

     total cpu time spent up to now is      120.7 secs

     total energy              =    -111.57993692 Ry
     estimated scf accuracy    <       0.00000004 Ry

     total magnetization       =     5.42 Bohr mag/cell
     absolute magnetization    =     5.64 Bohr mag/cell

     iteration # 10     ecut=    30.00 Ry     beta= 0.50
     Davidson diagonalization with overlap
     ethr =  2.43E-10,  avg # of iterations =  4.8

     total cpu time spent up to now is      123.7 secs

     total energy              =    -111.57993696 Ry
     estimated scf accuracy    <       0.00000001 Ry

     total magnetization       =     5.42 Bohr mag/cell
     absolute magnetization    =     5.64 Bohr mag/cell

     iteration # 11     ecut=    30.00 Ry     beta= 0.50
     Davidson diagonalization with overlap
     ethr =  7.80E-11,  avg # of iterations =  3.2

     Magnetic moment per site  (integrated on atomic sphere of radius R)
     atom   1 (R=0.412)  charge=  6.4695  magn=  2.7453
     atom   2 (R=0.412)  charge=  6.4694  magn=  2.7453

     total cpu time spent up to now is      125.9 secs

     End of self-consistent calculation

     Number of k-points >= 100: set verbosity='high' to print the bands.

     the Fermi energy is    12.5276 ev

!    total energy              =    -111.57993696 Ry
     estimated scf accuracy    <          3.8E-10 Ry
     smearing contrib. (-TS)   =      -0.00005789 Ry
     internal energy E=F+TS    =    -111.57987907 Ry

     The total energy is F=E-TS. E is the sum of the following terms:
     one-electron contribution =      11.90238664 Ry
     hartree contribution      =      14.02436347 Ry
     xc contribution           =     -52.91370243 Ry
     ewald contribution        =     -84.59292674 Ry

     total magnetization       =     5.42 Bohr mag/cell
     absolute magnetization    =     5.64 Bohr mag/cell

     convergence has been achieved in  11 iterations

     Forces acting on atoms (cartesian axes, Ry/au):

     atom    1 type  1   force =     0.00000000   -0.00000074    0.00000000
     atom    2 type  1   force =    -0.00000000    0.00000074    0.00000000
     The non-local contrib.  to forces
     atom    1 type  1   force =     0.00000000   -0.00000283    0.00000000
     atom    2 type  1   force =    -0.00000000    0.00000293    0.00000000
     The ionic contribution  to forces
     atom    1 type  1   force =     0.00000000    0.00000129   -0.00002646
     atom    2 type  1   force =    -0.00000000   -0.00000129    0.00002646
     The local contribution  to forces
     atom    1 type  1   force =    -0.00000000    0.00000054    0.00000000
     atom    2 type  1   force =    -0.00000000   -0.00000059    0.00008586
     The core correction contribution to forces
     atom    1 type  1   force =     0.00000000    0.00000021    0.00000002
     atom    2 type  1   force =     0.00000000   -0.00000021    0.00001384
     The Hubbard contrib.    to forces
     atom    1 type  1   force =     0.00000000    0.00000000    0.00000000
     atom    2 type  1   force =     0.00000000    0.00000000    0.00000000
     The SCF correction term to forces
     atom    1 type  1   force =     0.00000000    0.00000009   -0.00000000
     atom    2 type  1   force =    -0.00000000   -0.00000007    0.00000000

     Total force =     0.000001     Total SCF correction =     0.000000
     SCF correction compared to forces is large: reduce conv_thr to get better values


     Computing stress (Cartesian axis) and pressure

          total   stress  (Ry/bohr**3)                   (kbar)     P=       -4.02
  -0.00003043   0.00000000   0.00000000           -4.48        0.00        0.00
   0.00000000  -0.00003046   0.00000000            0.00       -4.48        0.00
   0.00000000   0.00000000  -0.00002103            0.00        0.00       -3.09

     Energy error            =      3.3E-04 Ry
     Gradient error          =      7.4E-07 Ry/Bohr
     Cell gradient error     =      4.5E+00 kbar

     number of scf cycles    =   4
     number of bfgs steps    =   3

     enthalpy           old  =    -111.5796083039 Ry
     enthalpy           new  =    -111.5799369622 Ry

     CASE: enthalpy          _new < enthalpy          _old

     new trust radius        =       0.0018912621 bohr
     new conv_thr            =       0.0000000010 Ry

     new unit-cell volume =    166.44164 a.u.^3 (    24.66411 Ang^3 )
     density =      7.51966 g/cm^3

CELL_PARAMETERS (angstrom)
   2.547698252   0.000000000   0.000000000
  -1.273849126   2.206363018   0.000000000
   0.000000000   0.000000000   4.387735400

ATOMIC_POSITIONS (angstrom)
Fe            0.0000000000       -0.0000024587        0.0000000000
Fe            0.0000000000        1.4709155471        2.1938661389



     Writing config-only to output data dir /home/gridsan/epan1/labutil/lab3_samples/problem1/Lab3/Fe_hcp_a_2.5_ecut_30_nk_10/pwscf.save/
     NEW-OLD atomic charge density approx. for the potential

     Check: negative core charge=   -0.000006
     extrapolated charge   15.97223, renormalised to   16.00000
     Generating pointlists ...

     total cpu time spent up to now is      127.4 secs

     Self-consistent Calculation

     iteration #  1     ecut=    30.00 Ry     beta= 0.50
     Davidson diagonalization with overlap
     ethr =  1.00E-06,  avg # of iterations =  2.8

     total cpu time spent up to now is      129.6 secs

     total energy              =    -111.57969467 Ry
     estimated scf accuracy    <       0.00025714 Ry

     total magnetization       =     5.42 Bohr mag/cell
     absolute magnetization    =     5.64 Bohr mag/cell

     iteration #  2     ecut=    30.00 Ry     beta= 0.50
     Davidson diagonalization with overlap
     ethr =  1.61E-06,  avg # of iterations =  3.6

     total cpu time spent up to now is      132.0 secs

     total energy              =    -111.57992874 Ry
     estimated scf accuracy    <       0.00049234 Ry

     total magnetization       =     5.42 Bohr mag/cell
     absolute magnetization    =     5.64 Bohr mag/cell

     iteration #  3     ecut=    30.00 Ry     beta= 0.50
     Davidson diagonalization with overlap
     ethr =  1.61E-06,  avg # of iterations =  1.7

     total cpu time spent up to now is      133.6 secs

     total energy              =    -111.57995536 Ry
     estimated scf accuracy    <       0.00010800 Ry

     total magnetization       =     5.42 Bohr mag/cell
     absolute magnetization    =     5.64 Bohr mag/cell

     iteration #  4     ecut=    30.00 Ry     beta= 0.50
     Davidson diagonalization with overlap
     ethr =  6.75E-07,  avg # of iterations =  1.1

     total cpu time spent up to now is      135.1 secs

     total energy              =    -111.57991369 Ry
     estimated scf accuracy    <       0.00006817 Ry

     total magnetization       =     5.42 Bohr mag/cell
     absolute magnetization    =     5.64 Bohr mag/cell

     iteration #  5     ecut=    30.00 Ry     beta= 0.50
     Davidson diagonalization with overlap
     ethr =  4.26E-07,  avg # of iterations =  3.1

     total cpu time spent up to now is      137.6 secs

     total energy              =    -111.57994914 Ry
     estimated scf accuracy    <       0.00002687 Ry

     total magnetization       =     5.42 Bohr mag/cell
     absolute magnetization    =     5.64 Bohr mag/cell

     iteration #  6     ecut=    30.00 Ry     beta= 0.50
     Davidson diagonalization with overlap
     ethr =  1.68E-07,  avg # of iterations =  1.0

     total cpu time spent up to now is      139.2 secs

     total energy              =    -111.57994176 Ry
     estimated scf accuracy    <       0.00002646 Ry

     total magnetization       =     5.42 Bohr mag/cell
     absolute magnetization    =     5.64 Bohr mag/cell

     iteration #  7     ecut=    30.00 Ry     beta= 0.50
     Davidson diagonalization with overlap
     ethr =  1.65E-07,  avg # of iterations =  1.0

     total cpu time spent up to now is      140.8 secs

     total energy              =    -111.57994245 Ry
     estimated scf accuracy    <       0.00000598 Ry

     total magnetization       =     5.42 Bohr mag/cell
     absolute magnetization    =     5.64 Bohr mag/cell

     iteration #  8     ecut=    30.00 Ry     beta= 0.50
     Davidson diagonalization with overlap
     ethr =  3.74E-08,  avg # of iterations =  1.7

     total cpu time spent up to now is      142.4 secs

     total energy              =    -111.57994230 Ry
     estimated scf accuracy    <       0.00000262 Ry

     total magnetization       =     5.42 Bohr mag/cell
     absolute magnetization    =     5.64 Bohr mag/cell

     iteration #  9     ecut=    30.00 Ry     beta= 0.50
     Davidson diagonalization with overlap
     ethr =  1.64E-08,  avg # of iterations =  1.0

     total cpu time spent up to now is      143.9 secs

     total energy              =    -111.57994185 Ry
     estimated scf accuracy    <       0.00000116 Ry

     total magnetization       =     5.42 Bohr mag/cell
     absolute magnetization    =     5.64 Bohr mag/cell

     iteration # 10     ecut=    30.00 Ry     beta= 0.50
     Davidson diagonalization with overlap
     ethr =  7.23E-09,  avg # of iterations =  2.0

     total cpu time spent up to now is      145.7 secs

     total energy              =    -111.57994205 Ry
     estimated scf accuracy    <       0.00000001 Ry

     total magnetization       =     5.42 Bohr mag/cell
     absolute magnetization    =     5.64 Bohr mag/cell

     iteration # 11     ecut=    30.00 Ry     beta= 0.50
     Davidson diagonalization with overlap
     ethr =  8.77E-11,  avg # of iterations =  4.5

     total cpu time spent up to now is      148.5 secs

     total energy              =    -111.57994207 Ry
     estimated scf accuracy    <       0.00000001 Ry

     total magnetization       =     5.42 Bohr mag/cell
     absolute magnetization    =     5.64 Bohr mag/cell

     iteration # 12     ecut=    30.00 Ry     beta= 0.50
     Davidson diagonalization with overlap
     ethr =  8.17E-11,  avg # of iterations =  1.0

     total cpu time spent up to now is      150.3 secs

     total energy              =    -111.57994207 Ry
     estimated scf accuracy    <          2.9E-09 Ry

     total magnetization       =     5.42 Bohr mag/cell
     absolute magnetization    =     5.64 Bohr mag/cell

     iteration # 13     ecut=    30.00 Ry     beta= 0.50
     Davidson diagonalization with overlap
     ethr =  1.82E-11,  avg # of iterations =  1.8

     total cpu time spent up to now is      152.1 secs

     total energy              =    -111.57994207 Ry
     estimated scf accuracy    <          1.2E-09 Ry

     total magnetization       =     5.42 Bohr mag/cell
     absolute magnetization    =     5.64 Bohr mag/cell

     iteration # 14     ecut=    30.00 Ry     beta= 0.50
     Davidson diagonalization with overlap
     ethr =  7.54E-12,  avg # of iterations =  1.2

     total cpu time spent up to now is      153.6 secs

     total energy              =    -111.57994207 Ry
     estimated scf accuracy    <          1.0E-09 Ry

     total magnetization       =     5.42 Bohr mag/cell
     absolute magnetization    =     5.64 Bohr mag/cell

     iteration # 15     ecut=    30.00 Ry     beta= 0.50
     Davidson diagonalization with overlap
     ethr =  6.39E-12,  avg # of iterations =  1.2

     Magnetic moment per site  (integrated on atomic sphere of radius R)
     atom   1 (R=0.412)  charge=  6.4715  magn=  2.7436
     atom   2 (R=0.412)  charge=  6.4715  magn=  2.7436

     total cpu time spent up to now is      155.1 secs

     End of self-consistent calculation

     Number of k-points >= 100: set verbosity='high' to print the bands.

     the Fermi energy is    12.5528 ev

!    total energy              =    -111.57994207 Ry
     estimated scf accuracy    <          4.8E-10 Ry
     smearing contrib. (-TS)   =      -0.00005763 Ry
     internal energy E=F+TS    =    -111.57988444 Ry

     The total energy is F=E-TS. E is the sum of the following terms:
     one-electron contribution =      11.97072531 Ry
     hartree contribution      =      14.00625190 Ry
     xc contribution           =     -52.91563108 Ry
     ewald contribution        =     -84.64123058 Ry

     total magnetization       =     5.42 Bohr mag/cell
     absolute magnetization    =     5.64 Bohr mag/cell

     convergence has been achieved in  15 iterations

     Forces acting on atoms (cartesian axes, Ry/au):

     atom    1 type  1   force =     0.00000000   -0.00000095    0.00000000
     atom    2 type  1   force =    -0.00000000    0.00000095    0.00000000
     The non-local contrib.  to forces
     atom    1 type  1   force =     0.00000000   -0.00000361    0.00000000
     atom    2 type  1   force =    -0.00000000    0.00000369    0.00000000
     The ionic contribution  to forces
     atom    1 type  1   force =    -0.00000000    0.00000045   -0.00002650
     atom    2 type  1   force =     0.00000000   -0.00000045    0.00002650
     The local contribution  to forces
     atom    1 type  1   force =     0.00000000    0.00000193   -0.00000000
     atom    2 type  1   force =    -0.00000000   -0.00000195    0.00008583
     The core correction contribution to forces
     atom    1 type  1   force =    -0.00000000    0.00000028    0.00000002
     atom    2 type  1   force =    -0.00000000   -0.00000028    0.00001384
     The Hubbard contrib.    to forces
     atom    1 type  1   force =     0.00000000    0.00000000    0.00000000
     atom    2 type  1   force =     0.00000000    0.00000000    0.00000000
     The SCF correction term to forces
     atom    1 type  1   force =     0.00000000    0.00000003    0.00000000
     atom    2 type  1   force =    -0.00000000   -0.00000003    0.00000000

     Total force =     0.000001     Total SCF correction =     0.000000


     Computing stress (Cartesian axis) and pressure

          total   stress  (Ry/bohr**3)                   (kbar)     P=       -1.44
  -0.00000980   0.00000000   0.00000000           -1.44        0.00        0.00
   0.00000000  -0.00000983   0.00000000            0.00       -1.45        0.00
   0.00000000   0.00000000  -0.00000966            0.00        0.00       -1.42

     Energy error            =      5.1E-06 Ry
     Gradient error          =      9.5E-07 Ry/Bohr
     Cell gradient error     =      1.4E+00 kbar

     number of scf cycles    =   5
     number of bfgs steps    =   4

     enthalpy           old  =    -111.5799369622 Ry
     enthalpy           new  =    -111.5799420745 Ry

     CASE: enthalpy          _new < enthalpy          _old

     new trust radius        =       0.0009842975 bohr
     new conv_thr            =       0.0000000010 Ry

     new unit-cell volume =    166.27640 a.u.^3 (    24.63962 Ang^3 )
     density =      7.52713 g/cm^3

CELL_PARAMETERS (angstrom)
   2.546921131   0.000000000   0.000000000
  -1.273460565   2.205686538   0.000000000
   0.000000000   0.000000000   4.386061591

ATOMIC_POSITIONS (angstrom)
Fe            0.0000000000       -0.0000032336        0.0000000000
Fe            0.0000000000        1.4704653336        2.1930292352



     Writing config-only to output data dir /home/gridsan/epan1/labutil/lab3_samples/problem1/Lab3/Fe_hcp_a_2.5_ecut_30_nk_10/pwscf.save/
     NEW-OLD atomic charge density approx. for the potential

     Check: negative core charge=   -0.000005
     extrapolated charge   15.98410, renormalised to   16.00000
     Generating pointlists ...

     total cpu time spent up to now is      156.5 secs

     Self-consistent Calculation

     iteration #  1     ecut=    30.00 Ry     beta= 0.50
     Davidson diagonalization with overlap
     ethr =  1.00E-06,  avg # of iterations =  2.0

     total cpu time spent up to now is      158.5 secs

     total energy              =    -111.57986952 Ry
     estimated scf accuracy    <       0.00007594 Ry

     total magnetization       =     5.42 Bohr mag/cell
     absolute magnetization    =     5.63 Bohr mag/cell

     iteration #  2     ecut=    30.00 Ry     beta= 0.50
     Davidson diagonalization with overlap
     ethr =  4.75E-07,  avg # of iterations =  3.6

     total cpu time spent up to now is      161.0 secs

     total energy              =    -111.57993852 Ry
     estimated scf accuracy    <       0.00014455 Ry

     total magnetization       =     5.42 Bohr mag/cell
     absolute magnetization    =     5.64 Bohr mag/cell

     iteration #  3     ecut=    30.00 Ry     beta= 0.50
     Davidson diagonalization with overlap
     ethr =  4.75E-07,  avg # of iterations =  1.8

     total cpu time spent up to now is      162.6 secs

     total energy              =    -111.57994088 Ry
     estimated scf accuracy    <       0.00002823 Ry

     total magnetization       =     5.42 Bohr mag/cell
     absolute magnetization    =     5.63 Bohr mag/cell

     iteration #  4     ecut=    30.00 Ry     beta= 0.50
     Davidson diagonalization with overlap
     ethr =  1.76E-07,  avg # of iterations =  1.6

     total cpu time spent up to now is      164.3 secs

     total energy              =    -111.57993918 Ry
     estimated scf accuracy    <       0.00000792 Ry

     total magnetization       =     5.42 Bohr mag/cell
     absolute magnetization    =     5.63 Bohr mag/cell

     iteration #  5     ecut=    30.00 Ry     beta= 0.50
     Davidson diagonalization with overlap
     ethr =  4.95E-08,  avg # of iterations =  3.3

     total cpu time spent up to now is      167.0 secs

     total energy              =    -111.57994541 Ry
     estimated scf accuracy    <       0.00000463 Ry

     total magnetization       =     5.42 Bohr mag/cell
     absolute magnetization    =     5.63 Bohr mag/cell

     iteration #  6     ecut=    30.00 Ry     beta= 0.50
     Davidson diagonalization with overlap
     ethr =  2.89E-08,  avg # of iterations =  1.5

     total cpu time spent up to now is      168.8 secs

     total energy              =    -111.57994173 Ry
     estimated scf accuracy    <       0.00001124 Ry

     total magnetization       =     5.42 Bohr mag/cell
     absolute magnetization    =     5.63 Bohr mag/cell

     iteration #  7     ecut=    30.00 Ry     beta= 0.50
     Davidson diagonalization with overlap
     ethr =  2.89E-08,  avg # of iterations =  2.0

     total cpu time spent up to now is      170.6 secs

     total energy              =    -111.57994221 Ry
     estimated scf accuracy    <       0.00000124 Ry

     total magnetization       =     5.42 Bohr mag/cell
     absolute magnetization    =     5.63 Bohr mag/cell

     iteration #  8     ecut=    30.00 Ry     beta= 0.50
     Davidson diagonalization with overlap
     ethr =  7.76E-09,  avg # of iterations =  2.1

     total cpu time spent up to now is      172.5 secs

     total energy              =    -111.57994249 Ry
     estimated scf accuracy    <          5.8E-09 Ry

     total magnetization       =     5.42 Bohr mag/cell
     absolute magnetization    =     5.63 Bohr mag/cell

     iteration #  9     ecut=    30.00 Ry     beta= 0.50
     Davidson diagonalization with overlap
     ethr =  3.60E-11,  avg # of iterations =  4.8

     total cpu time spent up to now is      175.4 secs

     total energy              =    -111.57994251 Ry
     estimated scf accuracy    <          4.9E-09 Ry

     total magnetization       =     5.42 Bohr mag/cell
     absolute magnetization    =     5.63 Bohr mag/cell

     iteration # 10     ecut=    30.00 Ry     beta= 0.50
     Davidson diagonalization with overlap
     ethr =  3.04E-11,  avg # of iterations =  3.5

     total cpu time spent up to now is      178.2 secs

     total energy              =    -111.57994252 Ry
     estimated scf accuracy    <       0.00000001 Ry

     total magnetization       =     5.42 Bohr mag/cell
     absolute magnetization    =     5.63 Bohr mag/cell

     iteration # 11     ecut=    30.00 Ry     beta= 0.50
     Davidson diagonalization with overlap
     ethr =  3.04E-11,  avg # of iterations =  1.0

     total cpu time spent up to now is      179.8 secs

     total energy              =    -111.57994251 Ry
     estimated scf accuracy    <       0.00000001 Ry

     total magnetization       =     5.42 Bohr mag/cell
     absolute magnetization    =     5.63 Bohr mag/cell

     iteration # 12     ecut=    30.00 Ry     beta= 0.50
     Davidson diagonalization with overlap
     ethr =  3.04E-11,  avg # of iterations =  1.9

     total cpu time spent up to now is      181.5 secs

     total energy              =    -111.57994251 Ry
     estimated scf accuracy    <          3.4E-09 Ry

     total magnetization       =     5.42 Bohr mag/cell
     absolute magnetization    =     5.63 Bohr mag/cell

     iteration # 13     ecut=    30.00 Ry     beta= 0.50
     Davidson diagonalization with overlap
     ethr =  2.11E-11,  avg # of iterations =  2.2

     Magnetic moment per site  (integrated on atomic sphere of radius R)
     atom   1 (R=0.412)  charge=  6.4726  magn=  2.7426
     atom   2 (R=0.412)  charge=  6.4726  magn=  2.7426

     total cpu time spent up to now is      183.4 secs

     End of self-consistent calculation

     Number of k-points >= 100: set verbosity='high' to print the bands.

     the Fermi energy is    12.5676 ev

!    total energy              =    -111.57994251 Ry
     estimated scf accuracy    <          1.5E-11 Ry
     smearing contrib. (-TS)   =      -0.00005609 Ry
     internal energy E=F+TS    =    -111.57988642 Ry

     The total energy is F=E-TS. E is the sum of the following terms:
     one-electron contribution =      12.01063435 Ry
     hartree contribution      =      13.99558235 Ry
     xc contribution           =     -52.91674197 Ry
     ewald contribution        =     -84.66936115 Ry

     total magnetization       =     5.42 Bohr mag/cell
     absolute magnetization    =     5.63 Bohr mag/cell

     convergence has been achieved in  13 iterations

     Forces acting on atoms (cartesian axes, Ry/au):

     atom    1 type  1   force =     0.00000000   -0.00000112    0.00000000
     atom    2 type  1   force =    -0.00000000    0.00000112    0.00000000
     The non-local contrib.  to forces
     atom    1 type  1   force =     0.00000000   -0.00000483    0.00000000
     atom    2 type  1   force =    -0.00000000    0.00000492    0.00000000
     The ionic contribution  to forces
     atom    1 type  1   force =    -0.00000000   -0.00000085   -0.00002652
     atom    2 type  1   force =     0.00000000    0.00000085    0.00002652
     The local contribution  to forces
     atom    1 type  1   force =     0.00000000    0.00000414    0.00000000
     atom    2 type  1   force =    -0.00000000   -0.00000418    0.00008577
     The core correction contribution to forces
     atom    1 type  1   force =    -0.00000000    0.00000042    0.00000002
     atom    2 type  1   force =    -0.00000000   -0.00000042    0.00001383
     The Hubbard contrib.    to forces
     atom    1 type  1   force =     0.00000000    0.00000000    0.00000000
     atom    2 type  1   force =     0.00000000    0.00000000    0.00000000
     The SCF correction term to forces
     atom    1 type  1   force =    -0.00000000    0.00000003   -0.00000000
     atom    2 type  1   force =    -0.00000000   -0.00000003    0.00000000

     Total force =     0.000002     Total SCF correction =     0.000000


     Computing stress (Cartesian axis) and pressure

          total   stress  (Ry/bohr**3)                   (kbar)     P=        0.33
   0.00000223  -0.00000000   0.00000000            0.33       -0.00        0.00
   0.00000000   0.00000218   0.00000000            0.00        0.32        0.00
   0.00000000   0.00000000   0.00000230            0.00        0.00        0.34

     Energy error            =      4.4E-07 Ry
     Gradient error          =      1.1E-06 Ry/Bohr
     Cell gradient error     =      3.4E-01 kbar

     bfgs converged in   6 scf cycles and   5 bfgs steps
     (criteria: energy <  1.0E-04 Ry, force <  1.0E-03 Ry/Bohr, cell <  5.0E-01 kbar)

     End of BFGS Geometry Optimization

     Final enthalpy           =    -111.5799425117 Ry

     File /home/gridsan/epan1/labutil/lab3_samples/problem1/Lab3/Fe_hcp_a_2.5_ecut_30_nk_10/pwscf.bfgs deleted, as requested
Begin final coordinates
     new unit-cell volume =    166.27640 a.u.^3 (    24.63962 Ang^3 )
     density =      7.52713 g/cm^3

CELL_PARAMETERS (angstrom)
   2.546921131   0.000000000   0.000000000
  -1.273460565   2.205686538   0.000000000
   0.000000000   0.000000000   4.386061591

ATOMIC_POSITIONS (angstrom)
Fe            0.0000000000       -0.0000032336        0.0000000000
Fe            0.0000000000        1.4704653336        2.1930292352
End final coordinates



     Writing config-only to output data dir /home/gridsan/epan1/labutil/lab3_samples/problem1/Lab3/Fe_hcp_a_2.5_ecut_30_nk_10/pwscf.save/

     Final scf calculation at the relaxed structure.
     The G-vectors are recalculated for the final unit cell
     Results may differ from those at the preceding step.

     Parallelization info
     --------------------
     sticks:   dense  smooth     PW     G-vecs:    dense   smooth      PW
     Min          47      24      7                 1303      464      87
     Max          48      26      8                 1308      466      92
     Sum         379     199     61                10439     3719     713

     Using Slab Decomposition



     bravais-lattice index     =            0
     lattice parameter (alat)  =       4.7243  a.u.
     unit-cell volume          =     166.2764 (a.u.)^3
     number of atoms/cell      =            2
     number of atomic types    =            1
     number of electrons       =        16.00
     number of Kohn-Sham states=           12
     kinetic-energy cutoff     =      30.0000  Ry
     charge density cutoff     =     240.0000  Ry
     scf convergence threshold =      1.0E-09
     mixing beta               =       0.5000
     number of iterations used =            8  plain     mixing
     press convergence thresh. =      5.0E-01
     Exchange-correlation=  SLA  PW   PBE  PBE
                           (   1   4   3   4   0   0   0)

     celldm(1)=   4.724315  celldm(2)=   0.000000  celldm(3)=   0.000000
     celldm(4)=   0.000000  celldm(5)=   0.000000  celldm(6)=   0.000000

     crystal axes: (cart. coord. in units of alat)
               a(1) = (   1.018768   0.000000   0.000000 )  
               a(2) = (  -0.509384   0.882275   0.000000 )  
               a(3) = (   0.000000   0.000000   1.754425 )  

     reciprocal axes: (cart. coord. in units 2 pi/alat)
               b(1) = (  0.981577  0.566717 -0.000000 )  
               b(2) = ( -0.000000  1.133434  0.000000 )  
               b(3) = (  0.000000 -0.000000  0.569987 )  


     PseudoPot. # 1 for Fe read from file:
     /home/gridsan/epan1/labutil/lab3_samples/pseudopotentials/Fe.pbe-nd-rrkjus.UPF
     MD5 check sum: 398036227a04b607635f6f5e8dfd8242
     Pseudo is Ultrasoft + core correction, Zval =  8.0
     Generated by new atomic code, or converted to UPF format
     Using radial grid of  957 points,  6 beta functions with: 
                l(1) =   0
                l(2) =   0
                l(3) =   1
                l(4) =   1
                l(5) =   2
                l(6) =   2
     Q(r) pseudized with 0 coefficients 


     atomic species   valence    mass     pseudopotential
        Fe             8.00    55.84500     Fe( 1.00)

     Starting magnetic structure 
     atomic species   magnetization
        Fe           0.424

      4 Sym. Ops. (no inversion) found



   Cartesian axes

     site n.     atom                  positions (alat units)
         1           Fe  tau(   1) = (   0.0000000  -0.0000013   0.0000000  )
         2           Fe  tau(   2) = (   0.0000000   0.5881861   0.8772117  )

     number of k points=   186  Methfessel-Paxton smearing, width (Ry)=  0.0200

     Number of k-points >= 100: set verbosity='high' to print them.

     Dense  grid:    10439 G-vectors     FFT dimensions: (  24,  24,  45)

     Smooth grid:     3719 G-vectors     FFT dimensions: (  18,  18,  30)

     Estimated max dynamical RAM per process >      11.75 MB

     Estimated total dynamical RAM >      94.00 MB
     Generating pointlists ...

     Initial potential from superposition of free atoms

     starting charge      15.9987, renormalised to      16.0000
     Starting wfcs are   12 randomized atomic wfcs

     total cpu time spent up to now is      185.6 secs

     Self-consistent Calculation

     iteration #  1     ecut=    30.00 Ry     beta= 0.50
     Davidson diagonalization with overlap
     c_bands:  1 eigenvalues not converged
     c_bands:  1 eigenvalues not converged
     c_bands:  1 eigenvalues not converged
     c_bands:  1 eigenvalues not converged
     c_bands:  1 eigenvalues not converged
     c_bands:  3 eigenvalues not converged
     c_bands:  1 eigenvalues not converged
     c_bands:  1 eigenvalues not converged
     c_bands:  1 eigenvalues not converged
     c_bands:  1 eigenvalues not converged
     c_bands:  1 eigenvalues not converged
     c_bands:  1 eigenvalues not converged
     c_bands:  1 eigenvalues not converged
     c_bands:  1 eigenvalues not converged
     c_bands:  1 eigenvalues not converged
     c_bands:  1 eigenvalues not converged
     c_bands:  1 eigenvalues not converged
     c_bands:  1 eigenvalues not converged
     c_bands:  1 eigenvalues not converged
     c_bands:  1 eigenvalues not converged
     c_bands:  1 eigenvalues not converged
     c_bands:  1 eigenvalues not converged
     c_bands:  1 eigenvalues not converged
     c_bands:  1 eigenvalues not converged
     c_bands:  1 eigenvalues not converged
     c_bands:  1 eigenvalues not converged
     c_bands:  1 eigenvalues not converged
     c_bands:  1 eigenvalues not converged
     c_bands:  1 eigenvalues not converged
     c_bands:  1 eigenvalues not converged
     c_bands:  1 eigenvalues not converged
     c_bands:  1 eigenvalues not converged
     c_bands:  1 eigenvalues not converged
     c_bands:  1 eigenvalues not converged
     ethr =  1.00E-06,  avg # of iterations = 15.5

     total cpu time spent up to now is      193.9 secs

     total energy              =    -111.31504257 Ry
     estimated scf accuracy    <       0.69240057 Ry

     total magnetization       =     5.19 Bohr mag/cell
     absolute magnetization    =     5.19 Bohr mag/cell

     iteration #  2     ecut=    30.00 Ry     beta= 0.50
     Davidson diagonalization with overlap
     ethr =  4.33E-03,  avg # of iterations =  2.3

     total cpu time spent up to now is      196.2 secs

     total energy              =    -111.54935270 Ry
     estimated scf accuracy    <       0.14331220 Ry

     total magnetization       =     5.37 Bohr mag/cell
     absolute magnetization    =     5.39 Bohr mag/cell

     iteration #  3     ecut=    30.00 Ry     beta= 0.50
     Davidson diagonalization with overlap
     ethr =  8.96E-04,  avg # of iterations =  1.4

     total cpu time spent up to now is      197.8 secs

     total energy              =    -111.57249328 Ry
     estimated scf accuracy    <       0.00901457 Ry

     total magnetization       =     5.41 Bohr mag/cell
     absolute magnetization    =     5.45 Bohr mag/cell

     iteration #  4     ecut=    30.00 Ry     beta= 0.50
     Davidson diagonalization with overlap
     ethr =  5.63E-05,  avg # of iterations =  3.1

     total cpu time spent up to now is      200.0 secs

     total energy              =    -111.57659823 Ry
     estimated scf accuracy    <       0.00824160 Ry

     total magnetization       =     5.39 Bohr mag/cell
     absolute magnetization    =     5.53 Bohr mag/cell

     iteration #  5     ecut=    30.00 Ry     beta= 0.50
     Davidson diagonalization with overlap
     ethr =  5.15E-05,  avg # of iterations =  2.5

     total cpu time spent up to now is      202.0 secs

     total energy              =    -111.58031989 Ry
     estimated scf accuracy    <       0.01959355 Ry

     total magnetization       =     5.40 Bohr mag/cell
     absolute magnetization    =     5.60 Bohr mag/cell

     iteration #  6     ecut=    30.00 Ry     beta= 0.50
     Davidson diagonalization with overlap
     ethr =  5.15E-05,  avg # of iterations =  1.0

     total cpu time spent up to now is      203.5 secs

     total energy              =    -111.57948170 Ry
     estimated scf accuracy    <       0.00456064 Ry

     total magnetization       =     5.40 Bohr mag/cell
     absolute magnetization    =     5.61 Bohr mag/cell

     iteration #  7     ecut=    30.00 Ry     beta= 0.50
     Davidson diagonalization with overlap
     ethr =  2.85E-05,  avg # of iterations =  1.7

     total cpu time spent up to now is      205.2 secs

     total energy              =    -111.58011387 Ry
     estimated scf accuracy    <       0.00012701 Ry

     total magnetization       =     5.41 Bohr mag/cell
     absolute magnetization    =     5.62 Bohr mag/cell

     iteration #  8     ecut=    30.00 Ry     beta= 0.50
     Davidson diagonalization with overlap
     ethr =  7.94E-07,  avg # of iterations =  3.7

     total cpu time spent up to now is      208.9 secs

     total energy              =    -111.58022213 Ry
     estimated scf accuracy    <       0.00006765 Ry

     total magnetization       =     5.41 Bohr mag/cell
     absolute magnetization    =     5.63 Bohr mag/cell

     iteration #  9     ecut=    30.00 Ry     beta= 0.50
     Davidson diagonalization with overlap
     ethr =  4.23E-07,  avg # of iterations =  1.2

     total cpu time spent up to now is      210.5 secs

     total energy              =    -111.58020045 Ry
     estimated scf accuracy    <       0.00004198 Ry

     total magnetization       =     5.41 Bohr mag/cell
     absolute magnetization    =     5.63 Bohr mag/cell

     iteration # 10     ecut=    30.00 Ry     beta= 0.50
     Davidson diagonalization with overlap
     ethr =  2.62E-07,  avg # of iterations =  3.1

     total cpu time spent up to now is      212.7 secs

     total energy              =    -111.58022066 Ry
     estimated scf accuracy    <       0.00001252 Ry

     total magnetization       =     5.42 Bohr mag/cell
     absolute magnetization    =     5.63 Bohr mag/cell

     iteration # 11     ecut=    30.00 Ry     beta= 0.50
     Davidson diagonalization with overlap
     ethr =  7.82E-08,  avg # of iterations =  1.8

     total cpu time spent up to now is      214.3 secs

     total energy              =    -111.58021674 Ry
     estimated scf accuracy    <       0.00000979 Ry

     total magnetization       =     5.42 Bohr mag/cell
     absolute magnetization    =     5.63 Bohr mag/cell

     iteration # 12     ecut=    30.00 Ry     beta= 0.50
     Davidson diagonalization with overlap
     ethr =  6.12E-08,  avg # of iterations =  2.6

     total cpu time spent up to now is      216.4 secs

     total energy              =    -111.58021994 Ry
     estimated scf accuracy    <       0.00000019 Ry

     total magnetization       =     5.42 Bohr mag/cell
     absolute magnetization    =     5.63 Bohr mag/cell

     iteration # 13     ecut=    30.00 Ry     beta= 0.50
     Davidson diagonalization with overlap
     ethr =  1.16E-09,  avg # of iterations =  8.1

     total cpu time spent up to now is      221.4 secs

     total energy              =    -111.58022052 Ry
     estimated scf accuracy    <       0.00000014 Ry

     total magnetization       =     5.42 Bohr mag/cell
     absolute magnetization    =     5.63 Bohr mag/cell

     iteration # 14     ecut=    30.00 Ry     beta= 0.50
     Davidson diagonalization with overlap
     ethr =  8.79E-10,  avg # of iterations =  2.6

     total cpu time spent up to now is      223.5 secs

     total energy              =    -111.58022057 Ry
     estimated scf accuracy    <       0.00000003 Ry

     total magnetization       =     5.42 Bohr mag/cell
     absolute magnetization    =     5.63 Bohr mag/cell

     iteration # 15     ecut=    30.00 Ry     beta= 0.50
     Davidson diagonalization with overlap
     ethr =  1.69E-10,  avg # of iterations =  2.3

     total cpu time spent up to now is      225.3 secs

     total energy              =    -111.58022058 Ry
     estimated scf accuracy    <          4.5E-09 Ry

     total magnetization       =     5.42 Bohr mag/cell
     absolute magnetization    =     5.63 Bohr mag/cell

     iteration # 16     ecut=    30.00 Ry     beta= 0.50
     Davidson diagonalization with overlap
     ethr =  2.81E-11,  avg # of iterations =  4.2

     Magnetic moment per site  (integrated on atomic sphere of radius R)
     atom   1 (R=0.412)  charge=  6.4733  magn=  2.7425
     atom   2 (R=0.412)  charge=  6.4725  magn=  2.7425

     total cpu time spent up to now is      227.8 secs

     End of self-consistent calculation

     Number of k-points >= 100: set verbosity='high' to print the bands.

     the Fermi energy is    12.5652 ev

!    total energy              =    -111.58022058 Ry
     estimated scf accuracy    <          1.1E-10 Ry
     smearing contrib. (-TS)   =      -0.00005682 Ry
     internal energy E=F+TS    =    -111.58016376 Ry

     The total energy is F=E-TS. E is the sum of the following terms:
     one-electron contribution =      12.00998311 Ry
     hartree contribution      =      13.99398020 Ry
     xc contribution           =     -52.91476598 Ry
     ewald contribution        =     -84.66936108 Ry

     total magnetization       =     5.42 Bohr mag/cell
     absolute magnetization    =     5.63 Bohr mag/cell

     convergence has been achieved in  16 iterations

     Forces acting on atoms (cartesian axes, Ry/au):

     atom    1 type  1   force =     0.00000000   -0.00000160    0.00000000
     atom    2 type  1   force =    -0.00000000    0.00000160    0.00000000
     The non-local contrib.  to forces
     atom    1 type  1   force =     0.00000000   -0.00000468    0.00000000
     atom    2 type  1   force =    -0.00000000    0.00000515    0.00000000
     The ionic contribution  to forces
     atom    1 type  1   force =    -0.00000000   -0.00000085   -0.00002652
     atom    2 type  1   force =     0.00000000    0.00000085    0.00002652
     The local contribution  to forces
     atom    1 type  1   force =     0.00000000    0.00000396    0.00000000
     atom    2 type  1   force =    -0.00000000   -0.00000421    0.00008575
     The core correction contribution to forces
     atom    1 type  1   force =    -0.00000000    0.00000037   -0.00000000
     atom    2 type  1   force =    -0.00000000   -0.00000039    0.00001383
     The Hubbard contrib.    to forces
     atom    1 type  1   force =     0.00000000    0.00000000    0.00000000
     atom    2 type  1   force =     0.00000000    0.00000000    0.00000000
     The SCF correction term to forces
     atom    1 type  1   force =    -0.00000000    0.00000016   -0.00000000
     atom    2 type  1   force =    -0.00000000    0.00000077    0.00000000

     Total force =     0.000002     Total SCF correction =     0.000001
     SCF correction compared to forces is large: reduce conv_thr to get better values


     Computing stress (Cartesian axis) and pressure

          total   stress  (Ry/bohr**3)                   (kbar)     P=       -6.78
  -0.00003748  -0.00000000   0.00000000           -5.51       -0.00        0.00
   0.00000000  -0.00003753   0.00000000            0.00       -5.52        0.00
   0.00000000   0.00000000  -0.00006318            0.00        0.00       -9.29


     init_run     :      1.22s CPU      1.42s WALL (       2 calls)
     electrons    :    226.96s CPU    217.73s WALL (       7 calls)
     update_pot   :      0.35s CPU      0.41s WALL (       5 calls)
     forces       :      1.58s CPU      2.15s WALL (       7 calls)
     stress       :      4.95s CPU      5.23s WALL (       7 calls)

     Called by init_run:
     wfcinit      :      0.69s CPU      0.79s WALL (       2 calls)
     potinit      :      0.14s CPU      0.18s WALL (       2 calls)
     hinit0       :      0.36s CPU      0.38s WALL (       2 calls)

     Called by electrons:
     c_bands      :    203.84s CPU    193.68s WALL (      97 calls)
     sum_band     :     20.87s CPU     20.63s WALL (      97 calls)
     v_of_rho     :      1.03s CPU      1.42s WALL (     104 calls)
     newd         :      0.53s CPU      0.61s WALL (     104 calls)
     mix_rho      :      0.41s CPU      0.43s WALL (      97 calls)

     Called by c_bands:
     init_us_2    :      2.73s CPU      2.60s WALL (   78120 calls)
     init_us_2:cp :      2.60s CPU      2.49s WALL (   78120 calls)
     cegterg      :    181.17s CPU    166.36s WALL (   36084 calls)

     Called by *egterg:
     cdiaghg      :     39.35s CPU     36.28s WALL (  135389 calls)
     h_psi        :    115.61s CPU    106.13s WALL (  137993 calls)
     s_psi        :      3.60s CPU      3.28s WALL (  137993 calls)
     g_psi        :      0.46s CPU      0.44s WALL (  101165 calls)

     Called by h_psi:
     h_psi:calbec :      9.20s CPU      8.50s WALL (  137993 calls)
     vloc_psi     :    102.67s CPU     94.07s WALL (  137993 calls)
     add_vuspsi   :      2.75s CPU      2.52s WALL (  137993 calls)

     General routines
     calbec       :     12.29s CPU     11.58s WALL (  187097 calls)
     fft          :      0.71s CPU      0.69s WALL (    2871 calls)
     ffts         :      0.38s CPU      0.39s WALL (     402 calls)
     fftw         :    105.53s CPU     97.22s WALL ( 2930672 calls)
     interpolate  :      0.18s CPU      0.17s WALL (     208 calls)

     Parallel routines

     PWSCF        :   3m55.59s CPU   3m48.90s WALL


   This run was terminated on:  18: 9:44   1Nov2023            

=------------------------------------------------------------------------------=
   JOB DONE.
=------------------------------------------------------------------------------=
