
     Program PWSCF v.7.2 starts on 14Oct2023 at 15:42:24 

     This program is part of the open-source Quantum ESPRESSO suite
     for quantum simulation of materials; please cite
         "P. Giannozzi et al., J. Phys.:Condens. Matter 21 395502 (2009);
         "P. Giannozzi et al., J. Phys.:Condens. Matter 29 465901 (2017);
         "P. Giannozzi et al., J. Chem. Phys. 152 154105 (2020);
          URL http://www.quantum-espresso.org", 
     in publications or presentations arising from this work. More details at
     http://www.quantum-espresso.org/quote

     Parallel version (MPI), running on     1 processors

     MPI processes distributed on     1 nodes
     43280 MiB available memory on the printing compute node when the environment starts

     Waiting for input...
     Reading input from standard input
Warning: card &CELL ignored
Warning: card / ignored

     Current dimensions of program PWSCF are:
     Max number of different atomic species (ntypx) = 10
     Max number of k-points (npk) =  40000
     Max angular momentum in pseudopotentials (lmaxx) =  4
     file Ge.pz-dn-rrkjus_psl.0.2.2.UPF: wavefunction(s)  3D renormalized
     Message from routine find_sym:
     Not a group! Trying with lower acceptance parameter...
     Message from routine find_sym:
     Still not a group! symmetry disabled

     Subspace diagonalization in iterative solution of the eigenvalue problem:
     a serial algorithm will be used


     G-vector sticks info
     --------------------
     sticks:   dense  smooth     PW     G-vecs:    dense   smooth      PW
     Sum         475     475    151                 6855     6855    1243

     Using Slab Decomposition



     bravais-lattice index     =            0
     lattice parameter (alat)  =       7.5660  a.u.
     unit-cell volume          =     306.2604 (a.u.)^3
     number of atoms/cell      =            2
     number of atomic types    =            1
     number of electrons       =        28.00
     number of Kohn-Sham states=           14
     kinetic-energy cutoff     =      30.0000  Ry
     charge density cutoff     =     120.0000  Ry
     scf convergence threshold =      1.0E-07
     mixing beta               =       0.5000
     number of iterations used =            8  plain     mixing
     Exchange-correlation= LDA
                           (   1   1   0   0   0   0   0)

     celldm(1)=   7.566040  celldm(2)=   0.000000  celldm(3)=   0.000000
     celldm(4)=   0.000000  celldm(5)=   0.000000  celldm(6)=   0.000000

     crystal axes: (cart. coord. in units of alat)
               a(1) = (   0.000000   0.707107   0.707107 )  
               a(2) = (   0.707107   0.000000   0.707107 )  
               a(3) = (   0.707107   0.707107   0.000000 )  

     reciprocal axes: (cart. coord. in units 2 pi/alat)
               b(1) = ( -0.707107  0.707107  0.707107 )  
               b(2) = (  0.707107 -0.707107  0.707107 )  
               b(3) = (  0.707107  0.707107 -0.707107 )  


     PseudoPot. # 1 for Ge read from file:
     ../Ge.pz-dn-rrkjus_psl.0.2.2.UPF
     MD5 check sum: 9948ad5293734715c8cf6021b6c26e6d
     Pseudo is Ultrasoft + core correction, Zval = 14.0
     Generated using "atomic" code by A. Dal Corso  v.5.0.2 svn rev. 9415
     Using radial grid of 1207 points,  6 beta functions with: 
                l(1) =   0
                l(2) =   0
                l(3) =   1
                l(4) =   1
                l(5) =   2
                l(6) =   2
     Q(r) pseudized with 0 coefficients 


     atomic species   valence    mass     pseudopotential
        Ge            14.00    72.63000     Ge( 1.00)

     No symmetry found



   Cartesian axes

     site n.     atom                  positions (alat units)
         1           Ge  tau(   1) = (   0.0000000   0.0000000   0.0000000  )
         2           Ge  tau(   2) = (   0.3535538   0.3535538   0.3535538  )

     number of k points=    36
                       cart. coord. in units 2pi/alat
        k(    1) = (   0.0000000   0.0000000   0.0000000), wk =   0.0312500
        k(    2) = (   0.1767767   0.1767767  -0.1767767), wk =   0.0625000
        k(    3) = (  -0.3535534  -0.3535534   0.3535534), wk =   0.0312500
        k(    4) = (   0.3535534   0.0000000   0.0000000), wk =   0.0625000
        k(    5) = (  -0.1767767  -0.5303301   0.5303301), wk =   0.0625000
        k(    6) = (   0.0000000  -0.3535534   0.3535534), wk =   0.0625000
        k(    7) = (  -0.7071068   0.0000000   0.0000000), wk =   0.0312500
        k(    8) = (  -0.7071068   0.3535534   0.0000000), wk =   0.0625000
        k(    9) = (  -0.1767767  -0.1767767  -0.1767767), wk =   0.0625000
        k(   10) = (  -0.1767767   0.1767767   0.1767767), wk =   0.0625000
        k(   11) = (   0.1767767  -0.1767767   0.1767767), wk =   0.0625000
        k(   12) = (   0.3535534   0.3535534   0.3535534), wk =   0.0312500
        k(   13) = (   0.3535534  -0.3535534  -0.3535534), wk =   0.0312500
        k(   14) = (  -0.3535534   0.3535534  -0.3535534), wk =   0.0312500
        k(   15) = (   0.0000000  -0.3535534   0.0000000), wk =   0.0625000
        k(   16) = (   0.0000000   0.0000000  -0.3535534), wk =   0.0625000
        k(   17) = (   0.1767767   0.5303301   0.5303301), wk =   0.0625000
        k(   18) = (   0.1767767  -0.5303301  -0.5303301), wk =   0.0625000
        k(   19) = (  -0.1767767   0.5303301  -0.5303301), wk =   0.0625000
        k(   20) = (   0.5303301   0.1767767  -0.5303301), wk =   0.0625000
        k(   21) = (  -0.5303301   0.5303301   0.1767767), wk =   0.0625000
        k(   22) = (  -0.5303301   0.5303301  -0.1767767), wk =   0.0625000
        k(   23) = (   0.5303301   0.5303301   0.1767767), wk =   0.0625000
        k(   24) = (  -0.5303301  -0.5303301   0.1767767), wk =   0.0625000
        k(   25) = (   0.5303301  -0.1767767  -0.5303301), wk =   0.0625000
        k(   26) = (   0.5303301   0.1767767   0.5303301), wk =   0.0625000
        k(   27) = (  -0.5303301   0.1767767  -0.5303301), wk =   0.0625000
        k(   28) = (   0.0000000   0.3535534   0.3535534), wk =   0.0625000
        k(   29) = (   0.3535534   0.0000000  -0.3535534), wk =   0.0625000
        k(   30) = (  -0.3535534   0.3535534   0.0000000), wk =   0.0625000
        k(   31) = (   0.3535534   0.3535534   0.0000000), wk =   0.0625000
        k(   32) = (   0.3535534   0.0000000   0.3535534), wk =   0.0625000
        k(   33) = (   0.0000000   0.7071068   0.0000000), wk =   0.0312500
        k(   34) = (   0.0000000   0.0000000   0.7071068), wk =   0.0312500
        k(   35) = (  -0.3535534   0.7071068   0.0000000), wk =   0.0625000
        k(   36) = (   0.7071068   0.0000000  -0.3535534), wk =   0.0625000

     Dense  grid:     6855 G-vectors     FFT dimensions: (  32,  32,  32)

     Estimated max dynamical RAM per process >      34.19 MB

     Check: negative core charge=   -0.000248

     Initial potential from superposition of free atoms

     starting charge      27.9988, renormalised to      28.0000
     Starting wfcs are   18 randomized atomic wfcs

     total cpu time spent up to now is        1.5 secs

     Self-consistent Calculation

     iteration #  1     ecut=    30.00 Ry     beta= 0.50
     Davidson diagonalization with overlap
     ethr =  1.00E-02,  avg # of iterations =  1.9

     Threshold (ethr) on eigenvalues was too large:
     Diagonalizing with lowered threshold

     Davidson diagonalization with overlap
     ethr =  1.28E-04,  avg # of iterations =  2.1

     total cpu time spent up to now is        4.5 secs

     total energy              =    -421.74175663 Ry
     estimated scf accuracy    <       0.04034548 Ry

     iteration #  2     ecut=    30.00 Ry     beta= 0.50
     Davidson diagonalization with overlap
     ethr =  1.44E-04,  avg # of iterations =  1.1

     total cpu time spent up to now is        5.9 secs

     total energy              =    -421.74055091 Ry
     estimated scf accuracy    <       0.00707036 Ry

     iteration #  3     ecut=    30.00 Ry     beta= 0.50
     Davidson diagonalization with overlap
     ethr =  2.53E-05,  avg # of iterations =  2.0

     total cpu time spent up to now is        7.6 secs

     total energy              =    -421.74114941 Ry
     estimated scf accuracy    <       0.00008008 Ry

     iteration #  4     ecut=    30.00 Ry     beta= 0.50
     Davidson diagonalization with overlap
     ethr =  2.86E-07,  avg # of iterations =  3.8

     total cpu time spent up to now is        9.7 secs

     total energy              =    -421.74120550 Ry
     estimated scf accuracy    <       0.00013455 Ry

     iteration #  5     ecut=    30.00 Ry     beta= 0.50
     Davidson diagonalization with overlap
     ethr =  2.86E-07,  avg # of iterations =  1.0

     total cpu time spent up to now is       11.1 secs

     total energy              =    -421.74115361 Ry
     estimated scf accuracy    <       0.00009002 Ry

     iteration #  6     ecut=    30.00 Ry     beta= 0.50
     Davidson diagonalization with overlap
     ethr =  2.86E-07,  avg # of iterations =  2.2

     total cpu time spent up to now is       12.7 secs

     total energy              =    -421.74116853 Ry
     estimated scf accuracy    <       0.00000265 Ry

     iteration #  7     ecut=    30.00 Ry     beta= 0.50
     Davidson diagonalization with overlap
     ethr =  9.45E-09,  avg # of iterations =  3.5

     total cpu time spent up to now is       14.8 secs

     total energy              =    -421.74123145 Ry
     estimated scf accuracy    <       0.00014042 Ry

     iteration #  8     ecut=    30.00 Ry     beta= 0.50
     Davidson diagonalization with overlap
     ethr =  9.45E-09,  avg # of iterations =  1.0

     total cpu time spent up to now is       16.2 secs

     total energy              =    -421.74119797 Ry
     estimated scf accuracy    <       0.00013621 Ry

     iteration #  9     ecut=    30.00 Ry     beta= 0.50
     Davidson diagonalization with overlap
     ethr =  9.45E-09,  avg # of iterations =  3.2

     total cpu time spent up to now is       18.3 secs

     total energy              =    -421.74118911 Ry
     estimated scf accuracy    <       0.00006807 Ry

     iteration # 10     ecut=    30.00 Ry     beta= 0.50
     Davidson diagonalization with overlap
     ethr =  9.45E-09,  avg # of iterations =  2.2

     total cpu time spent up to now is       20.0 secs

     total energy              =    -421.74115982 Ry
     estimated scf accuracy    <       0.00004479 Ry

     iteration # 11     ecut=    30.00 Ry     beta= 0.50
     Davidson diagonalization with overlap
     ethr =  9.45E-09,  avg # of iterations =  5.4

     total cpu time spent up to now is       22.5 secs

     total energy              =    -421.74116475 Ry
     estimated scf accuracy    <       0.00002184 Ry

     iteration # 12     ecut=    30.00 Ry     beta= 0.50
     Davidson diagonalization with overlap
     ethr =  9.45E-09,  avg # of iterations =  4.6

     total cpu time spent up to now is       24.8 secs

     total energy              =    -421.74116880 Ry
     estimated scf accuracy    <       0.00000513 Ry

     iteration # 13     ecut=    30.00 Ry     beta= 0.50
     Davidson diagonalization with overlap
     ethr =  9.45E-09,  avg # of iterations =  2.9

     total cpu time spent up to now is       26.5 secs

     End of self-consistent calculation

          k = 0.0000 0.0000 0.0000 (   869 PWs)   bands (ev):

   -16.7643 -16.7626 -16.7573 -16.7401 -16.7377 -16.5410 -16.5398 -16.5351
   -16.5171 -16.5146  -4.6141   7.9865   8.1934   8.2056

          k = 0.1768 0.1768-0.1768 (   854 PWs)   bands (ev):

   -16.7856 -16.7801 -16.7582 -16.7028 -16.7002 -16.5508 -16.5500 -16.5425
   -16.4964 -16.4928  -3.8741   3.4042   7.3055   7.3205

          k =-0.3536-0.3536 0.3536 (   862 PWs)   bands (ev):

   -16.7882 -16.7818 -16.7572 -16.6977 -16.6942 -16.5637 -16.5608 -16.5479
   -16.4949 -16.4890  -2.5292   0.5348   6.7849   6.7999

          k = 0.3536 0.0000 0.0000 (   849 PWs)   bands (ev):

   -16.7812 -16.7772 -16.7743 -16.6962 -16.6656 -16.6159 -16.5449 -16.5013
   -16.5009 -16.4950  -3.6078   3.3985   6.1448   6.1611

          k =-0.1768-0.5303 0.5303 (   845 PWs)   bands (ev):

   -16.8102 -16.7829 -16.7313 -16.6626 -16.6473 -16.6282 -16.5767 -16.5427
   -16.4747 -16.4675  -2.1220   0.7463   4.4376   5.7978

          k = 0.0000-0.3536 0.3536 (   847 PWs)   bands (ev):

   -16.8026 -16.7930 -16.7210 -16.6869 -16.6608 -16.5902 -16.5729 -16.5568
   -16.4766 -16.4738  -2.7336   1.5932   4.3035   6.6976

          k =-0.7071 0.0000 0.0000 (   846 PWs)   bands (ev):

   -16.7946 -16.7878 -16.7223 -16.7157 -16.6209 -16.6207 -16.5638 -16.5568
   -16.4714 -16.4654  -0.7563  -0.7341   5.1107   5.1250

          k =-0.7071 0.3536 0.0000 (   848 PWs)   bands (ev):

   -16.8109 -16.8049 -16.6763 -16.6745 -16.6241 -16.6235 -16.5961 -16.5936
   -16.4622 -16.4566  -0.6564  -0.6398   4.2637   4.2760

          k =-0.1768-0.1768-0.1768 (   854 PWs)   bands (ev):

   -16.7863 -16.7826 -16.7533 -16.7035 -16.7020 -16.5524 -16.5502 -16.5387
   -16.4971 -16.4934  -3.8754   3.4174   7.2985   7.3161

          k =-0.1768 0.1768 0.1768 (   854 PWs)   bands (ev):

   -16.7863 -16.7826 -16.7533 -16.7035 -16.7020 -16.5524 -16.5502 -16.5387
   -16.4971 -16.4934  -3.8754   3.4173   7.2985   7.3161

          k = 0.1768-0.1768 0.1768 (   854 PWs)   bands (ev):

   -16.7858 -16.7800 -16.7580 -16.7028 -16.7002 -16.5508 -16.5501 -16.5423
   -16.4965 -16.4928  -3.8741   3.4047   7.3049   7.3206

          k = 0.3536 0.3536 0.3536 (   862 PWs)   bands (ev):

   -16.7885 -16.7842 -16.7523 -16.6982 -16.6971 -16.5638 -16.5625 -16.5440
   -16.4945 -16.4902  -2.5375   0.5544   6.7791   6.7967

          k = 0.3536-0.3536-0.3536 (   862 PWs)   bands (ev):

   -16.7885 -16.7842 -16.7523 -16.6982 -16.6971 -16.5638 -16.5625 -16.5440
   -16.4945 -16.4902  -2.5375   0.5543   6.7791   6.7968

          k =-0.3536 0.3536-0.3536 (   862 PWs)   bands (ev):

   -16.7884 -16.7818 -16.7570 -16.6978 -16.6942 -16.5637 -16.5609 -16.5477
   -16.4951 -16.4889  -2.5296   0.5356   6.7844   6.8000

          k = 0.0000-0.3536 0.0000 (   849 PWs)   bands (ev):

   -16.7805 -16.7792 -16.7743 -16.6944 -16.6661 -16.6156 -16.5431 -16.5029
   -16.4993 -16.4972  -3.6078   3.3980   6.1536   6.1541

          k = 0.0000 0.0000-0.3536 (   849 PWs)   bands (ev):

   -16.7805 -16.7792 -16.7743 -16.6944 -16.6661 -16.6156 -16.5430 -16.5029
   -16.4993 -16.4972  -3.6078   3.3980   6.1536   6.1541

          k = 0.1768 0.5303 0.5303 (   845 PWs)   bands (ev):

   -16.8041 -16.7895 -16.7336 -16.6630 -16.6459 -16.6230 -16.5769 -16.5462
   -16.4804 -16.4618  -2.1272   0.7575   4.4487   5.7817

          k = 0.1768-0.5303-0.5303 (   845 PWs)   bands (ev):

   -16.8041 -16.7895 -16.7336 -16.6630 -16.6459 -16.6230 -16.5769 -16.5462
   -16.4804 -16.4618  -2.1272   0.7574   4.4487   5.7817

          k =-0.1768 0.5303-0.5303 (   845 PWs)   bands (ev):

   -16.8102 -16.7829 -16.7312 -16.6626 -16.6474 -16.6283 -16.5767 -16.5426
   -16.4747 -16.4676  -2.1222   0.7469   4.4372   5.7979

          k = 0.5303 0.1768-0.5303 (   845 PWs)   bands (ev):

   -16.8069 -16.7870 -16.7337 -16.6608 -16.6462 -16.6254 -16.5748 -16.5465
   -16.4790 -16.4640  -2.1217   0.7441   4.4482   5.7903

          k =-0.5303 0.5303 0.1768 (   845 PWs)   bands (ev):

   -16.8082 -16.7868 -16.7304 -16.6616 -16.6482 -16.6268 -16.5752 -16.5435
   -16.4780 -16.4654  -2.1275   0.7593   4.4382   5.7910

          k =-0.5303 0.5303-0.1768 (   845 PWs)   bands (ev):

   -16.8068 -16.7872 -16.7337 -16.6607 -16.6462 -16.6253 -16.5747 -16.5465
   -16.4791 -16.4639  -2.1220   0.7447   4.4483   5.7900

          k = 0.5303 0.5303 0.1768 (   845 PWs)   bands (ev):

   -16.8084 -16.7867 -16.7303 -16.6616 -16.6483 -16.6270 -16.5752 -16.5434
   -16.4779 -16.4655  -2.1275   0.7594   4.4377   5.7914

          k =-0.5303-0.5303 0.1768 (   845 PWs)   bands (ev):

   -16.8069 -16.7871 -16.7337 -16.6607 -16.6462 -16.6254 -16.5747 -16.5465
   -16.4790 -16.4640  -2.1217   0.7441   4.4483   5.7903

          k = 0.5303-0.1768-0.5303 (   845 PWs)   bands (ev):

   -16.8084 -16.7866 -16.7303 -16.6617 -16.6483 -16.6270 -16.5753 -16.5434
   -16.4779 -16.4655  -2.1275   0.7594   4.4377   5.7914

          k = 0.5303 0.1768 0.5303 (   845 PWs)   bands (ev):

   -16.8082 -16.7868 -16.7304 -16.6617 -16.6482 -16.6268 -16.5753 -16.5435
   -16.4780 -16.4653  -2.1275   0.7594   4.4382   5.7910

          k =-0.5303 0.1768-0.5303 (   845 PWs)   bands (ev):

   -16.8068 -16.7872 -16.7337 -16.6608 -16.6462 -16.6253 -16.5748 -16.5465
   -16.4791 -16.4639  -2.1220   0.7447   4.4483   5.7899

          k = 0.0000 0.3536 0.3536 (   847 PWs)   bands (ev):

   -16.7990 -16.7979 -16.7184 -16.6877 -16.6617 -16.5913 -16.5715 -16.5568
   -16.4813 -16.4689  -2.7395   1.6150   4.3053   6.6778

          k = 0.3536 0.0000-0.3536 (   847 PWs)   bands (ev):

   -16.8010 -16.7953 -16.7192 -16.6893 -16.6598 -16.5895 -16.5714 -16.5591
   -16.4797 -16.4703  -2.7365   1.6038   4.3041   6.6888

          k =-0.3536 0.3536 0.0000 (   847 PWs)   bands (ev):

   -16.8010 -16.7953 -16.7191 -16.6894 -16.6597 -16.5894 -16.5714 -16.5591
   -16.4799 -16.4701  -2.7366   1.6043   4.3041   6.6884

          k = 0.3536 0.3536 0.0000 (   847 PWs)   bands (ev):

   -16.8010 -16.7953 -16.7192 -16.6894 -16.6597 -16.5894 -16.5714 -16.5591
   -16.4797 -16.4702  -2.7365   1.6038   4.3041   6.6888

          k = 0.3536 0.0000 0.3536 (   847 PWs)   bands (ev):

   -16.8010 -16.7953 -16.7191 -16.6894 -16.6598 -16.5895 -16.5714 -16.5591
   -16.4799 -16.4701  -2.7366   1.6043   4.3041   6.6883

          k = 0.0000 0.7071 0.0000 (   846 PWs)   bands (ev):

   -16.7923 -16.7921 -16.7188 -16.7186 -16.6190 -16.6189 -16.5608 -16.5606
   -16.4692 -16.4691  -0.7456  -0.7451   5.1185   5.1188

          k = 0.0000 0.0000 0.7071 (   846 PWs)   bands (ev):

   -16.7923 -16.7921 -16.7187 -16.7186 -16.6189 -16.6189 -16.5608 -16.5606
   -16.4693 -16.4691  -0.7456  -0.7451   5.1186   5.1189

          k =-0.3536 0.7071 0.0000 (   848 PWs)   bands (ev):

   -16.8084 -16.8083 -16.6741 -16.6740 -16.6257 -16.6257 -16.5934 -16.5934
   -16.4600 -16.4598  -0.6484  -0.6480   4.2699   4.2703

          k = 0.7071 0.0000-0.3536 (   848 PWs)   bands (ev):

   -16.8109 -16.8048 -16.6763 -16.6745 -16.6241 -16.6235 -16.5961 -16.5936
   -16.4622 -16.4566  -0.6564  -0.6398   4.2637   4.2760

     highest occupied level (ev):     8.2056

!    total energy              =    -421.74116962 Ry
     estimated scf accuracy    <       0.00000001 Ry

     The total energy is the sum of the following terms:
     one-electron contribution =    -275.42575694 Ry
     hartree contribution      =     162.69902056 Ry
     xc contribution           =    -111.66623930 Ry
     ewald contribution        =    -197.34819394 Ry

     convergence has been achieved in  13 iterations

     Forces acting on atoms (cartesian axes, Ry/au):

     atom    1 type  1   force =     0.00589661    0.00013270   -0.00012458
     atom    2 type  1   force =    -0.00589661   -0.00013270    0.00012458
     The non-local contrib.  to forces
     atom    1 type  1   force =    -0.01323473   -0.00029129    0.00026286
     atom    2 type  1   force =     0.01323909    0.00028828   -0.00025167
     The ionic contribution  to forces
     atom    1 type  1   force =     0.00001545    0.00001545    0.00001545
     atom    2 type  1   force =    -0.00001545   -0.00001545   -0.00001545
     The local contribution  to forces
     atom    1 type  1   force =     0.01848531    0.00038322   -0.00038793
     atom    2 type  1   force =    -0.01848977   -0.00038065    0.00037792
     The core correction contribution to forces
     atom    1 type  1   force =     0.00039194    0.00000855   -0.00000798
     atom    2 type  1   force =    -0.00039209   -0.00000843    0.00000753
     The Hubbard contrib.    to forces
     atom    1 type  1   force =     0.00000000    0.00000000    0.00000000
     atom    2 type  1   force =     0.00000000    0.00000000    0.00000000
     The SCF correction term to forces
     atom    1 type  1   force =     0.00023904    0.00001800   -0.00000815
     atom    2 type  1   force =    -0.00023799   -0.00001522    0.00000510

     Total force =     0.008343     Total SCF correction =     0.000338


     Computing stress (Cartesian axis) and pressure

          total   stress  (Ry/bohr**3)                   (kbar)     P=     -169.03
  -0.00112996  -0.00000011   0.00000013         -166.22       -0.02        0.02
  -0.00000011  -0.00115793   0.00000593           -0.02     -170.34        0.87
   0.00000013   0.00000593  -0.00115916            0.02        0.87     -170.52


     init_run     :      1.67s CPU      1.33s WALL (       1 calls)
     electrons    :     36.16s CPU     24.98s WALL (       1 calls)
     forces       :      0.23s CPU      0.16s WALL (       1 calls)
     stress       :      2.97s CPU      2.06s WALL (       1 calls)

     Called by init_run:
     wfcinit      :      1.24s CPU      0.87s WALL (       1 calls)
     potinit      :      0.00s CPU      0.01s WALL (       1 calls)
     hinit0       :      0.40s CPU      0.41s WALL (       1 calls)

     Called by electrons:
     c_bands      :     30.06s CPU     20.69s WALL (      14 calls)
     sum_band     :      5.44s CPU      3.83s WALL (      14 calls)
     v_of_rho     :      0.09s CPU      0.07s WALL (      14 calls)
     newd         :      0.49s CPU      0.36s WALL (      14 calls)
     mix_rho      :      0.06s CPU      0.04s WALL (      14 calls)

     Called by c_bands:
     init_us_2    :      1.18s CPU      0.83s WALL (    1116 calls)
     init_us_2:cp :      1.17s CPU      0.82s WALL (    1116 calls)
     cegterg      :     27.17s CPU     18.52s WALL (     504 calls)

     Called by *egterg:
     cdiaghg      :      1.74s CPU      1.17s WALL (    1789 calls)
     h_psi        :     23.47s CPU     16.11s WALL (    1861 calls)
     s_psi        :      0.50s CPU      0.34s WALL (    1861 calls)
     g_psi        :      0.22s CPU      0.14s WALL (    1321 calls)

     Called by h_psi:
     h_psi:calbec :      0.56s CPU      0.38s WALL (    1861 calls)
     vloc_psi     :     22.22s CPU     15.26s WALL (    1861 calls)
     add_vuspsi   :      0.53s CPU      0.36s WALL (    1861 calls)

     General routines
     calbec       :      0.77s CPU      0.53s WALL (    2545 calls)
     fft          :      0.19s CPU      0.18s WALL (      65 calls)
     ffts         :      0.01s CPU      0.01s WALL (      14 calls)
     fftw         :     20.74s CPU     14.31s WALL (   45186 calls)

     Parallel routines

     PWSCF        :     41.17s CPU     28.68s WALL


   This run was terminated on:  15:42:52  14Oct2023            

=------------------------------------------------------------------------------=
   JOB DONE.
=------------------------------------------------------------------------------=
