Header of the LAMMPS data file 

4 atoms 
1 atom types

0.0 3.8606060606060604  xlo xhi
0.0 3.8606060606060604  ylo yhi
0.0 3.8606060606060604  zlo zhi

Masses 

1  107.8682

Atoms # atomic 

1 1 0.00000 0.00000 0.00000 
2 1 0.00000 1.93030 1.93030 
3 1 1.93030 0.00000 1.93030 
4 1 1.93030 1.93030 0.00000 
