
     Program PWSCF v.7.2 starts on  2Nov2023 at 18:10:17 

     This program is part of the open-source Quantum ESPRESSO suite
     for quantum simulation of materials; please cite
         "P. Giannozzi et al., J. Phys.:Condens. Matter 21 395502 (2009);
         "P. Giannozzi et al., J. Phys.:Condens. Matter 29 465901 (2017);
         "P. Giannozzi et al., J. Chem. Phys. 152 154105 (2020);
          URL http://www.quantum-espresso.org", 
     in publications or presentations arising from this work. More details at
     http://www.quantum-espresso.org/quote

     Parallel version (MPI), running on     2 processors

     MPI processes distributed on     2 nodes
     187038 MiB available memory on the printing compute node when the environment starts

     Waiting for input...
     Reading input from standard input
Warning: card &CELL ignored
Warning: card / ignored

     Current dimensions of program PWSCF are:
     Max number of different atomic species (ntypx) = 10
     Max number of k-points (npk) =  40000
     Max angular momentum in pseudopotentials (lmaxx) =  4
     file O.pz-rrkjus.UPF: wavefunction(s)  2S renormalized
     Message from routine setup:
     using ibrav=0 with symmetry is DISCOURAGED, use correct ibrav instead

     R & G space division:  proc/nbgrp/npool/nimage =       2
     Subspace diagonalization in iterative solution of the eigenvalue problem:
     a serial algorithm will be used


     Parallelization info
     --------------------
     sticks:   dense  smooth     PW     G-vecs:    dense   smooth      PW
     Min         516     254     74                12418     4366     709
     Max         517     255     75                12419     4367     710
     Sum        1033     509    149                24837     8733    1419

     Using Slab Decomposition



     bravais-lattice index     =            0
     lattice parameter (alat)  =       7.3321  a.u.
     unit-cell volume          =     394.1775 (a.u.)^3
     number of atoms/cell      =            5
     number of atomic types    =            3
     number of electrons       =        44.00
     number of Kohn-Sham states=           22
     kinetic-energy cutoff     =      30.0000  Ry
     charge density cutoff     =     240.0000  Ry
     scf convergence threshold =      1.0E-07
     mixing beta               =       0.7000
     number of iterations used =            8  plain     mixing
     energy convergence thresh.=      1.0E-04
     force convergence thresh. =      1.0E-03
     Exchange-correlation= SLA  PZ   NOGX NOGC
                           (   1   1   0   0   0   0   0)
     nstep                     =           50


     celldm(1)=   7.332137  celldm(2)=   0.000000  celldm(3)=   0.000000
     celldm(4)=   0.000000  celldm(5)=   0.000000  celldm(6)=   0.000000

     crystal axes: (cart. coord. in units of alat)
               a(1) = (   1.000000   0.000000   0.000000 )  
               a(2) = (   0.000000   1.000000   0.000000 )  
               a(3) = (   0.000000   0.000000   1.000000 )  

     reciprocal axes: (cart. coord. in units 2 pi/alat)
               b(1) = (  1.000000  0.000000  0.000000 )  
               b(2) = (  0.000000  1.000000  0.000000 )  
               b(3) = (  0.000000  0.000000  1.000000 )  


     PseudoPot. # 1 for O  read from file:
     /home/gridsan/epan1/labutil/lab3_samples/pseudopotentials/O.pz-rrkjus.UPF
     MD5 check sum: 24fb942a68ef5d262e498166c462ef4a
     Pseudo is Ultrasoft, Zval =  6.0
     Generated by new atomic code, or converted to UPF format
     Using radial grid of 1269 points,  4 beta functions with: 
                l(1) =   0
                l(2) =   0
                l(3) =   1
                l(4) =   1
     Q(r) pseudized with 0 coefficients 


     PseudoPot. # 2 for Pb read from file:
     /home/gridsan/epan1/labutil/lab3_samples/pseudopotentials/Pb.pz-d-van.UPF
     MD5 check sum: 4e1e5920686a026ae26139ac417581ff
     Pseudo is Ultrasoft, Zval = 14.0
     Generated by new atomic code, or converted to UPF format
     Using radial grid of  899 points,  6 beta functions with: 
                l(1) =   0
                l(2) =   0
                l(3) =   1
                l(4) =   1
                l(5) =   2
                l(6) =   2
     Q(r) pseudized with  8 coefficients,  rinner =    1.000   1.000   1.000
                                                       1.000   1.000

     PseudoPot. # 3 for Ti read from file:
     /home/gridsan/epan1/labutil/lab3_samples/pseudopotentials/Ti.pz-sp-van_ak.UPF
     MD5 check sum: 545d0e6e05332b8871a8093f427cb0ca
     Pseudo is Ultrasoft, Zval = 12.0
     Generated by new atomic code, or converted to UPF format
     Using radial grid of  851 points,  6 beta functions with: 
                l(1) =   0
                l(2) =   0
                l(3) =   1
                l(4) =   1
                l(5) =   2
                l(6) =   2
     Q(r) pseudized with  8 coefficients,  rinner =    1.000   1.000   1.000
                                                       1.000   1.000

     atomic species   valence    mass     pseudopotential
        O              6.00    15.99900     O ( 1.00)
        Pb            14.00   207.20000     Pb( 1.00)
        Ti            12.00    47.86700     Ti( 1.00)

      8 Sym. Ops. (no inversion) found



   Cartesian axes

     site n.     atom                  positions (alat units)
         1           Pb  tau(   1) = (   0.0000000   0.0000000   0.0000000  )
         2           Ti  tau(   2) = (   0.5000000   0.5000000   0.5578943  )
         3           O   tau(   3) = (   0.0000000   0.5000000   0.5000000  )
         4           O   tau(   4) = (   0.5000000   0.0000000   0.5000000  )
         5           O   tau(   5) = (   0.5000000   0.5000000   0.0000000  )

     number of k points=     6
                       cart. coord. in units 2pi/alat
        k(    1) = (   0.1250000   0.1250000   0.1250000), wk =   0.2500000
        k(    2) = (   0.1250000   0.1250000   0.3750000), wk =   0.2500000
        k(    3) = (   0.1250000   0.3750000   0.3750000), wk =   0.5000000
        k(    4) = (   0.3750000   0.3750000   0.3750000), wk =   0.2500000
        k(    5) = (   0.3750000  -0.1250000   0.1250000), wk =   0.5000000
        k(    6) = (   0.3750000  -0.3750000   0.1250000), wk =   0.2500000

     Dense  grid:    24837 G-vectors     FFT dimensions: (  40,  40,  40)

     Smooth grid:     8733 G-vectors     FFT dimensions: (  25,  25,  25)

     Estimated max dynamical RAM per process >      51.66 MB

     Estimated total dynamical RAM >     103.32 MB

     Initial potential from superposition of free atoms

     starting charge      42.9982, renormalised to      44.0000
     Starting wfcs are   31 randomized atomic wfcs

     total cpu time spent up to now is        1.0 secs

     Self-consistent Calculation

     iteration #  1     ecut=    30.00 Ry     beta= 0.70
     Davidson diagonalization with overlap
     ethr =  1.00E-02,  avg # of iterations =  2.0

     total cpu time spent up to now is        1.3 secs

     total energy              =    -332.62899361 Ry
     estimated scf accuracy    <       1.07414210 Ry

     iteration #  2     ecut=    30.00 Ry     beta= 0.70
     Davidson diagonalization with overlap
     ethr =  2.44E-03,  avg # of iterations =  6.2

     total cpu time spent up to now is        1.7 secs

     total energy              =    -332.48839701 Ry
     estimated scf accuracy    <       3.36488776 Ry

     iteration #  3     ecut=    30.00 Ry     beta= 0.70
     Davidson diagonalization with overlap
     ethr =  2.44E-03,  avg # of iterations =  4.8

     total cpu time spent up to now is        2.0 secs

     total energy              =    -333.14581499 Ry
     estimated scf accuracy    <       0.20033060 Ry

     iteration #  4     ecut=    30.00 Ry     beta= 0.70
     Davidson diagonalization with overlap
     ethr =  4.55E-04,  avg # of iterations =  2.7

     total cpu time spent up to now is        2.3 secs

     total energy              =    -333.14529033 Ry
     estimated scf accuracy    <       0.04906815 Ry

     iteration #  5     ecut=    30.00 Ry     beta= 0.70
     Davidson diagonalization with overlap
     ethr =  1.12E-04,  avg # of iterations =  4.8

     total cpu time spent up to now is        2.7 secs

     total energy              =    -333.16791097 Ry
     estimated scf accuracy    <       0.02915012 Ry

     iteration #  6     ecut=    30.00 Ry     beta= 0.70
     Davidson diagonalization with overlap
     ethr =  6.63E-05,  avg # of iterations =  2.7

     total cpu time spent up to now is        2.9 secs

     total energy              =    -333.16688910 Ry
     estimated scf accuracy    <       0.00826869 Ry

     iteration #  7     ecut=    30.00 Ry     beta= 0.70
     Davidson diagonalization with overlap
     ethr =  1.88E-05,  avg # of iterations =  4.2

     total cpu time spent up to now is        3.3 secs

     total energy              =    -333.17059608 Ry
     estimated scf accuracy    <       0.00197196 Ry

     iteration #  8     ecut=    30.00 Ry     beta= 0.70
     Davidson diagonalization with overlap
     ethr =  4.48E-06,  avg # of iterations =  1.0

     total cpu time spent up to now is        3.5 secs

     total energy              =    -333.17041509 Ry
     estimated scf accuracy    <       0.00118478 Ry

     iteration #  9     ecut=    30.00 Ry     beta= 0.70
     Davidson diagonalization with overlap
     ethr =  2.69E-06,  avg # of iterations =  2.3

     total cpu time spent up to now is        3.8 secs

     total energy              =    -333.17042931 Ry
     estimated scf accuracy    <       0.00031213 Ry

     iteration # 10     ecut=    30.00 Ry     beta= 0.70
     Davidson diagonalization with overlap
     ethr =  7.09E-07,  avg # of iterations =  4.0

     total cpu time spent up to now is        4.1 secs

     total energy              =    -333.17048798 Ry
     estimated scf accuracy    <       0.00001220 Ry

     iteration # 11     ecut=    30.00 Ry     beta= 0.70
     Davidson diagonalization with overlap
     ethr =  2.77E-08,  avg # of iterations =  4.8

     total cpu time spent up to now is        4.4 secs

     total energy              =    -333.17049515 Ry
     estimated scf accuracy    <       0.00000237 Ry

     iteration # 12     ecut=    30.00 Ry     beta= 0.70
     Davidson diagonalization with overlap
     ethr =  5.40E-09,  avg # of iterations =  2.3

     total cpu time spent up to now is        4.7 secs

     total energy              =    -333.17049489 Ry
     estimated scf accuracy    <       0.00000147 Ry

     iteration # 13     ecut=    30.00 Ry     beta= 0.70
     Davidson diagonalization with overlap
     ethr =  3.34E-09,  avg # of iterations =  3.2

     total cpu time spent up to now is        5.0 secs

     total energy              =    -333.17049499 Ry
     estimated scf accuracy    <       0.00000026 Ry

     iteration # 14     ecut=    30.00 Ry     beta= 0.70
     Davidson diagonalization with overlap
     ethr =  5.99E-10,  avg # of iterations =  4.3

     total cpu time spent up to now is        5.3 secs

     End of self-consistent calculation

          k = 0.1250 0.1250 0.1250 (  1096 PWs)   bands (ev):

   -44.4763 -21.2970 -21.0681 -21.0673  -6.3686  -5.3503  -5.1918  -4.0943
    -4.0700  -4.0584  -3.8927  -3.8699   4.5329   7.1920   7.3094   8.0214
     8.7234   8.8786   9.4469   9.7383  10.0921  10.1066

          k = 0.1250 0.1250 0.3750 (  1095 PWs)   bands (ev):

   -44.4750 -21.3553 -21.0656 -21.0647  -5.8738  -5.2625  -5.0551  -4.1464
    -4.0903  -4.0501  -3.9684  -3.8681   3.7272   6.7457   6.9834   7.7831
     8.4154   8.4944   9.4298   9.7682  10.2241  10.9195

          k = 0.1250 0.3750 0.3750 (  1093 PWs)   bands (ev):

   -44.4737 -21.3519 -21.1206 -21.0633  -5.6663  -5.1755  -4.9359  -4.1209
    -4.0780  -4.0156  -3.9206  -3.7336   3.4249   6.5020   7.0196   7.1286
     7.5294   8.7210   9.1616   9.5517   9.9239  10.5835

          k = 0.3750 0.3750 0.3750 (  1082 PWs)   bands (ev):

   -44.4724 -21.3492 -21.1180 -21.1178  -5.4294  -5.1976  -5.1206  -4.0378
    -4.0128  -3.7621  -3.6596  -3.6220   4.0625   5.7754   5.9490   6.6212
     7.1937   7.3074   7.9150  10.4320  10.5109  10.7830

          k = 0.3750-0.1250 0.1250 (  1095 PWs)   bands (ev):

   -44.4750 -21.2945 -21.1241 -21.0654  -6.0090  -5.1872  -5.0546  -4.1369
    -4.0774  -4.0583  -3.9892  -3.8504   3.8070   6.9247   7.3360   7.7776
     8.3570   8.7626   9.1397   9.7482   9.8535  10.7554

          k = 0.3750-0.3750 0.1250 (  1093 PWs)   bands (ev):

   -44.4738 -21.2925 -21.1212 -21.1204  -5.8939  -4.9873  -4.9056  -4.0982
    -4.0675  -3.9959  -3.9126  -3.8198   3.5003   6.8210   6.8597   7.0487
     7.4061   8.6507   9.4636   9.5002   9.9441  10.7794

     highest occupied level (ev):    10.9195

!    total energy              =    -333.17049505 Ry
     estimated scf accuracy    <          4.8E-09 Ry

     The total energy is the sum of the following terms:
     one-electron contribution =     -78.41386669 Ry
     hartree contribution      =      67.14182551 Ry
     xc contribution           =     -49.69045297 Ry
     ewald contribution        =    -272.20800090 Ry

     convergence has been achieved in  14 iterations

     Forces acting on atoms (cartesian axes, Ry/au):

     atom    1 type  2   force =     0.00000000    0.00000000    0.02546610
     atom    2 type  3   force =     0.00000000    0.00000000   -0.10238753
     atom    3 type  1   force =     0.00000000    0.00000000    0.00447100
     atom    4 type  1   force =     0.00000000    0.00000000    0.00447100
     atom    5 type  1   force =     0.00000000    0.00000000    0.06797944
     The non-local contrib.  to forces
     atom    1 type  2   force =     0.00000000    0.00000000   -0.01341139
     atom    2 type  3   force =     0.00000000    0.00000000    0.05190711
     atom    3 type  1   force =     0.00000000    0.00000000    0.14780464
     atom    4 type  1   force =     0.00000000    0.00000000    0.14780464
     atom    5 type  1   force =     0.00000000    0.00000000   -0.41078097
     The ionic contribution  to forces
     atom    1 type  2   force =     0.00000000    0.00000000    1.48563414
     atom    2 type  3   force =    -0.00000000   -0.00000000   -3.67077146
     atom    3 type  1   force =     0.00000000   -0.00000000   -1.63184638
     atom    4 type  1   force =    -0.00000000    0.00000000   -1.63184638
     atom    5 type  1   force =    -0.00000000   -0.00000000    5.44883007
     The local contribution  to forces
     atom    1 type  2   force =    -0.00000000    0.00000000   -1.44674052
     atom    2 type  3   force =    -0.00000000   -0.00000000    3.51648651
     atom    3 type  1   force =     0.00000000   -0.00000000    1.48852086
     atom    4 type  1   force =    -0.00000000    0.00000000    1.48852086
     atom    5 type  1   force =    -0.00000000   -0.00000000   -4.97005022
     The core correction contribution to forces
     atom    1 type  2   force =     0.00000000    0.00000000    0.00000000
     atom    2 type  3   force =     0.00000000    0.00000000    0.00000000
     atom    3 type  1   force =     0.00000000    0.00000000    0.00000000
     atom    4 type  1   force =     0.00000000    0.00000000    0.00000000
     atom    5 type  1   force =     0.00000000    0.00000000    0.00000000
     The Hubbard contrib.    to forces
     atom    1 type  2   force =     0.00000000    0.00000000    0.00000000
     atom    2 type  3   force =     0.00000000    0.00000000    0.00000000
     atom    3 type  1   force =     0.00000000    0.00000000    0.00000000
     atom    4 type  1   force =     0.00000000    0.00000000    0.00000000
     atom    5 type  1   force =     0.00000000    0.00000000    0.00000000
     The SCF correction term to forces
     atom    1 type  2   force =    -0.00000000    0.00000000   -0.00000000
     atom    2 type  3   force =    -0.00000000   -0.00000000   -0.00000000
     atom    3 type  1   force =     0.00000000   -0.00000000   -0.00000932
     atom    4 type  1   force =     0.00000000    0.00000000   -0.00000932
     atom    5 type  1   force =     0.00000000    0.00000000   -0.00002064

     Total force =     0.068273     Total SCF correction =     0.000024


     Computing stress (Cartesian axis) and pressure

          total   stress  (Ry/bohr**3)                   (kbar)     P=       15.21
  -0.00009427   0.00000000   0.00000000          -13.87        0.00        0.00
   0.00000000  -0.00009427   0.00000000            0.00      -13.87        0.00
   0.00000000   0.00000000   0.00049883            0.00        0.00       73.38


     BFGS Geometry Optimization
     Energy error            =      0.0E+00 Ry
     Gradient error          =      6.8E-02 Ry/Bohr

     number of scf cycles    =   1
     number of bfgs steps    =   0

     energy             new  =    -333.1704950549 Ry

     new trust radius        =       0.0679794370 bohr
     new conv_thr            =       0.0000001000 Ry


ATOMIC_POSITIONS (angstrom)
Pb            0.0000000000        0.0000000000        0.0000000000    0   0   0
Ti            1.9400000000        1.9400000000        2.1646300000    0   0   0
O             0.0000000000        1.9400000000        1.9423659494
O             1.9400000000        0.0000000000        1.9423659494
O             1.9400000000        1.9400000000        0.0359731689



     Writing config-only to output data dir /home/gridsan/epan1/labutil/lab3_samples/problem2/Lab3/PbTiO3_a_3.88_ecut_30_nk_4_displ_0.05789473684210525/pwscf.save/
     NEW-OLD atomic charge density approx. for the potential

     total cpu time spent up to now is        6.5 secs

     Self-consistent Calculation

     iteration #  1     ecut=    30.00 Ry     beta= 0.70
     Davidson diagonalization with overlap
     ethr =  1.00E-06,  avg # of iterations =  8.2

     total cpu time spent up to now is        6.9 secs

     total energy              =    -333.17336216 Ry
     estimated scf accuracy    <       0.00131838 Ry

     iteration #  2     ecut=    30.00 Ry     beta= 0.70
     Davidson diagonalization with overlap
     ethr =  3.00E-06,  avg # of iterations =  5.7

     total cpu time spent up to now is        7.3 secs

     total energy              =    -333.17327933 Ry
     estimated scf accuracy    <       0.00297872 Ry

     iteration #  3     ecut=    30.00 Ry     beta= 0.70
     Davidson diagonalization with overlap
     ethr =  3.00E-06,  avg # of iterations =  4.5

     total cpu time spent up to now is        7.6 secs

     total energy              =    -333.17387542 Ry
     estimated scf accuracy    <       0.00009103 Ry

     iteration #  4     ecut=    30.00 Ry     beta= 0.70
     Davidson diagonalization with overlap
     ethr =  2.07E-07,  avg # of iterations =  2.3

     total cpu time spent up to now is        7.9 secs

     total energy              =    -333.17388749 Ry
     estimated scf accuracy    <       0.00001827 Ry

     iteration #  5     ecut=    30.00 Ry     beta= 0.70
     Davidson diagonalization with overlap
     ethr =  4.15E-08,  avg # of iterations =  4.2

     total cpu time spent up to now is        8.2 secs

     total energy              =    -333.17389177 Ry
     estimated scf accuracy    <       0.00000066 Ry

     iteration #  6     ecut=    30.00 Ry     beta= 0.70
     Davidson diagonalization with overlap
     ethr =  1.50E-09,  avg # of iterations =  6.0

     total cpu time spent up to now is        8.6 secs

     total energy              =    -333.17389213 Ry
     estimated scf accuracy    <       0.00000036 Ry

     iteration #  7     ecut=    30.00 Ry     beta= 0.70
     Davidson diagonalization with overlap
     ethr =  8.09E-10,  avg # of iterations =  3.8

     total cpu time spent up to now is        8.9 secs

     End of self-consistent calculation

          k = 0.1250 0.1250 0.1250 (  1096 PWs)   bands (ev):

   -44.5524 -21.3027 -21.1479 -21.1471  -6.3743  -5.3393  -5.2090  -4.0764
    -4.0569  -4.0456  -3.8786  -3.8606   4.5483   7.2089   7.2929   8.0102
     8.7999   8.9653   9.4957   9.7385  10.0824  10.1159

          k = 0.1250 0.1250 0.3750 (  1095 PWs)   bands (ev):

   -44.5511 -21.3608 -21.1455 -21.1446  -5.8934  -5.2385  -5.0757  -4.1301
    -4.0722  -4.0381  -3.9590  -3.8536   3.7625   6.7488   7.0353   7.7614
     8.4948   8.4999   9.4207   9.7793  10.1999  10.9145

          k = 0.1250 0.3750 0.3750 (  1093 PWs)   bands (ev):

   -44.5499 -21.3574 -21.1999 -21.1431  -5.6831  -5.1497  -4.9539  -4.1044
    -4.0609  -4.0024  -3.9085  -3.7276   3.4487   6.5428   7.0101   7.1212
     7.5187   8.7091   9.2309   9.5375   9.9603  10.5931

          k = 0.3750 0.3750 0.3750 (  1082 PWs)   bands (ev):

   -44.5486 -21.3547 -21.1974 -21.1971  -5.4123  -5.2036  -5.1347  -4.0204
    -4.0003  -3.7407  -3.6529  -3.6196   4.0799   5.8188   5.9509   6.6114
     7.1841   7.2720   7.9402  10.4780  10.5510  10.7621

          k = 0.3750-0.1250 0.1250 (  1095 PWs)   bands (ev):

   -44.5512 -21.3002 -21.2034 -21.1452  -6.0047  -5.1859  -5.0725  -4.1224
    -4.0613  -4.0451  -3.9756  -3.8403   3.8235   6.9083   7.3508   7.7859
     8.3685   8.7845   9.1760   9.7825   9.8821  10.7701

          k = 0.3750-0.3750 0.1250 (  1093 PWs)   bands (ev):

   -44.5499 -21.2982 -21.2006 -21.1997  -5.8719  -5.0040  -4.9248  -4.0862
    -4.0528  -3.9857  -3.9024  -3.7985   3.5040   6.8139   6.8826   7.0985
     7.4296   8.6501   9.4817   9.4896   9.9436  10.7613

     highest occupied level (ev):    10.9145

!    total energy              =    -333.17389217 Ry
     estimated scf accuracy    <       0.00000003 Ry

     The total energy is the sum of the following terms:
     one-electron contribution =     -77.78387388 Ry
     hartree contribution      =      66.80831896 Ry
     xc contribution           =     -49.66730627 Ry
     ewald contribution        =    -272.53103099 Ry

     convergence has been achieved in   7 iterations

     Forces acting on atoms (cartesian axes, Ry/au):

     atom    1 type  2   force =     0.00000000    0.00000000    0.02613937
     atom    2 type  3   force =     0.00000000    0.00000000   -0.07612961
     atom    3 type  1   force =     0.00000000    0.00000000    0.00939459
     atom    4 type  1   force =     0.00000000    0.00000000    0.00939459
     atom    5 type  1   force =     0.00000000    0.00000000    0.03120105
     The non-local contrib.  to forces
     atom    1 type  2   force =     0.00000000    0.00000000   -0.01479849
     atom    2 type  3   force =     0.00000000    0.00000000    0.04092140
     atom    3 type  1   force =     0.00000000    0.00000000    0.16285482
     atom    4 type  1   force =     0.00000000    0.00000000    0.16285482
     atom    5 type  1   force =     0.00000000    0.00000000   -0.38081947
     The ionic contribution  to forces
     atom    1 type  2   force =     0.00000000    0.00000000    1.38842699
     atom    2 type  3   force =    -0.00000000   -0.00000000   -2.79673917
     atom    3 type  1   force =     0.00000000   -0.00000000   -1.53310738
     atom    4 type  1   force =    -0.00000000    0.00000000   -1.53310738
     atom    5 type  1   force =     0.00000000    0.00000000    4.47452694
     The local contribution  to forces
     atom    1 type  2   force =     0.00000000    0.00000000   -1.34773695
     atom    2 type  3   force =    -0.00000000   -0.00000000    2.67988464
     atom    3 type  1   force =     0.00000000   -0.00000000    1.37978453
     atom    4 type  1   force =    -0.00000000    0.00000000    1.37978453
     atom    5 type  1   force =    -0.00000000   -0.00000000   -4.06270554
     The core correction contribution to forces
     atom    1 type  2   force =     0.00000000    0.00000000    0.00000000
     atom    2 type  3   force =     0.00000000    0.00000000    0.00000000
     atom    3 type  1   force =     0.00000000    0.00000000    0.00000000
     atom    4 type  1   force =     0.00000000    0.00000000    0.00000000
     atom    5 type  1   force =     0.00000000    0.00000000    0.00000000
     The Hubbard contrib.    to forces
     atom    1 type  2   force =     0.00000000    0.00000000    0.00000000
     atom    2 type  3   force =     0.00000000    0.00000000    0.00000000
     atom    3 type  1   force =     0.00000000    0.00000000    0.00000000
     atom    4 type  1   force =     0.00000000    0.00000000    0.00000000
     atom    5 type  1   force =     0.00000000    0.00000000    0.00000000
     The SCF correction term to forces
     atom    1 type  2   force =    -0.00000000   -0.00000000    0.00000000
     atom    2 type  3   force =     0.00000000   -0.00000000   -0.00000000
     atom    3 type  1   force =    -0.00000000   -0.00000000   -0.00013840
     atom    4 type  1   force =     0.00000000    0.00000000   -0.00013840
     atom    5 type  1   force =    -0.00000000   -0.00000000    0.00019811

     Total force =     0.033912     Total SCF correction =     0.000278


     Computing stress (Cartesian axis) and pressure

          total   stress  (Ry/bohr**3)                   (kbar)     P=        0.55
  -0.00012463   0.00000000   0.00000000          -18.33        0.00        0.00
   0.00000000  -0.00012463   0.00000000            0.00      -18.33        0.00
   0.00000000   0.00000000   0.00026047            0.00        0.00       38.32

     Energy error            =      3.4E-03 Ry
     Gradient error          =      3.1E-02 Ry/Bohr

     number of scf cycles    =   2
     number of bfgs steps    =   1

     energy             old  =    -333.1704950549 Ry
     energy             new  =    -333.1738921703 Ry

     CASE: energy            _new < energy            _old

     new trust radius        =       0.0648271000 bohr
     new conv_thr            =       0.0000000312 Ry


ATOMIC_POSITIONS (angstrom)
Pb            0.0000000000        0.0000000000        0.0000000000    0   0   0
Ti            1.9400000000        1.9400000000        2.1646300000    0   0   0
O             0.0000000000        1.9400000000        1.9519959170
O             1.9400000000        0.0000000000        1.9519959170
O             1.9400000000        1.9400000000        0.0702781929



     Writing config-only to output data dir /home/gridsan/epan1/labutil/lab3_samples/problem2/Lab3/PbTiO3_a_3.88_ecut_30_nk_4_displ_0.05789473684210525/pwscf.save/
     NEW-OLD atomic charge density approx. for the potential

     total cpu time spent up to now is       10.1 secs

     Self-consistent Calculation

     iteration #  1     ecut=    30.00 Ry     beta= 0.70
     Davidson diagonalization with overlap
     ethr =  1.00E-06,  avg # of iterations =  8.5

     total cpu time spent up to now is       10.6 secs

     total energy              =    -333.17503538 Ry
     estimated scf accuracy    <       0.00107419 Ry

     iteration #  2     ecut=    30.00 Ry     beta= 0.70
     Davidson diagonalization with overlap
     ethr =  2.44E-06,  avg # of iterations =  5.7

     total cpu time spent up to now is       11.0 secs

     total energy              =    -333.17494166 Ry
     estimated scf accuracy    <       0.00224766 Ry

     iteration #  3     ecut=    30.00 Ry     beta= 0.70
     Davidson diagonalization with overlap
     ethr =  2.44E-06,  avg # of iterations =  4.5

     total cpu time spent up to now is       11.4 secs

     total energy              =    -333.17541250 Ry
     estimated scf accuracy    <       0.00008791 Ry

     iteration #  4     ecut=    30.00 Ry     beta= 0.70
     Davidson diagonalization with overlap
     ethr =  2.00E-07,  avg # of iterations =  2.3

     total cpu time spent up to now is       11.7 secs

     total energy              =    -333.17541954 Ry
     estimated scf accuracy    <       0.00001963 Ry

     iteration #  5     ecut=    30.00 Ry     beta= 0.70
     Davidson diagonalization with overlap
     ethr =  4.46E-08,  avg # of iterations =  4.3

     total cpu time spent up to now is       12.0 secs

     total energy              =    -333.17542445 Ry
     estimated scf accuracy    <       0.00000058 Ry

     iteration #  6     ecut=    30.00 Ry     beta= 0.70
     Davidson diagonalization with overlap
     ethr =  1.33E-09,  avg # of iterations =  6.0

     total cpu time spent up to now is       12.4 secs

     total energy              =    -333.17542474 Ry
     estimated scf accuracy    <       0.00000043 Ry

     iteration #  7     ecut=    30.00 Ry     beta= 0.70
     Davidson diagonalization with overlap
     ethr =  9.79E-10,  avg # of iterations =  3.3

     total cpu time spent up to now is       12.7 secs

     total energy              =    -333.17542479 Ry
     estimated scf accuracy    <       0.00000004 Ry

     iteration #  8     ecut=    30.00 Ry     beta= 0.70
     Davidson diagonalization with overlap
     ethr =  1.02E-10,  avg # of iterations =  4.7

     total cpu time spent up to now is       13.0 secs

     End of self-consistent calculation

          k = 0.1250 0.1250 0.1250 (  1096 PWs)   bands (ev):

   -44.6151 -21.3128 -21.2133 -21.2125  -6.3773  -5.3282  -5.2281  -4.0623
    -4.0469  -4.0357  -3.8677  -3.8537   4.5599   7.2193   7.2765   8.0067
     8.8714   9.0253   9.5585   9.7483  10.0567  10.1334

          k = 0.1250 0.1250 0.3750 (  1095 PWs)   bands (ev):

   -44.6138 -21.3705 -21.2109 -21.2100  -5.9120  -5.2129  -5.0982  -4.1172
    -4.0579  -4.0290  -3.9518  -3.8421   3.7928   6.7530   7.0833   7.7468
     8.4976   8.5584   9.4128   9.7963  10.1750  10.9053

          k = 0.1250 0.3750 0.3750 (  1093 PWs)   bands (ev):

   -44.6126 -21.3672 -21.2651 -21.2086  -5.7001  -5.1227  -4.9698  -4.0915
    -4.0476  -3.9917  -3.8986  -3.7236   3.4676   6.5821   6.9853   7.1200
     7.5037   8.6943   9.2888   9.5207   9.9883  10.6081

          k = 0.3750 0.3750 0.3750 (  1082 PWs)   bands (ev):

   -44.6113 -21.3645 -21.2626 -21.2623  -5.3960  -5.2054  -5.1482  -4.0067
    -3.9908  -3.7236  -3.6468  -3.6179   4.0914   5.8516   5.9467   6.6100
     7.1641   7.2290   7.9579  10.5208  10.5871  10.7420

          k = 0.3750-0.1250 0.1250 (  1095 PWs)   bands (ev):

   -44.6139 -21.3103 -21.2685 -21.2106  -5.9981  -5.1845  -5.0896  -4.1113
    -4.0489  -4.0349  -3.9638  -3.8323   3.8368   6.8881   7.3549   7.7861
     8.3754   8.7913   9.2161   9.8155   9.9159  10.7836

          k = 0.3750-0.3750 0.1250 (  1093 PWs)   bands (ev):

   -44.6126 -21.3084 -21.2657 -21.2649  -5.8469  -5.0192  -4.9428  -4.0770
    -4.0414  -3.9776  -3.8940  -3.7809   3.5047   6.8034   6.8853   7.1341
     7.4502   8.6472   9.4820   9.4886   9.9492  10.7436

     highest occupied level (ev):    10.9053

!    total energy              =    -333.17542481 Ry
     estimated scf accuracy    <          9.8E-09 Ry

     The total energy is the sum of the following terms:
     one-electron contribution =     -77.37465187 Ry
     hartree contribution      =      66.58818858 Ry
     xc contribution           =     -49.65059602 Ry
     ewald contribution        =    -272.73836550 Ry

     convergence has been achieved in   8 iterations

     Forces acting on atoms (cartesian axes, Ry/au):

     atom    1 type  2   force =     0.00000000    0.00000000    0.02574542
     atom    2 type  3   force =     0.00000000    0.00000000   -0.05649193
     atom    3 type  1   force =     0.00000000    0.00000000    0.01327673
     atom    4 type  1   force =     0.00000000    0.00000000    0.01327673
     atom    5 type  1   force =     0.00000000    0.00000000    0.00419306
     The non-local contrib.  to forces
     atom    1 type  2   force =     0.00000000    0.00000000   -0.02184572
     atom    2 type  3   force =     0.00000000    0.00000000    0.03308901
     atom    3 type  1   force =     0.00000000    0.00000000    0.17401483
     atom    4 type  1   force =     0.00000000    0.00000000    0.17401483
     atom    5 type  1   force =     0.00000000    0.00000000   -0.34482299
     The ionic contribution  to forces
     atom    1 type  2   force =     0.00000000    0.00000000    1.39739550
     atom    2 type  3   force =    -0.00000000   -0.00000000   -2.08123324
     atom    3 type  1   force =     0.00000000   -0.00000000   -1.46070550
     atom    4 type  1   force =    -0.00000000    0.00000000   -1.46070550
     atom    5 type  1   force =    -0.00000000   -0.00000000    3.60524874
     The local contribution  to forces
     atom    1 type  2   force =    -0.00000000   -0.00000000   -1.34976997
     atom    2 type  3   force =    -0.00000000   -0.00000000    1.99166775
     atom    3 type  1   force =     0.00000000   -0.00000000    1.29992976
     atom    4 type  1   force =    -0.00000000    0.00000000    1.29992976
     atom    5 type  1   force =    -0.00000000   -0.00000000   -3.25622765
     The core correction contribution to forces
     atom    1 type  2   force =     0.00000000    0.00000000    0.00000000
     atom    2 type  3   force =     0.00000000    0.00000000    0.00000000
     atom    3 type  1   force =     0.00000000    0.00000000    0.00000000
     atom    4 type  1   force =     0.00000000    0.00000000    0.00000000
     atom    5 type  1   force =     0.00000000    0.00000000    0.00000000
     The Hubbard contrib.    to forces
     atom    1 type  2   force =     0.00000000    0.00000000    0.00000000
     atom    2 type  3   force =     0.00000000    0.00000000    0.00000000
     atom    3 type  1   force =     0.00000000    0.00000000    0.00000000
     atom    4 type  1   force =     0.00000000    0.00000000    0.00000000
     atom    5 type  1   force =     0.00000000    0.00000000    0.00000000
     The SCF correction term to forces
     atom    1 type  2   force =    -0.00000000   -0.00000000   -0.00000000
     atom    2 type  3   force =     0.00000000    0.00000000   -0.00000000
     atom    3 type  1   force =    -0.00000000   -0.00000000    0.00002619
     atom    4 type  1   force =    -0.00000000    0.00000000    0.00002619
     atom    5 type  1   force =    -0.00000000    0.00000000   -0.00001650

     Total force =     0.019239     Total SCF correction =     0.000041


     Computing stress (Cartesian axis) and pressure

          total   stress  (Ry/bohr**3)                   (kbar)     P=      -10.29
  -0.00014478   0.00000000   0.00000000          -21.30        0.00        0.00
   0.00000000  -0.00014478   0.00000000            0.00      -21.30        0.00
   0.00000000   0.00000000   0.00007967            0.00        0.00       11.72

     Energy error            =      1.5E-03 Ry
     Gradient error          =      1.3E-02 Ry/Bohr

     number of scf cycles    =   3
     number of bfgs steps    =   2

     energy             old  =    -333.1738921703 Ry
     energy             new  =    -333.1754248069 Ry

     CASE: energy            _new < energy            _old

     new trust radius        =       0.0354518261 bohr
     new conv_thr            =       0.0000000133 Ry


ATOMIC_POSITIONS (angstrom)
Pb            0.0000000000        0.0000000000        0.0000000000    0   0   0
Ti            1.9400000000        1.9400000000        2.1646300000    0   0   0
O             0.0000000000        1.9400000000        1.9657932746
O             1.9400000000        0.0000000000        1.9657932746
O             1.9400000000        1.9400000000        0.0890384913



     Writing config-only to output data dir /home/gridsan/epan1/labutil/lab3_samples/problem2/Lab3/PbTiO3_a_3.88_ecut_30_nk_4_displ_0.05789473684210525/pwscf.save/
     NEW-OLD atomic charge density approx. for the potential

     total cpu time spent up to now is       14.5 secs

     Self-consistent Calculation

     iteration #  1     ecut=    30.00 Ry     beta= 0.70
     Davidson diagonalization with overlap
     ethr =  1.00E-06,  avg # of iterations =  7.3

     total cpu time spent up to now is       15.0 secs

     total energy              =    -333.17602193 Ry
     estimated scf accuracy    <       0.00032991 Ry

     iteration #  2     ecut=    30.00 Ry     beta= 0.70
     Davidson diagonalization with overlap
     ethr =  7.50E-07,  avg # of iterations =  5.0

     total cpu time spent up to now is       15.3 secs

     total energy              =    -333.17600243 Ry
     estimated scf accuracy    <       0.00040644 Ry

     iteration #  3     ecut=    30.00 Ry     beta= 0.70
     Davidson diagonalization with overlap
     ethr =  7.50E-07,  avg # of iterations =  4.5

     total cpu time spent up to now is       15.6 secs

     total energy              =    -333.17610100 Ry
     estimated scf accuracy    <       0.00005397 Ry

     iteration #  4     ecut=    30.00 Ry     beta= 0.70
     Davidson diagonalization with overlap
     ethr =  1.23E-07,  avg # of iterations =  3.3

     total cpu time spent up to now is       15.9 secs

     total energy              =    -333.17610625 Ry
     estimated scf accuracy    <       0.00000549 Ry

     iteration #  5     ecut=    30.00 Ry     beta= 0.70
     Davidson diagonalization with overlap
     ethr =  1.25E-08,  avg # of iterations =  4.7

     total cpu time spent up to now is       16.3 secs

     total energy              =    -333.17610907 Ry
     estimated scf accuracy    <       0.00000064 Ry

     iteration #  6     ecut=    30.00 Ry     beta= 0.70
     Davidson diagonalization with overlap
     ethr =  1.45E-09,  avg # of iterations =  3.8

     total cpu time spent up to now is       16.6 secs

     total energy              =    -333.17610909 Ry
     estimated scf accuracy    <       0.00000029 Ry

     iteration #  7     ecut=    30.00 Ry     beta= 0.70
     Davidson diagonalization with overlap
     ethr =  6.58E-10,  avg # of iterations =  3.8

     total cpu time spent up to now is       16.9 secs

     total energy              =    -333.17610911 Ry
     estimated scf accuracy    <       0.00000004 Ry

     iteration #  8     ecut=    30.00 Ry     beta= 0.70
     Davidson diagonalization with overlap
     ethr =  9.20E-11,  avg # of iterations =  4.7

     total cpu time spent up to now is       17.2 secs

     total energy              =    -333.17610913 Ry
     estimated scf accuracy    <       0.00000002 Ry

     iteration #  9     ecut=    30.00 Ry     beta= 0.70
     Davidson diagonalization with overlap
     ethr =  4.00E-11,  avg # of iterations =  1.8

     total cpu time spent up to now is       17.5 secs

     End of self-consistent calculation

          k = 0.1250 0.1250 0.1250 (  1096 PWs)   bands (ev):

   -44.6451 -21.3194 -21.2451 -21.2443  -6.3781  -5.3240  -5.2434  -4.0556
    -4.0424  -4.0313  -3.8631  -3.8506   4.5657   7.2260   7.2689   8.0106
     8.9094   9.0476   9.6045   9.7604  10.0369  10.1348

          k = 0.1250 0.1250 0.3750 (  1095 PWs)   bands (ev):

   -44.6439 -21.3769 -21.2427 -21.2418  -5.9236  -5.1987  -5.1159  -4.1108
    -4.0511  -4.0249  -3.9484  -3.8369   3.8097   6.7578   7.1179   7.7467
     8.4839   8.5860   9.4041   9.8113  10.1568  10.8942

          k = 0.1250 0.3750 0.3750 (  1093 PWs)   bands (ev):

   -44.6426 -21.3736 -21.2970 -21.2404  -5.7116  -5.1078  -4.9794  -4.0854
    -4.0414  -3.9865  -3.8938  -3.7222   3.4761   6.6080   6.9593   7.1236
     7.4899   8.6835   9.3133   9.5070   9.9996  10.6179

          k = 0.3750 0.3750 0.3750 (  1082 PWs)   bands (ev):

   -44.6413 -21.3709 -21.2944 -21.2942  -5.3867  -5.2056  -5.1571  -4.0003
    -3.9866  -3.7152  -3.6435  -3.6171   4.0938   5.8658   5.9388   6.6159
     7.1409   7.1915   7.9650  10.5437  10.6053  10.7284

          k = 0.3750-0.1250 0.1250 (  1095 PWs)   bands (ev):

   -44.6439 -21.3170 -21.3003 -21.2424  -5.9931  -5.1867  -5.1008  -4.1063
    -4.0432  -4.0303  -3.9573  -3.8285   3.8426   6.8712   7.3509   7.7862
     8.3785   8.7832   9.2378   9.8328   9.9391  10.7892

          k = 0.3750-0.3750 0.1250 (  1093 PWs)   bands (ev):

   -44.6427 -21.3151 -21.2974 -21.2967  -5.8303  -5.0293  -4.9546  -4.0730
    -4.0359  -3.9733  -3.8894  -3.7720   3.5022   6.7951   6.8777   7.1442
     7.4524   8.6437   9.4765   9.4829   9.9553  10.7307

     highest occupied level (ev):    10.8942

!    total energy              =    -333.17610913 Ry
     estimated scf accuracy    <          5.8E-09 Ry

     The total energy is the sum of the following terms:
     one-electron contribution =     -77.28318041 Ry
     hartree contribution      =      66.53475013 Ry
     xc contribution           =     -49.64472659 Ry
     ewald contribution        =    -272.78295225 Ry

     convergence has been achieved in   9 iterations

     Forces acting on atoms (cartesian axes, Ry/au):

     atom    1 type  2   force =     0.00000000    0.00000000    0.02490099
     atom    2 type  3   force =     0.00000000    0.00000000   -0.04760989
     atom    3 type  1   force =     0.00000000    0.00000000    0.01424798
     atom    4 type  1   force =     0.00000000    0.00000000    0.01424798
     atom    5 type  1   force =     0.00000000    0.00000000   -0.00578706
     The non-local contrib.  to forces
     atom    1 type  2   force =     0.00000000    0.00000000   -0.03187622
     atom    2 type  3   force =     0.00000000    0.00000000    0.02930127
     atom    3 type  1   force =     0.00000000    0.00000000    0.17598089
     atom    4 type  1   force =     0.00000000    0.00000000    0.17598089
     atom    5 type  1   force =     0.00000000    0.00000000   -0.31863751
     The ionic contribution  to forces
     atom    1 type  2   force =     0.00000000    0.00000000    1.51969696
     atom    2 type  3   force =    -0.00000000   -0.00000000   -1.81448587
     atom    3 type  1   force =     0.00000000    0.00000000   -1.44530436
     atom    4 type  1   force =     0.00000000    0.00000000   -1.44530436
     atom    5 type  1   force =    -0.00000000   -0.00000000    3.18539764
     The local contribution  to forces
     atom    1 type  2   force =     0.00000000   -0.00000000   -1.46290200
     atom    2 type  3   force =    -0.00000000   -0.00000000    1.73757282
     atom    3 type  1   force =     0.00000000   -0.00000000    1.28354126
     atom    4 type  1   force =    -0.00000000   -0.00000000    1.28354126
     atom    5 type  1   force =    -0.00000000   -0.00000000   -2.87252215
     The core correction contribution to forces
     atom    1 type  2   force =     0.00000000    0.00000000    0.00000000
     atom    2 type  3   force =     0.00000000    0.00000000    0.00000000
     atom    3 type  1   force =     0.00000000    0.00000000    0.00000000
     atom    4 type  1   force =     0.00000000    0.00000000    0.00000000
     atom    5 type  1   force =     0.00000000    0.00000000    0.00000000
     The Hubbard contrib.    to forces
     atom    1 type  2   force =     0.00000000    0.00000000    0.00000000
     atom    2 type  3   force =     0.00000000    0.00000000    0.00000000
     atom    3 type  1   force =     0.00000000    0.00000000    0.00000000
     atom    4 type  1   force =     0.00000000    0.00000000    0.00000000
     atom    5 type  1   force =     0.00000000    0.00000000    0.00000000
     The SCF correction term to forces
     atom    1 type  2   force =    -0.00000000    0.00000000   -0.00000000
     atom    2 type  3   force =    -0.00000000   -0.00000000   -0.00000000
     atom    3 type  1   force =     0.00000000   -0.00000000    0.00002119
     atom    4 type  1   force =    -0.00000000   -0.00000000    0.00002119
     atom    5 type  1   force =    -0.00000000   -0.00000000   -0.00003403

     Total force =     0.020964     Total SCF correction =     0.000045


     Computing stress (Cartesian axis) and pressure

          total   stress  (Ry/bohr**3)                   (kbar)     P=      -13.84
  -0.00014490   0.00000000   0.00000000          -21.32        0.00        0.00
   0.00000000  -0.00014490   0.00000000            0.00      -21.32        0.00
   0.00000000   0.00000000   0.00000745            0.00        0.00        1.10

     Energy error            =      6.8E-04 Ry
     Gradient error          =      1.4E-02 Ry/Bohr

     number of scf cycles    =   4
     number of bfgs steps    =   3

     energy             old  =    -333.1754248069 Ry
     energy             new  =    -333.1761091253 Ry

     CASE: energy            _new < energy            _old

     new trust radius        =       0.0389970087 bohr
     new conv_thr            =       0.0000000068 Ry


ATOMIC_POSITIONS (angstrom)
Pb            0.0000000000        0.0000000000        0.0000000000    0   0   0
Ti            1.9400000000        1.9400000000        2.1646300000    0   0   0
O             0.0000000000        1.9400000000        1.9864296029
O             1.9400000000        0.0000000000        1.9864296029
O             1.9400000000        1.9400000000        0.1067799551



     Writing config-only to output data dir /home/gridsan/epan1/labutil/lab3_samples/problem2/Lab3/PbTiO3_a_3.88_ecut_30_nk_4_displ_0.05789473684210525/pwscf.save/
     NEW-OLD atomic charge density approx. for the potential

     total cpu time spent up to now is       18.9 secs

     Self-consistent Calculation

     iteration #  1     ecut=    30.00 Ry     beta= 0.70
     Davidson diagonalization with overlap
     ethr =  1.00E-06,  avg # of iterations =  8.5

     total cpu time spent up to now is       19.4 secs

     total energy              =    -333.17684452 Ry
     estimated scf accuracy    <       0.00038724 Ry

     iteration #  2     ecut=    30.00 Ry     beta= 0.70
     Davidson diagonalization with overlap
     ethr =  8.80E-07,  avg # of iterations =  4.3

     total cpu time spent up to now is       19.7 secs

     total energy              =    -333.17683780 Ry
     estimated scf accuracy    <       0.00026628 Ry

     iteration #  3     ecut=    30.00 Ry     beta= 0.70
     Davidson diagonalization with overlap
     ethr =  6.05E-07,  avg # of iterations =  4.5

     total cpu time spent up to now is       20.1 secs

     total energy              =    -333.17690822 Ry
     estimated scf accuracy    <       0.00012474 Ry

     iteration #  4     ecut=    30.00 Ry     beta= 0.70
     Davidson diagonalization with overlap
     ethr =  2.84E-07,  avg # of iterations =  3.0

     total cpu time spent up to now is       20.3 secs

     total energy              =    -333.17691813 Ry
     estimated scf accuracy    <       0.00001187 Ry

     iteration #  5     ecut=    30.00 Ry     beta= 0.70
     Davidson diagonalization with overlap
     ethr =  2.70E-08,  avg # of iterations =  4.8

     total cpu time spent up to now is       20.7 secs

     total energy              =    -333.17692758 Ry
     estimated scf accuracy    <       0.00001228 Ry

     iteration #  6     ecut=    30.00 Ry     beta= 0.70
     Davidson diagonalization with overlap
     ethr =  2.70E-08,  avg # of iterations =  1.2

     total cpu time spent up to now is       20.9 secs

     total energy              =    -333.17692576 Ry
     estimated scf accuracy    <       0.00000770 Ry

     iteration #  7     ecut=    30.00 Ry     beta= 0.70
     Davidson diagonalization with overlap
     ethr =  1.75E-08,  avg # of iterations =  2.5

     total cpu time spent up to now is       21.2 secs

     total energy              =    -333.17692679 Ry
     estimated scf accuracy    <       0.00000065 Ry

     iteration #  8     ecut=    30.00 Ry     beta= 0.70
     Davidson diagonalization with overlap
     ethr =  1.47E-09,  avg # of iterations =  4.8

     total cpu time spent up to now is       21.6 secs

     total energy              =    -333.17692703 Ry
     estimated scf accuracy    <       0.00000002 Ry

     iteration #  9     ecut=    30.00 Ry     beta= 0.70
     Davidson diagonalization with overlap
     ethr =  3.68E-11,  avg # of iterations =  5.0

     total cpu time spent up to now is       21.9 secs

     total energy              =    -333.17692702 Ry
     estimated scf accuracy    <       0.00000004 Ry

     iteration # 10     ecut=    30.00 Ry     beta= 0.70
     Davidson diagonalization with overlap
     ethr =  3.68E-11,  avg # of iterations =  4.3

     total cpu time spent up to now is       22.2 secs

     End of self-consistent calculation

          k = 0.1250 0.1250 0.1250 (  1096 PWs)   bands (ev):

   -44.6702 -21.3254 -21.2722 -21.2714  -6.3795  -5.3216  -5.2632  -4.0493
    -4.0381  -4.0271  -3.8591  -3.8468   4.5711   7.2334   7.2633   8.0180
     8.9435   9.0618   9.6569   9.7759  10.0118  10.1273

          k = 0.1250 0.1250 0.3750 (  1095 PWs)   bands (ev):

   -44.6690 -21.3827 -21.2699 -21.2690  -5.9376  -5.1851  -5.1386  -4.1042
    -4.0444  -4.0210  -3.9441  -3.8320   3.8269   6.7647   7.1585   7.7516
     8.4593   8.6080   9.3898   9.8287  10.1339  10.8785

          k = 0.1250 0.3750 0.3750 (  1093 PWs)   bands (ev):

   -44.6677 -21.3794 -21.3244 -21.2676  -5.7257  -5.0943  -4.9906  -4.0793
    -4.0356  -3.9810  -3.8887  -3.7203   3.4835   6.6364   6.9251   7.1284
     7.4731   8.6699   9.3302   9.4898  10.0075  10.6272

          k = 0.3750 0.3750 0.3750 (  1082 PWs)   bands (ev):

   -44.6664 -21.3767 -21.3218 -21.3216  -5.3787  -5.2058  -5.1683  -3.9940
    -3.9824  -3.7073  -3.6397  -3.6154   4.0922   5.8773   5.9266   6.6255
     7.1096   7.1446   7.9721  10.5639  10.6194  10.7124

          k = 0.3750-0.1250 0.1250 (  1095 PWs)   bands (ev):

   -44.6690 -21.3280 -21.3228 -21.2696  -5.9885  -5.1923  -5.1145  -4.1015
    -4.0376  -4.0257  -3.9496  -3.8242   3.8469   6.8501   7.3419   7.7872
     8.3815   8.7662   9.2566   9.8462   9.9640  10.7930

          k = 0.3750-0.3750 0.1250 (  1093 PWs)   bands (ev):

   -44.6678 -21.3255 -21.3241 -21.3206  -5.8127  -5.0425  -4.9696  -4.0692
    -4.0300  -3.9677  -3.8836  -3.7632   3.4967   6.7847   6.8637   7.1462
     7.4469   8.6395   9.4696   9.4700   9.9637  10.7144

     highest occupied level (ev):    10.8785

!    total energy              =    -333.17692703 Ry
     estimated scf accuracy    <          2.4E-09 Ry

     The total energy is the sum of the following terms:
     one-electron contribution =     -77.30105388 Ry
     hartree contribution      =      66.53678177 Ry
     xc contribution           =     -49.64172179 Ry
     ewald contribution        =    -272.77093312 Ry

     convergence has been achieved in  10 iterations

     Forces acting on atoms (cartesian axes, Ry/au):

     atom    1 type  2   force =     0.00000000    0.00000000    0.02344473
     atom    2 type  3   force =     0.00000000    0.00000000   -0.04036995
     atom    3 type  1   force =     0.00000000    0.00000000    0.01418777
     atom    4 type  1   force =     0.00000000    0.00000000    0.01418777
     atom    5 type  1   force =     0.00000000    0.00000000   -0.01145033
     The non-local contrib.  to forces
     atom    1 type  2   force =     0.00000000    0.00000000   -0.04689698
     atom    2 type  3   force =     0.00000000    0.00000000    0.02594457
     atom    3 type  1   force =     0.00000000    0.00000000    0.17430870
     atom    4 type  1   force =     0.00000000    0.00000000    0.17430870
     atom    5 type  1   force =     0.00000000    0.00000000   -0.28834248
     The ionic contribution  to forces
     atom    1 type  2   force =     0.00000000    0.00000000    1.73955552
     atom    2 type  3   force =    -0.00000000   -0.00000000   -1.67412300
     atom    3 type  1   force =     0.00000000    0.00000000   -1.45056321
     atom    4 type  1   force =     0.00000000    0.00000000   -1.45056321
     atom    5 type  1   force =    -0.00000000   -0.00000000    2.83569390
     The local contribution  to forces
     atom    1 type  2   force =    -0.00000000   -0.00000000   -1.66920385
     atom    2 type  3   force =    -0.00000000   -0.00000000    1.60778678
     atom    3 type  1   force =    -0.00000000   -0.00000000    1.29042417
     atom    4 type  1   force =    -0.00000000   -0.00000000    1.29042417
     atom    5 type  1   force =    -0.00000000   -0.00000000   -2.55878584
     The core correction contribution to forces
     atom    1 type  2   force =     0.00000000    0.00000000    0.00000000
     atom    2 type  3   force =     0.00000000    0.00000000    0.00000000
     atom    3 type  1   force =     0.00000000    0.00000000    0.00000000
     atom    4 type  1   force =     0.00000000    0.00000000    0.00000000
     atom    5 type  1   force =     0.00000000    0.00000000    0.00000000
     The Hubbard contrib.    to forces
     atom    1 type  2   force =     0.00000000    0.00000000    0.00000000
     atom    2 type  3   force =     0.00000000    0.00000000    0.00000000
     atom    3 type  1   force =     0.00000000    0.00000000    0.00000000
     atom    4 type  1   force =     0.00000000    0.00000000    0.00000000
     atom    5 type  1   force =     0.00000000    0.00000000    0.00000000
     The SCF correction term to forces
     atom    1 type  2   force =    -0.00000000   -0.00000000   -0.00000000
     atom    2 type  3   force =     0.00000000    0.00000000    0.00000000
     atom    3 type  1   force =     0.00000000   -0.00000000    0.00001387
     atom    4 type  1   force =     0.00000000   -0.00000000    0.00001387
     atom    5 type  1   force =    -0.00000000   -0.00000000   -0.00002016

     Total force =     0.023102     Total SCF correction =     0.000028


     Computing stress (Cartesian axis) and pressure

          total   stress  (Ry/bohr**3)                   (kbar)     P=      -15.65
  -0.00013813   0.00000000   0.00000000          -20.32        0.00        0.00
   0.00000000  -0.00013813   0.00000000            0.00      -20.32        0.00
   0.00000000   0.00000000  -0.00004283            0.00        0.00       -6.30

     Energy error            =      8.2E-04 Ry
     Gradient error          =      1.4E-02 Ry/Bohr

     number of scf cycles    =   5
     number of bfgs steps    =   4

     energy             old  =    -333.1761091253 Ry
     energy             new  =    -333.1769270261 Ry

     CASE: energy            _new < energy            _old

     new trust radius        =       0.0584955131 bohr
     new conv_thr            =       0.0000000082 Ry


ATOMIC_POSITIONS (angstrom)
Pb            0.0000000000        0.0000000000        0.0000000000    0   0   0
Ti            1.9400000000        1.9400000000        2.1646300000    0   0   0
O             0.0000000000        1.9400000000        2.0173840953
O             1.9400000000        0.0000000000        2.0173840953
O             1.9400000000        1.9400000000        0.1273312252



     Writing config-only to output data dir /home/gridsan/epan1/labutil/lab3_samples/problem2/Lab3/PbTiO3_a_3.88_ecut_30_nk_4_displ_0.05789473684210525/pwscf.save/
     NEW-OLD atomic charge density approx. for the potential

     total cpu time spent up to now is       23.4 secs

     Self-consistent Calculation

     iteration #  1     ecut=    30.00 Ry     beta= 0.70
     Davidson diagonalization with overlap
     ethr =  1.00E-06,  avg # of iterations =  9.3

     total cpu time spent up to now is       23.9 secs

     total energy              =    -333.17788481 Ry
     estimated scf accuracy    <       0.00070436 Ry

     iteration #  2     ecut=    30.00 Ry     beta= 0.70
     Davidson diagonalization with overlap
     ethr =  1.60E-06,  avg # of iterations =  4.0

     total cpu time spent up to now is       24.2 secs

     total energy              =    -333.17789638 Ry
     estimated scf accuracy    <       0.00033571 Ry

     iteration #  3     ecut=    30.00 Ry     beta= 0.70
     Davidson diagonalization with overlap
     ethr =  7.63E-07,  avg # of iterations =  4.5

     total cpu time spent up to now is       24.5 secs

     total energy              =    -333.17798671 Ry
     estimated scf accuracy    <       0.00023173 Ry

     iteration #  4     ecut=    30.00 Ry     beta= 0.70
     Davidson diagonalization with overlap
     ethr =  5.27E-07,  avg # of iterations =  3.2

     total cpu time spent up to now is       24.8 secs

     total energy              =    -333.17800889 Ry
     estimated scf accuracy    <       0.00001559 Ry

     iteration #  5     ecut=    30.00 Ry     beta= 0.70
     Davidson diagonalization with overlap
     ethr =  3.54E-08,  avg # of iterations =  5.7

     total cpu time spent up to now is       25.3 secs

     total energy              =    -333.17802348 Ry
     estimated scf accuracy    <       0.00002737 Ry

     iteration #  6     ecut=    30.00 Ry     beta= 0.70
     Davidson diagonalization with overlap
     ethr =  3.54E-08,  avg # of iterations =  2.0

     total cpu time spent up to now is       25.5 secs

     total energy              =    -333.17802006 Ry
     estimated scf accuracy    <       0.00001605 Ry

     iteration #  7     ecut=    30.00 Ry     beta= 0.70
     Davidson diagonalization with overlap
     ethr =  3.54E-08,  avg # of iterations =  3.7

     total cpu time spent up to now is       25.8 secs

     total energy              =    -333.17802188 Ry
     estimated scf accuracy    <       0.00000141 Ry

     iteration #  8     ecut=    30.00 Ry     beta= 0.70
     Davidson diagonalization with overlap
     ethr =  3.20E-09,  avg # of iterations =  4.8

     total cpu time spent up to now is       26.2 secs

     total energy              =    -333.17802257 Ry
     estimated scf accuracy    <       0.00000017 Ry

     iteration #  9     ecut=    30.00 Ry     beta= 0.70
     Davidson diagonalization with overlap
     ethr =  3.88E-10,  avg # of iterations =  3.0

     total cpu time spent up to now is       26.5 secs

     total energy              =    -333.17802254 Ry
     estimated scf accuracy    <       0.00000010 Ry

     iteration # 10     ecut=    30.00 Ry     beta= 0.70
     Davidson diagonalization with overlap
     ethr =  2.26E-10,  avg # of iterations =  4.3

     total cpu time spent up to now is       26.8 secs

     End of self-consistent calculation

          k = 0.1250 0.1250 0.1250 (  1096 PWs)   bands (ev):

   -44.6966 -21.3331 -21.3013 -21.3005  -6.3840  -5.3195  -5.2920  -4.0404
    -4.0318  -4.0206  -3.8536  -3.8390   4.5780   7.2407   7.2583   8.0285
     8.9796   9.0703   9.7254   9.7954   9.9761  10.1077

          k = 0.1250 0.1250 0.3750 (  1095 PWs)   bands (ev):

   -44.6953 -21.3901 -21.2990 -21.2981  -5.9586  -5.1717  -5.1686  -4.0945
    -4.0350  -4.0149  -3.9355  -3.8250   3.8481   6.7743   7.2090   7.7575
     8.4219   8.6314   9.3663   9.8494  10.1012  10.8573

          k = 0.1250 0.3750 0.3750 (  1093 PWs)   bands (ev):

   -44.6941 -21.3868 -21.3538 -21.2966  -5.7465  -5.0826  -5.0046  -4.0707
    -4.0275  -3.9728  -3.8806  -3.7153   3.4924   6.6707   6.8789   7.1306
     7.4532   8.6498   9.3421   9.4678  10.0145  10.6377

          k = 0.3750 0.3750 0.3750 (  1082 PWs)   bands (ev):

   -44.6928 -21.3841 -21.3512 -21.3510  -5.3736  -5.2046  -5.1854  -3.9852
    -3.9760  -3.6974  -3.6324  -3.6107   4.0857   5.8891   5.9087   6.6373
     7.0678   7.0835   7.9846  10.5845  10.6271  10.6945

          k = 0.3750-0.1250 0.1250 (  1095 PWs)   bands (ev):

   -44.6954 -21.3572 -21.3307 -21.2986  -5.9857  -5.2022  -5.1343  -4.0946
    -4.0296  -4.0188  -3.9370  -3.8166   3.8511   6.8218   7.3262   7.7890
     8.3841   8.7396   9.2753   9.8562   9.9932  10.7973

          k = 0.3750-0.3750 0.1250 (  1093 PWs)   bands (ev):

   -44.6941 -21.3544 -21.3535 -21.3287  -5.7914  -5.0631  -4.9932  -4.0633
    -4.0209  -3.9572  -3.8728  -3.7515   3.4864   6.7696   6.8411   7.1418
     7.4362   8.6351   9.4498   9.4607   9.9773  10.6904

     highest occupied level (ev):    10.8573

!    total energy              =    -333.17802256 Ry
     estimated scf accuracy    <          1.1E-09 Ry

     The total energy is the sum of the following terms:
     one-electron contribution =     -77.42591376 Ry
     hartree contribution      =      66.59174042 Ry
     xc contribution           =     -49.64081222 Ry
     ewald contribution        =    -272.70303701 Ry

     convergence has been achieved in  10 iterations

     Forces acting on atoms (cartesian axes, Ry/au):

     atom    1 type  2   force =     0.00000000    0.00000000    0.02134974
     atom    2 type  3   force =     0.00000000    0.00000000   -0.03368071
     atom    3 type  1   force =     0.00000000    0.00000000    0.01314966
     atom    4 type  1   force =     0.00000000    0.00000000    0.01314966
     atom    5 type  1   force =     0.00000000    0.00000000   -0.01396836
     The non-local contrib.  to forces
     atom    1 type  2   force =     0.00000000    0.00000000   -0.06929387
     atom    2 type  3   force =     0.00000000    0.00000000    0.02252976
     atom    3 type  1   force =     0.00000000    0.00000000    0.16949053
     atom    4 type  1   force =     0.00000000    0.00000000    0.16949053
     atom    5 type  1   force =     0.00000000    0.00000000   -0.24801114
     The ionic contribution  to forces
     atom    1 type  2   force =     0.00000000    0.00000000    2.09038369
     atom    2 type  3   force =    -0.00000000   -0.00000000   -1.62108591
     atom    3 type  1   force =     0.00000000    0.00000000   -1.47205544
     atom    4 type  1   force =     0.00000000    0.00000000   -1.47205544
     atom    5 type  1   force =    -0.00000000   -0.00000000    2.47481309
     The local contribution  to forces
     atom    1 type  2   force =     0.00000000   -0.00000000   -1.99973518
     atom    2 type  3   force =    -0.00000000   -0.00000000    1.56487490
     atom    3 type  1   force =     0.00000000   -0.00000000    1.31572027
     atom    4 type  1   force =    -0.00000000    0.00000000    1.31572027
     atom    5 type  1   force =    -0.00000000   -0.00000000   -2.24076988
     The core correction contribution to forces
     atom    1 type  2   force =     0.00000000    0.00000000    0.00000000
     atom    2 type  3   force =     0.00000000    0.00000000    0.00000000
     atom    3 type  1   force =     0.00000000    0.00000000    0.00000000
     atom    4 type  1   force =     0.00000000    0.00000000    0.00000000
     atom    5 type  1   force =     0.00000000    0.00000000    0.00000000
     The Hubbard contrib.    to forces
     atom    1 type  2   force =     0.00000000    0.00000000    0.00000000
     atom    2 type  3   force =     0.00000000    0.00000000    0.00000000
     atom    3 type  1   force =     0.00000000    0.00000000    0.00000000
     atom    4 type  1   force =     0.00000000    0.00000000    0.00000000
     atom    5 type  1   force =     0.00000000    0.00000000    0.00000000
     The SCF correction term to forces
     atom    1 type  2   force =     0.00000000    0.00000000    0.00000000
     atom    2 type  3   force =     0.00000000    0.00000000    0.00000000
     atom    3 type  1   force =    -0.00000000   -0.00000000    0.00000121
     atom    4 type  1   force =     0.00000000   -0.00000000    0.00000121
     atom    5 type  1   force =    -0.00000000   -0.00000000    0.00000648

     Total force =     0.023258     Total SCF correction =     0.000007


     Computing stress (Cartesian axis) and pressure

          total   stress  (Ry/bohr**3)                   (kbar)     P=      -16.19
  -0.00012414   0.00000000   0.00000000          -18.26        0.00        0.00
   0.00000000  -0.00012414   0.00000000            0.00      -18.26        0.00
   0.00000000   0.00000000  -0.00008196            0.00        0.00      -12.06

     Energy error            =      1.1E-03 Ry
     Gradient error          =      1.4E-02 Ry/Bohr

     number of scf cycles    =   6
     number of bfgs steps    =   5

     energy             old  =    -333.1769270261 Ry
     energy             new  =    -333.1780225633 Ry

     CASE: energy            _new < energy            _old

     new trust radius        =       0.0877432696 bohr
     new conv_thr            =       0.0000000110 Ry


ATOMIC_POSITIONS (angstrom)
Pb            0.0000000000        0.0000000000        0.0000000000    0   0   0
Ti            1.9400000000        1.9400000000        2.1646300000    0   0   0
O             0.0000000000        1.9400000000        2.0638158340
O             1.9400000000        0.0000000000        2.0638158340
O             1.9400000000        1.9400000000        0.1540702954



     Writing config-only to output data dir /home/gridsan/epan1/labutil/lab3_samples/problem2/Lab3/PbTiO3_a_3.88_ecut_30_nk_4_displ_0.05789473684210525/pwscf.save/
     NEW-OLD atomic charge density approx. for the potential

     total cpu time spent up to now is       28.0 secs

     Self-consistent Calculation

     iteration #  1     ecut=    30.00 Ry     beta= 0.70
     Davidson diagonalization with overlap
     ethr =  1.00E-06,  avg # of iterations =  9.3

     total cpu time spent up to now is       28.5 secs

     total energy              =    -333.17917953 Ry
     estimated scf accuracy    <       0.00142928 Ry

     iteration #  2     ecut=    30.00 Ry     beta= 0.70
     Davidson diagonalization with overlap
     ethr =  3.25E-06,  avg # of iterations =  3.3

     total cpu time spent up to now is       28.8 secs

     total energy              =    -333.17931816 Ry
     estimated scf accuracy    <       0.00034096 Ry

     iteration #  3     ecut=    30.00 Ry     beta= 0.70
     Davidson diagonalization with overlap
     ethr =  7.75E-07,  avg # of iterations =  4.5

     total cpu time spent up to now is       29.1 secs

     total energy              =    -333.17939060 Ry
     estimated scf accuracy    <       0.00026608 Ry

     iteration #  4     ecut=    30.00 Ry     beta= 0.70
     Davidson diagonalization with overlap
     ethr =  6.05E-07,  avg # of iterations =  4.2

     total cpu time spent up to now is       29.4 secs

     total energy              =    -333.17944194 Ry
     estimated scf accuracy    <       0.00000631 Ry

     iteration #  5     ecut=    30.00 Ry     beta= 0.70
     Davidson diagonalization with overlap
     ethr =  1.43E-08,  avg # of iterations =  6.3

     total cpu time spent up to now is       29.8 secs

     total energy              =    -333.17944501 Ry
     estimated scf accuracy    <       0.00001417 Ry

     iteration #  6     ecut=    30.00 Ry     beta= 0.70
     Davidson diagonalization with overlap
     ethr =  1.43E-08,  avg # of iterations =  4.3

     total cpu time spent up to now is       30.1 secs

     total energy              =    -333.17944612 Ry
     estimated scf accuracy    <       0.00000139 Ry

     iteration #  7     ecut=    30.00 Ry     beta= 0.70
     Davidson diagonalization with overlap
     ethr =  3.17E-09,  avg # of iterations =  4.5

     total cpu time spent up to now is       30.5 secs

     total energy              =    -333.17944658 Ry
     estimated scf accuracy    <       0.00000022 Ry

     iteration #  8     ecut=    30.00 Ry     beta= 0.70
     Davidson diagonalization with overlap
     ethr =  5.03E-10,  avg # of iterations =  2.0

     total cpu time spent up to now is       30.8 secs

     total energy              =    -333.17944655 Ry
     estimated scf accuracy    <       0.00000012 Ry

     iteration #  9     ecut=    30.00 Ry     beta= 0.70
     Davidson diagonalization with overlap
     ethr =  2.77E-10,  avg # of iterations =  4.8

     total cpu time spent up to now is       31.1 secs

     total energy              =    -333.17944659 Ry
     estimated scf accuracy    <       0.00000001 Ry

     iteration # 10     ecut=    30.00 Ry     beta= 0.70
     Davidson diagonalization with overlap
     ethr =  2.85E-11,  avg # of iterations =  2.7

     total cpu time spent up to now is       31.4 secs

     End of self-consistent calculation

          k = 0.1250 0.1250 0.1250 (  1096 PWs)   bands (ev):

   -44.7270 -21.3440 -21.3351 -21.3343  -6.3968  -5.3363  -5.3153  -4.0256
    -4.0201  -4.0078  -3.8435  -3.8207   4.5877   7.2430   7.2534   8.0403
     9.0188   9.0706   9.8160   9.8184   9.9249  10.0695

          k = 0.1250 0.1250 0.3750 (  1095 PWs)   bands (ev):

   -44.7258 -21.4005 -21.3329 -21.3319  -5.9944  -5.2226  -5.1451  -4.0774
    -4.0188  -4.0030  -3.9162  -3.8125   3.8766   6.7873   7.2651   7.7552
     8.3734   8.6614   9.3282   9.8707  10.0517  10.8323

          k = 0.1250 0.3750 0.3750 (  1093 PWs)   bands (ev):

   -44.7246 -21.3973 -21.3881 -21.3305  -5.7808  -5.0875  -5.0119  -4.0554
    -4.0132  -3.9574  -3.8647  -3.7015   3.5055   6.7095   6.8193   7.1209
     7.4334   8.6174   9.3425   9.4450  10.0235  10.6494

          k = 0.3750 0.3750 0.3750 (  1082 PWs)   bands (ev):

   -44.7233 -21.3946 -21.3855 -21.3853  -5.3795  -5.2153  -5.1976  -3.9698
    -3.9636  -3.6829  -3.6168  -3.5982   4.0699   5.8832   5.9030   6.6458
     7.0076   7.0172   8.0124  10.6054  10.6094  10.6863

          k = 0.3750-0.1250 0.1250 (  1095 PWs)   bands (ev):

   -44.7258 -21.3915 -21.3416 -21.3324  -5.9894  -5.2189  -5.1653  -4.0820
    -4.0156  -4.0049  -3.9132  -3.8007   3.8556   6.7831   7.3009   7.7893
     8.3839   8.7032   9.2939   9.8591  10.0245  10.8057

          k = 0.3750-0.3750 0.1250 (  1093 PWs)   bands (ev):

   -44.7246 -21.3886 -21.3877 -21.3396  -5.7654  -5.0985  -5.0349  -4.0517
    -4.0036  -3.9352  -3.8499  -3.7326   3.4674   6.7458   6.8057   7.1316
     7.4242   8.6324   9.4229   9.4505  10.0006  10.6523

     highest occupied level (ev):    10.8323

!    total energy              =    -333.17944658 Ry
     estimated scf accuracy    <          4.7E-09 Ry

     The total energy is the sum of the following terms:
     one-electron contribution =     -77.70303226 Ry
     hartree contribution      =      66.72176540 Ry
     xc contribution           =     -49.64256362 Ry
     ewald contribution        =    -272.55561610 Ry

     convergence has been achieved in  10 iterations

     Forces acting on atoms (cartesian axes, Ry/au):

     atom    1 type  2   force =     0.00000000    0.00000000    0.01871153
     atom    2 type  3   force =     0.00000000    0.00000000   -0.02784666
     atom    3 type  1   force =     0.00000000    0.00000000    0.01081814
     atom    4 type  1   force =     0.00000000    0.00000000    0.01081814
     atom    5 type  1   force =     0.00000000    0.00000000   -0.01250115
     The non-local contrib.  to forces
     atom    1 type  2   force =     0.00000000    0.00000000   -0.10245306
     atom    2 type  3   force =     0.00000000    0.00000000    0.01909350
     atom    3 type  1   force =     0.00000000    0.00000000    0.16144947
     atom    4 type  1   force =     0.00000000    0.00000000    0.16144947
     atom    5 type  1   force =     0.00000000    0.00000000   -0.19089936
     The ionic contribution  to forces
     atom    1 type  2   force =     0.00000000    0.00000000    2.62834739
     atom    2 type  3   force =    -0.00000000   -0.00000000   -1.65786634
     atom    3 type  1   force =     0.00000000    0.00000000   -1.50771559
     atom    4 type  1   force =     0.00000000    0.00000000   -1.50771559
     atom    5 type  1   force =     0.00000000    0.00000000    2.04495013
     The local contribution  to forces
     atom    1 type  2   force =    -0.00000000   -0.00000000   -2.50719809
     atom    2 type  3   force =    -0.00000000   -0.00000000    1.61091199
     atom    3 type  1   force =     0.00000000   -0.00000000    1.35707975
     atom    4 type  1   force =    -0.00000000    0.00000000    1.35707975
     atom    5 type  1   force =    -0.00000000   -0.00000000   -1.86657482
     The core correction contribution to forces
     atom    1 type  2   force =     0.00000000    0.00000000    0.00000000
     atom    2 type  3   force =     0.00000000    0.00000000    0.00000000
     atom    3 type  1   force =     0.00000000    0.00000000    0.00000000
     atom    4 type  1   force =     0.00000000    0.00000000    0.00000000
     atom    5 type  1   force =     0.00000000    0.00000000    0.00000000
     The Hubbard contrib.    to forces
     atom    1 type  2   force =     0.00000000    0.00000000    0.00000000
     atom    2 type  3   force =     0.00000000    0.00000000    0.00000000
     atom    3 type  1   force =     0.00000000    0.00000000    0.00000000
     atom    4 type  1   force =     0.00000000    0.00000000    0.00000000
     atom    5 type  1   force =     0.00000000    0.00000000    0.00000000
     The SCF correction term to forces
     atom    1 type  2   force =     0.00000000    0.00000000    0.00000000
     atom    2 type  3   force =     0.00000000    0.00000000    0.00000000
     atom    3 type  1   force =    -0.00000000   -0.00000000   -0.00000362
     atom    4 type  1   force =     0.00000000   -0.00000000   -0.00000362
     atom    5 type  1   force =     0.00000000    0.00000000    0.00001476

     Total force =     0.019757     Total SCF correction =     0.000016


     Computing stress (Cartesian axis) and pressure

          total   stress  (Ry/bohr**3)                   (kbar)     P=      -15.32
  -0.00010154   0.00000000   0.00000000          -14.94        0.00        0.00
   0.00000000  -0.00010154   0.00000000            0.00      -14.94        0.00
   0.00000000   0.00000000  -0.00010934            0.00        0.00      -16.08

     Energy error            =      1.4E-03 Ry
     Gradient error          =      1.3E-02 Ry/Bohr

     number of scf cycles    =   7
     number of bfgs steps    =   6

     energy             old  =    -333.1780225633 Ry
     energy             new  =    -333.1794465829 Ry

     CASE: energy            _new < energy            _old

     new trust radius        =       0.1316149044 bohr
     new conv_thr            =       0.0000000125 Ry


ATOMIC_POSITIONS (angstrom)
Pb            0.0000000000        0.0000000000        0.0000000000    0   0   0
Ti            1.9400000000        1.9400000000        2.1646300000    0   0   0
O             0.0000000000        1.9400000000        2.1334634420
O             1.9400000000        0.0000000000        2.1334634420
O             1.9400000000        1.9400000000        0.1927262462



     Writing config-only to output data dir /home/gridsan/epan1/labutil/lab3_samples/problem2/Lab3/PbTiO3_a_3.88_ecut_30_nk_4_displ_0.05789473684210525/pwscf.save/
     NEW-OLD atomic charge density approx. for the potential

     total cpu time spent up to now is       32.5 secs

     Self-consistent Calculation

     iteration #  1     ecut=    30.00 Ry     beta= 0.70
     Davidson diagonalization with overlap
     ethr =  1.00E-06,  avg # of iterations = 10.5

     total cpu time spent up to now is       33.0 secs

     total energy              =    -333.18053931 Ry
     estimated scf accuracy    <       0.00312261 Ry

     iteration #  2     ecut=    30.00 Ry     beta= 0.70
     Davidson diagonalization with overlap
     ethr =  7.10E-06,  avg # of iterations =  3.5

     total cpu time spent up to now is       33.3 secs

     total energy              =    -333.18084379 Ry
     estimated scf accuracy    <       0.00068638 Ry

     iteration #  3     ecut=    30.00 Ry     beta= 0.70
     Davidson diagonalization with overlap
     ethr =  1.56E-06,  avg # of iterations =  4.8

     total cpu time spent up to now is       33.7 secs

     total energy              =    -333.18098170 Ry
     estimated scf accuracy    <       0.00060295 Ry

     iteration #  4     ecut=    30.00 Ry     beta= 0.70
     Davidson diagonalization with overlap
     ethr =  1.37E-06,  avg # of iterations =  4.0

     total cpu time spent up to now is       34.0 secs

     total energy              =    -333.18109309 Ry
     estimated scf accuracy    <       0.00001641 Ry

     iteration #  5     ecut=    30.00 Ry     beta= 0.70
     Davidson diagonalization with overlap
     ethr =  3.73E-08,  avg # of iterations =  6.2

     total cpu time spent up to now is       34.4 secs

     total energy              =    -333.18110645 Ry
     estimated scf accuracy    <       0.00005109 Ry

     iteration #  6     ecut=    30.00 Ry     beta= 0.70
     Davidson diagonalization with overlap
     ethr =  3.73E-08,  avg # of iterations =  4.2

     total cpu time spent up to now is       34.7 secs

     total energy              =    -333.18110781 Ry
     estimated scf accuracy    <       0.00000636 Ry

     iteration #  7     ecut=    30.00 Ry     beta= 0.70
     Davidson diagonalization with overlap
     ethr =  1.45E-08,  avg # of iterations =  4.5

     total cpu time spent up to now is       35.0 secs

     total energy              =    -333.18110978 Ry
     estimated scf accuracy    <       0.00000069 Ry

     iteration #  8     ecut=    30.00 Ry     beta= 0.70
     Davidson diagonalization with overlap
     ethr =  1.57E-09,  avg # of iterations =  2.7

     total cpu time spent up to now is       35.3 secs

     total energy              =    -333.18110966 Ry
     estimated scf accuracy    <       0.00000046 Ry

     iteration #  9     ecut=    30.00 Ry     beta= 0.70
     Davidson diagonalization with overlap
     ethr =  1.04E-09,  avg # of iterations =  4.8

     total cpu time spent up to now is       35.6 secs

     total energy              =    -333.18110978 Ry
     estimated scf accuracy    <       0.00000003 Ry

     iteration # 10     ecut=    30.00 Ry     beta= 0.70
     Davidson diagonalization with overlap
     ethr =  5.75E-11,  avg # of iterations =  3.0

     total cpu time spent up to now is       35.9 secs

     total energy              =    -333.18110978 Ry
     estimated scf accuracy    <       0.00000002 Ry

     iteration # 11     ecut=    30.00 Ry     beta= 0.70
     Davidson diagonalization with overlap
     ethr =  3.82E-11,  avg # of iterations =  4.8

     total cpu time spent up to now is       36.2 secs

     End of self-consistent calculation

          k = 0.1250 0.1250 0.1250 (  1096 PWs)   bands (ev):

   -44.7650 -21.3770 -21.3761 -21.3620  -6.4297  -5.4064  -5.3048  -3.9985
    -3.9956  -3.9792  -3.8221  -3.7775   4.6024   7.2253   7.2465   8.0470
     9.0549   9.0553   9.8038   9.8777   9.9085  10.0330

          k = 0.1250 0.1250 0.3750 (  1095 PWs)   bands (ev):

   -44.7638 -21.4182 -21.3747 -21.3737  -6.0582  -5.3026  -5.1094  -4.0452
    -3.9880  -3.9763  -3.8709  -3.7873   3.9157   6.8040   7.2953   7.7224
     8.3348   8.6962   9.2723   9.8788   9.9779  10.8129

          k = 0.1250 0.3750 0.3750 (  1093 PWs)   bands (ev):

   -44.7626 -21.4304 -21.4149 -21.3723  -5.8397  -5.1425  -4.9924  -4.0258
    -3.9846  -3.9264  -3.8309  -3.6657   3.5282   6.7084   6.7815   7.0831
     7.4182   8.5656   9.3081   9.4383  10.0440  10.6586

          k = 0.3750 0.3750 0.3750 (  1082 PWs)   bands (ev):

   -44.7612 -21.4277 -21.4275 -21.4122  -5.4154  -5.2710  -5.1763  -3.9397
    -3.9369  -3.6581  -3.5832  -3.5665   4.0347   5.8502   5.9191   6.6331
     6.9289   6.9734   8.0770  10.5474  10.6221  10.6925

          k = 0.3750-0.1250 0.1250 (  1095 PWs)   bands (ev):

   -44.7637 -21.4336 -21.3742 -21.3597  -6.0121  -5.2577  -5.2046  -4.0556
    -3.9887  -3.9744  -3.8661  -3.7645   3.8610   6.7314   7.2642   7.7816
     8.3692   8.6638   9.3091   9.8466  10.0421  10.8279

          k = 0.3750-0.3750 0.1250 (  1093 PWs)   bands (ev):

   -44.7625 -21.4307 -21.4298 -21.3578  -5.7377  -5.1608  -5.1117  -4.0261
    -3.9689  -3.8886  -3.7997  -3.6990   3.4316   6.7052   6.7540   7.1202
     7.4222   8.6362   9.3957   9.4402  10.0411  10.5893

     highest occupied level (ev):    10.8279

!    total energy              =    -333.18110978 Ry
     estimated scf accuracy    <          1.6E-10 Ry

     The total energy is the sum of the following terms:
     one-electron contribution =     -78.22479034 Ry
     hartree contribution      =      66.97262552 Ry
     xc contribution           =     -49.64866729 Ry
     ewald contribution        =    -272.28027767 Ry

     convergence has been achieved in  11 iterations

     Forces acting on atoms (cartesian axes, Ry/au):

[...]
     Davidson diagonalization with overlap
     ethr =  7.01E-08,  avg # of iterations =  4.5

     total cpu time spent up to now is       61.8 secs

     total energy              =    -333.18400606 Ry
     estimated scf accuracy    <       0.00001169 Ry

     iteration #  4     ecut=    30.00 Ry     beta= 0.70
     Davidson diagonalization with overlap
     ethr =  2.66E-08,  avg # of iterations =  4.0

     total cpu time spent up to now is       62.1 secs

     total energy              =    -333.18400808 Ry
     estimated scf accuracy    <       0.00000027 Ry

     iteration #  5     ecut=    30.00 Ry     beta= 0.70
     Davidson diagonalization with overlap
     ethr =  6.18E-10,  avg # of iterations =  5.8

     total cpu time spent up to now is       62.5 secs

     total energy              =    -333.18400833 Ry
     estimated scf accuracy    <       0.00000075 Ry

     iteration #  6     ecut=    30.00 Ry     beta= 0.70
     Davidson diagonalization with overlap
     ethr =  6.18E-10,  avg # of iterations =  3.7

     total cpu time spent up to now is       62.8 secs

     total energy              =    -333.18400834 Ry
     estimated scf accuracy    <       0.00000016 Ry

     iteration #  7     ecut=    30.00 Ry     beta= 0.70
     Davidson diagonalization with overlap
     ethr =  3.54E-10,  avg # of iterations =  4.5

     total cpu time spent up to now is       63.1 secs

     total energy              =    -333.18400838 Ry
     estimated scf accuracy    <          4.8E-09 Ry

     iteration #  8     ecut=    30.00 Ry     beta= 0.70
     Davidson diagonalization with overlap
     ethr =  1.08E-11,  avg # of iterations =  4.3

     total cpu time spent up to now is       63.4 secs

     total energy              =    -333.18400838 Ry
     estimated scf accuracy    <       0.00000001 Ry

     iteration #  9     ecut=    30.00 Ry     beta= 0.70
     Davidson diagonalization with overlap
     ethr =  1.08E-11,  avg # of iterations =  4.5

     total cpu time spent up to now is       63.7 secs

     End of self-consistent calculation

          k = 0.1250 0.1250 0.1250 (  1096 PWs)   bands (ev):

   -44.7653 -21.3928 -21.3801 -21.3797  -6.5822  -5.6077  -5.2934  -3.8985
    -3.8943  -3.8552  -3.7383  -3.5648   4.6355   7.0642   7.2011   8.0431
     8.9420   8.9625   9.5556   9.6251   9.7921  10.2066

          k = 0.1250 0.1250 0.3750 (  1095 PWs)   bands (ev):

   -44.7641 -21.4487 -21.3782 -21.3773  -6.2640  -5.5287  -5.0564  -3.9318
    -3.8754  -3.8538  -3.6982  -3.6452   3.9734   6.7995   7.0272   7.5488
     8.4385   8.5613   9.1940   9.7112   9.8233  10.8889

          k = 0.1250 0.3750 0.3750 (  1093 PWs)   bands (ev):

   -44.7628 -21.4454 -21.4333 -21.3758  -6.0230  -5.3901  -4.9782  -3.9165
    -3.8642  -3.8095  -3.6837  -3.4794   3.6012   6.4645   6.7900   6.9999
     7.3424   8.4784   9.1505   9.3652  10.1801  10.5772

          k = 0.3750 0.3750 0.3750 (  1082 PWs)   bands (ev):

   -44.7615 -21.4428 -21.4307 -21.4305  -5.6098  -5.4810  -5.1379  -3.8252
    -3.8185  -3.5824  -3.4481  -3.4012   3.8591   5.7874   5.9199   6.4994
     6.9771   7.0309   8.3857  10.3406  10.5254  10.6130

          k = 0.3750-0.1250 0.1250 (  1095 PWs)   bands (ev):

   -44.7641 -21.4369 -21.3900 -21.3776  -6.1572  -5.4727  -5.2766  -3.9411
    -3.8836  -3.8513  -3.6898  -3.5781   3.8684   6.6441   7.1793   7.7123
     8.2337   8.6612   9.2173   9.7131   9.8451  10.9164

          k = 0.3750-0.3750 0.1250 (  1093 PWs)   bands (ev):

   -44.7628 -21.4341 -21.4331 -21.3877  -5.7733  -5.3822  -5.3533  -3.9091
    -3.8403  -3.7085  -3.5819  -3.5764   3.2860   6.5897   6.6973   7.1206
     7.4977   8.6706   9.3723   9.3843  10.1594  10.3879

     highest occupied level (ev):    10.9164

!    total energy              =    -333.18400838 Ry
     estimated scf accuracy    <          4.3E-11 Ry

     The total energy is the sum of the following terms:
     one-electron contribution =     -80.39168364 Ry
     hartree contribution      =      68.06008132 Ry
     xc contribution           =     -49.69669559 Ry
     ewald contribution        =    -271.15571047 Ry

     convergence has been achieved in   9 iterations

     Forces acting on atoms (cartesian axes, Ry/au):

     atom    1 type  2   force =     0.00000000    0.00000000    0.02040131
     atom    2 type  3   force =     0.00000000    0.00000000   -0.02048098
     atom    3 type  1   force =     0.00000000    0.00000000   -0.00063910
     atom    4 type  1   force =     0.00000000    0.00000000   -0.00063910
     atom    5 type  1   force =     0.00000000    0.00000000    0.00135787
     The non-local contrib.  to forces
     atom    1 type  2   force =     0.00000000    0.00000000   -0.28310227
     atom    2 type  3   force =     0.00000000    0.00000000   -0.00147504
     atom    3 type  1   force =     0.00000000    0.00000000    0.12987080
     atom    4 type  1   force =     0.00000000    0.00000000    0.12987080
     atom    5 type  1   force =     0.00000000    0.00000000    0.18100577
     The ionic contribution  to forces
     atom    1 type  2   force =     0.00000000    0.00000000    5.44173489
     atom    2 type  3   force =    -0.00000000   -0.00000000   -1.09478612
     atom    3 type  1   force =     0.00000000   -0.00000000   -1.47571037
     atom    4 type  1   force =    -0.00000000    0.00000000   -1.47571037
     atom    5 type  1   force =    -0.00000000   -0.00000000   -1.39552802
     The local contribution  to forces
     atom    1 type  2   force =    -0.00000000   -0.00000000   -5.13823749
     atom    2 type  3   force =    -0.00000000   -0.00000000    1.07578868
     atom    3 type  1   force =     0.00000000   -0.00000000    1.34520395
     atom    4 type  1   force =    -0.00000000   -0.00000000    1.34520395
     atom    5 type  1   force =    -0.00000000   -0.00000000    1.21588256
     The core correction contribution to forces
     atom    1 type  2   force =     0.00000000    0.00000000    0.00000000
     atom    2 type  3   force =     0.00000000    0.00000000    0.00000000
     atom    3 type  1   force =     0.00000000    0.00000000    0.00000000
     atom    4 type  1   force =     0.00000000    0.00000000    0.00000000
     atom    5 type  1   force =     0.00000000    0.00000000    0.00000000
     The Hubbard contrib.    to forces
     atom    1 type  2   force =     0.00000000    0.00000000    0.00000000
     atom    2 type  3   force =     0.00000000    0.00000000    0.00000000
     atom    3 type  1   force =     0.00000000    0.00000000    0.00000000
     atom    4 type  1   force =     0.00000000    0.00000000    0.00000000
     atom    5 type  1   force =     0.00000000    0.00000000    0.00000000
     The SCF correction term to forces
     atom    1 type  2   force =     0.00000000   -0.00000000    0.00000000
     atom    2 type  3   force =     0.00000000   -0.00000000   -0.00000000
     atom    3 type  1   force =    -0.00000000    0.00000000   -0.00000109
     atom    4 type  1   force =     0.00000000    0.00000000   -0.00000109
     atom    5 type  1   force =     0.00000000    0.00000000   -0.00000005

     Total force =     0.001631     Total SCF correction =     0.000002


     Computing stress (Cartesian axis) and pressure

          total   stress  (Ry/bohr**3)                   (kbar)     P=       11.94
   0.00003701   0.00000000   0.00000000            5.44        0.00        0.00
   0.00000000   0.00003701   0.00000000            0.00        5.44        0.00
   0.00000000   0.00000000   0.00016949            0.00        0.00       24.93

     Energy error            =      9.8E-05 Ry
     Gradient error          =      1.4E-03 Ry/Bohr

     number of scf cycles    =  14
     number of bfgs steps    =  12

     energy             old  =    -333.1839099912 Ry
     energy             new  =    -333.1840083778 Ry

     CASE: energy            _new < energy            _old

     new trust radius        =       0.0043744729 bohr
     new conv_thr            =       0.0000000010 Ry


ATOMIC_POSITIONS (angstrom)
Pb            0.0000000000        0.0000000000        0.0000000000    0   0   0
Ti            1.9400000000        1.9400000000        2.1646300000    0   0   0
O             0.0000000000        1.9400000000        2.3288732573
O             1.9400000000        0.0000000000        2.3288732573
O             1.9400000000        1.9400000000        0.3449080504



     Writing config-only to output data dir /home/gridsan/epan1/labutil/lab3_samples/problem2/Lab3/PbTiO3_a_3.88_ecut_30_nk_4_displ_0.05789473684210525/pwscf.save/
     NEW-OLD atomic charge density approx. for the potential

     total cpu time spent up to now is       64.9 secs

     Self-consistent Calculation

     iteration #  1     ecut=    30.00 Ry     beta= 0.70
     Davidson diagonalization with overlap
     ethr =  1.00E-06,  avg # of iterations =  2.3

     Threshold (ethr) on eigenvalues was too large:
     Diagonalizing with lowered threshold

     Davidson diagonalization with overlap
     ethr =  5.24E-09,  avg # of iterations =  5.7

     total cpu time spent up to now is       65.5 secs

     total energy              =    -333.18401155 Ry
     estimated scf accuracy    <       0.00000465 Ry

     iteration #  2     ecut=    30.00 Ry     beta= 0.70
     Davidson diagonalization with overlap
     ethr =  1.06E-08,  avg # of iterations =  4.0

     total cpu time spent up to now is       66.1 secs

     total energy              =    -333.18401229 Ry
     estimated scf accuracy    <       0.00000241 Ry

     iteration #  3     ecut=    30.00 Ry     beta= 0.70
     Davidson diagonalization with overlap
     ethr =  5.47E-09,  avg # of iterations =  4.5

     total cpu time spent up to now is       66.4 secs

     total energy              =    -333.18401286 Ry
     estimated scf accuracy    <       0.00000088 Ry

     iteration #  4     ecut=    30.00 Ry     beta= 0.70
     Davidson diagonalization with overlap
     ethr =  1.99E-09,  avg # of iterations =  3.3

     total cpu time spent up to now is       66.7 secs

     total energy              =    -333.18401300 Ry
     estimated scf accuracy    <       0.00000002 Ry

     iteration #  5     ecut=    30.00 Ry     beta= 0.70
     Davidson diagonalization with overlap
     ethr =  5.63E-11,  avg # of iterations =  5.8

     total cpu time spent up to now is       67.1 secs

     total energy              =    -333.18401303 Ry
     estimated scf accuracy    <       0.00000007 Ry

     iteration #  6     ecut=    30.00 Ry     beta= 0.70
     Davidson diagonalization with overlap
     ethr =  5.63E-11,  avg # of iterations =  3.7

     total cpu time spent up to now is       67.4 secs

     total energy              =    -333.18401303 Ry
     estimated scf accuracy    <       0.00000002 Ry

     iteration #  7     ecut=    30.00 Ry     beta= 0.70
     Davidson diagonalization with overlap
     ethr =  3.88E-11,  avg # of iterations =  4.3

     total cpu time spent up to now is       67.8 secs

     End of self-consistent calculation

          k = 0.1250 0.1250 0.1250 (  1096 PWs)   bands (ev):

   -44.7629 -21.3914 -21.3778 -21.3773  -6.5793  -5.6048  -5.2943  -3.9005
    -3.8962  -3.8577  -3.7402  -3.5685   4.6344   7.0680   7.2018   8.0457
     8.9432   8.9620   9.5554   9.6271   9.7933  10.2044

          k = 0.1250 0.1250 0.3750 (  1095 PWs)   bands (ev):

   -44.7616 -21.4474 -21.3758 -21.3749  -6.2605  -5.5256  -5.0577  -3.9338
    -3.8775  -3.8563  -3.7004  -3.6491   3.9711   6.8006   7.0328   7.5524
     8.4345   8.5631   9.1924   9.7135   9.8256  10.8871

          k = 0.1250 0.3750 0.3750 (  1093 PWs)   bands (ev):

   -44.7604 -21.4441 -21.4310 -21.3734  -6.0201  -5.3862  -4.9789  -3.9186
    -3.8665  -3.8119  -3.6864  -3.4825   3.5998   6.4660   6.7906   7.0003
     7.3446   8.4791   9.1524   9.3638  10.1771  10.5776

          k = 0.3750 0.3750 0.3750 (  1082 PWs)   bands (ev):

   -44.7591 -21.4414 -21.4283 -21.4282  -5.6065  -5.4777  -5.1386  -3.8274
    -3.8207  -3.5847  -3.4506  -3.4039   3.8616   5.7873   5.9195   6.5017
     6.9753   7.0289   8.3809  10.3436  10.5254  10.6131

          k = 0.3750-0.1250 0.1250 (  1095 PWs)   bands (ev):

   -44.7616 -21.4346 -21.3887 -21.3752  -6.1545  -5.4693  -5.2767  -3.9433
    -3.8856  -3.8539  -3.6924  -3.5815   3.8684   6.6448   7.1796   7.7146
     8.2346   8.6601   9.2160   9.7147   9.8463  10.9148

          k = 0.3750-0.3750 0.1250 (  1093 PWs)   bands (ev):

   -44.7604 -21.4317 -21.4308 -21.3864  -5.7720  -5.3783  -5.3513  -3.9113
    -3.8427  -3.7114  -3.5847  -3.5799   3.2881   6.5912   6.6984   7.1194
     7.4955   8.6696   9.3712   9.3826  10.1572  10.3908

     highest occupied level (ev):    10.9148

!    total energy              =    -333.18401303 Ry
     estimated scf accuracy    <          5.1E-10 Ry

     The total energy is the sum of the following terms:
     one-electron contribution =     -80.37135847 Ry
     hartree contribution      =      68.05024376 Ry
     xc contribution           =     -49.69667133 Ry
     ewald contribution        =    -271.16622699 Ry

     convergence has been achieved in   7 iterations

     Forces acting on atoms (cartesian axes, Ry/au):

     atom    1 type  2   force =     0.00000000    0.00000000    0.02025988
     atom    2 type  3   force =     0.00000000    0.00000000   -0.02027080
     atom    3 type  1   force =     0.00000000    0.00000000    0.00000439
     atom    4 type  1   force =     0.00000000    0.00000000    0.00000439
     atom    5 type  1   force =     0.00000000    0.00000000    0.00000213
     The non-local contrib.  to forces
     atom    1 type  2   force =     0.00000000    0.00000000   -0.28168932
     atom    2 type  3   force =     0.00000000    0.00000000   -0.00135142
     atom    3 type  1   force =     0.00000000    0.00000000    0.13216379
     atom    4 type  1   force =     0.00000000    0.00000000    0.13216379
     atom    5 type  1   force =     0.00000000    0.00000000    0.18048945
     The ionic contribution  to forces
     atom    1 type  2   force =     0.00000000    0.00000000    5.41159637
     atom    2 type  3   force =    -0.00000000   -0.00000000   -1.04042910
     atom    3 type  1   force =     0.00000000   -0.00000000   -1.46906261
     atom    4 type  1   force =    -0.00000000    0.00000000   -1.46906261
     atom    5 type  1   force =    -0.00000000   -0.00000000   -1.43304206
     The local contribution  to forces
     atom    1 type  2   force =     0.00000000   -0.00000000   -5.10964870
     atom    2 type  3   force =    -0.00000000   -0.00000000    1.02152681
     atom    3 type  1   force =     0.00000000   -0.00000000    1.33691067
     atom    4 type  1   force =    -0.00000000   -0.00000000    1.33691067
     atom    5 type  1   force =    -0.00000000   -0.00000000    1.25254081
     The core correction contribution to forces
     atom    1 type  2   force =     0.00000000    0.00000000    0.00000000
     atom    2 type  3   force =     0.00000000    0.00000000    0.00000000
     atom    3 type  1   force =     0.00000000    0.00000000    0.00000000
     atom    4 type  1   force =     0.00000000    0.00000000    0.00000000
     atom    5 type  1   force =     0.00000000    0.00000000    0.00000000
     The Hubbard contrib.    to forces
     atom    1 type  2   force =     0.00000000    0.00000000    0.00000000
     atom    2 type  3   force =     0.00000000    0.00000000    0.00000000
     atom    3 type  1   force =     0.00000000    0.00000000    0.00000000
     atom    4 type  1   force =     0.00000000    0.00000000    0.00000000
     atom    5 type  1   force =     0.00000000    0.00000000    0.00000000
     The SCF correction term to forces
     atom    1 type  2   force =    -0.00000000   -0.00000000    0.00000000
     atom    2 type  3   force =     0.00000000   -0.00000000   -0.00000000
     atom    3 type  1   force =    -0.00000000   -0.00000000   -0.00000615
     atom    4 type  1   force =     0.00000000    0.00000000   -0.00000615
     atom    5 type  1   force =    -0.00000000   -0.00000000    0.00001525

     Total force =     0.000007     Total SCF correction =     0.000018
     SCF correction compared to forces is large: reduce conv_thr to get better values


     Computing stress (Cartesian axis) and pressure

          total   stress  (Ry/bohr**3)                   (kbar)     P=       11.98
   0.00003674   0.00000000   0.00000000            5.40        0.00        0.00
   0.00000000   0.00003674   0.00000000            0.00        5.40        0.00
   0.00000000   0.00000000   0.00017087            0.00        0.00       25.14

     Energy error            =      4.7E-06 Ry
     Gradient error          =      4.4E-06 Ry/Bohr

     bfgs converged in  15 scf cycles and  13 bfgs steps
     (criteria: energy <  1.0E-04 Ry, force <  1.0E-03 Ry/Bohr)

     End of BFGS Geometry Optimization

     Final energy             =    -333.1840130281 Ry

     File /home/gridsan/epan1/labutil/lab3_samples/problem2/Lab3/PbTiO3_a_3.88_ecut_30_nk_4_displ_0.05789473684210525/pwscf.bfgs deleted, as requested
Begin final coordinates

ATOMIC_POSITIONS (angstrom)
Pb            0.0000000000        0.0000000000        0.0000000000    0   0   0
Ti            1.9400000000        1.9400000000        2.1646300000    0   0   0
O             0.0000000000        1.9400000000        2.3288732573
O             1.9400000000        0.0000000000        2.3288732573
O             1.9400000000        1.9400000000        0.3449080504
End final coordinates



     init_run     :      0.73s CPU      0.70s WALL (       1 calls)
     electrons    :     60.03s CPU     49.53s WALL (      15 calls)
     update_pot   :      0.51s CPU      0.49s WALL (      14 calls)
     forces       :      2.13s CPU      1.68s WALL (      15 calls)
     stress       :     15.82s CPU     13.44s WALL (      15 calls)

     Called by init_run:
     wfcinit      :      0.11s CPU      0.08s WALL (       1 calls)
     potinit      :      0.03s CPU      0.04s WALL (       1 calls)
     hinit0       :      0.46s CPU      0.47s WALL (       1 calls)

     Called by electrons:
     c_bands      :     34.91s CPU     27.44s WALL (     146 calls)
     sum_band     :     15.00s CPU     13.24s WALL (     146 calls)
     v_of_rho     :      0.53s CPU      0.51s WALL (     160 calls)
     newd         :      9.55s CPU      8.25s WALL (     160 calls)
     mix_rho      :      0.33s CPU      0.30s WALL (     146 calls)

     Called by c_bands:
     init_us_2    :      1.02s CPU      0.82s WALL (    1938 calls)
     init_us_2:cp :      1.02s CPU      0.82s WALL (    1938 calls)
     cegterg      :     32.27s CPU     25.07s WALL (     876 calls)

     Called by *egterg:
     cdiaghg      :      5.66s CPU      4.29s WALL (    4717 calls)
     h_psi        :     21.43s CPU     16.92s WALL (    4813 calls)
     s_psi        :      0.94s CPU      0.72s WALL (    4813 calls)
     g_psi        :      0.23s CPU      0.17s WALL (    3931 calls)

     Called by h_psi:
     h_psi:calbec :      1.31s CPU      1.04s WALL (    4813 calls)
     vloc_psi     :     19.01s CPU     15.02s WALL (    4813 calls)
     add_vuspsi   :      0.97s CPU      0.75s WALL (    4813 calls)

     General routines
     calbec       :      1.76s CPU      1.40s WALL (    6139 calls)
     fft          :      0.96s CPU      0.83s WALL (    1020 calls)
     ffts         :      0.09s CPU      0.08s WALL (     306 calls)
     fftw         :     17.94s CPU     14.23s WALL (  142168 calls)
     interpolate  :      0.20s CPU      0.17s WALL (     160 calls)

     Parallel routines

     PWSCF        :   1m20.80s CPU   1m 8.89s WALL


   This run was terminated on:  18:11:26   2Nov2023            

=------------------------------------------------------------------------------=
   JOB DONE.
=------------------------------------------------------------------------------=
