LAMMPS (29 Oct 2020)
Reading data file ...
  orthogonal box = (0.0000000 0.0000000 0.0000000) to (36.810000 36.810000 36.810000)
  1 by 1 by 1 MPI processor grid
  reading atoms ...
  2916 atoms
  read_data CPU = 0.003 seconds
Reading eam potential file /home/gridsan/epan1/3320_atomistic_shared/lammps/potentials/Ag_u3.eam with DATE: 2007-06-11
WARNING: Using 'neigh_modify every 1 delay 0 check yes' setting during minimization (../min.cpp:187)
Neighbor list info ...
  update every 1 steps, delay 0 steps, check yes
  max neighbors/atom: 2000, page size: 100000
  master list distance cutoff = 7.55
  ghost atom cutoff = 7.55
  binsize = 3.775, bins = 10 10 10
  1 neighbor lists, perpetual/occasional/extra = 1 0 0
  (1) pair eam, perpetual
      attributes: half, newton on
      pair build: half/bin/atomonly/newton
      stencil: half/bin/3d/newton
      bin: standard
Setting up cg style minimization ...
  Unit style    : metal
  Current step  : 0
WARNING: Energy due to 1 extra global DOFs will be included in minimizer energies
Per MPI rank memory allocation (min/avg/max) = 5.043 | 5.043 | 5.043 Mbytes
Step PotEng Lx Ly Lz Press Pxx Pyy Pzz 
       0      -8310.6        36.81        36.81        36.81 -0.058146225 -0.058146225 -0.058146225 -0.058146225 
       1      -8310.6    36.809999    36.809999    36.809999 -0.00033946182 -0.00033946183 -0.00033946182 -0.00033946182 
Loop time of 0.020045 on 1 procs for 1 steps with 2916 atoms

99.9% CPU use with 1 MPI tasks x no OpenMP threads

Minimization stats:
  Stopping criterion = energy tolerance
  Energy initial, next-to-last, final = 
     -8310.60000454702  -8310.60000454702  -8310.60000458889
  Force two-norm initial, final = 0.0054303757 3.1702920e-05
  Force max component initial, final = 0.0054303757 3.1702920e-05
  Final line search alpha, max atom move = 0.18414932 5.8380713e-06
  Iterations, force evaluations = 1 2

MPI task timing breakdown:
Section |  min time  |  avg time  |  max time  |%varavg| %total
---------------------------------------------------------------
Pair    | 0.019361   | 0.019361   | 0.019361   |   0.0 | 96.59
Neigh   | 0          | 0          | 0          |   0.0 |  0.00
Comm    | 0.00010633 | 0.00010633 | 0.00010633 |   0.0 |  0.53
Output  | 0          | 0          | 0          |   0.0 |  0.00
Modify  | 0          | 0          | 0          |   0.0 |  0.00
Other   |            | 0.0005777  |            |       |  2.88

Nlocal:        2916.00 ave        2916 max        2916 min
Histogram: 1 0 0 0 0 0 0 0 0 0
Nghost:        4896.00 ave        4896 max        4896 min
Histogram: 1 0 0 0 0 0 0 0 0 0
Neighs:       125388.0 ave      125388 max      125388 min
Histogram: 1 0 0 0 0 0 0 0 0 0

Total # of neighbors = 125388
Ave neighs/atom = 43.000000
Neighbor list builds = 0
Dangerous builds = 0
Total energy (eV) = -8310.60000458889
Number of atoms = 2916
Lattice constant (Angstoms) = 36.8099993162835
Total wall time: 0:00:00
