
     Program PWSCF v.7.2 starts on  1Nov2023 at 16:42: 7 

     This program is part of the open-source Quantum ESPRESSO suite
     for quantum simulation of materials; please cite
         "P. Giannozzi et al., J. Phys.:Condens. Matter 21 395502 (2009);
         "P. Giannozzi et al., J. Phys.:Condens. Matter 29 465901 (2017);
         "P. Giannozzi et al., J. Chem. Phys. 152 154105 (2020);
          URL http://www.quantum-espresso.org", 
     in publications or presentations arising from this work. More details at
     http://www.quantum-espresso.org/quote

     Parallel version (MPI), running on     4 processors

     MPI processes distributed on     4 nodes
     185276 MiB available memory on the printing compute node when the environment starts

     Waiting for input...
     Reading input from standard input
Warning: card &CELL ignored
Warning: card / ignored

     Current dimensions of program PWSCF are:
     Max number of different atomic species (ntypx) = 10
     Max number of k-points (npk) =  40000
     Max angular momentum in pseudopotentials (lmaxx) =  4
     file Fe.pbe-nd-rrkjus.UPF: wavefunction(s)  4S renormalized
     Message from routine setup:
     using ibrav=0 with symmetry is DISCOURAGED, use correct ibrav instead

     R & G space division:  proc/nbgrp/npool/nimage =       4
     Subspace diagonalization in iterative solution of the eigenvalue problem:
     a serial algorithm will be used


     Parallelization info
     --------------------
     sticks:   dense  smooth     PW     G-vecs:    dense   smooth      PW
     Min         164      83     25                 2690      951     170
     Max         165      84     26                 2691      952     171
     Sum         657     333    103                10761     3805     683

     Using Slab Decomposition



     bravais-lattice index     =            0
     lattice parameter (alat)  =       6.0552  a.u.
     unit-cell volume          =     170.9117 (a.u.)^3
     number of atoms/cell      =            1
     number of atomic types    =            1
     number of electrons       =         8.00
     number of Kohn-Sham states=            8
     kinetic-energy cutoff     =      30.0000  Ry
     charge density cutoff     =     240.0000  Ry
     scf convergence threshold =      1.0E-07
     mixing beta               =       0.5000
     number of iterations used =            8  plain     mixing
     Exchange-correlation=  SLA  PW   PBE  PBE
                           (   1   4   3   4   0   0   0)

     celldm(1)=   6.055238  celldm(2)=   0.000000  celldm(3)=   0.000000
     celldm(4)=   0.000000  celldm(5)=   0.000000  celldm(6)=   0.000000

     crystal axes: (cart. coord. in units of alat)
               a(1) = (  -0.577350   0.577350   0.577350 )  
               a(2) = (   0.577350  -0.577350   0.577350 )  
               a(3) = (   0.577350   0.577350  -0.577350 )  

     reciprocal axes: (cart. coord. in units 2 pi/alat)
               b(1) = (  0.000000  0.866025  0.866025 )  
               b(2) = (  0.866025  0.000000  0.866025 )  
               b(3) = (  0.866025  0.866025  0.000000 )  


     PseudoPot. # 1 for Fe read from file:
     /home/gridsan/epan1/labutil/lab3_samples/pseudopotentials/Fe.pbe-nd-rrkjus.UPF
     MD5 check sum: 398036227a04b607635f6f5e8dfd8242
     Pseudo is Ultrasoft + core correction, Zval =  8.0
     Generated by new atomic code, or converted to UPF format
     Using radial grid of  957 points,  6 beta functions with: 
                l(1) =   0
                l(2) =   0
                l(3) =   1
                l(4) =   1
                l(5) =   2
                l(6) =   2
     Q(r) pseudized with 0 coefficients 


     atomic species   valence    mass     pseudopotential
        Fe             8.00    55.84500     Fe( 1.00)

     Starting magnetic structure 
     atomic species   magnetization
        Fe           0.700

     48 Sym. Ops., with inversion, found



   Cartesian axes

     site n.     atom                  positions (alat units)
         1           Fe  tau(   1) = (   0.0000000   0.0000000   0.0000000  )

     number of k points=    20  Methfessel-Paxton smearing, width (Ry)=  0.0200
                       cart. coord. in units 2pi/alat
        k(    1) = (   0.0000000   0.0000000   0.0000000), wk =   0.0029155
        k(    2) = (   0.1237179   0.1237179   0.0000000), wk =   0.0349854
        k(    3) = (   0.2474358   0.2474358   0.0000000), wk =   0.0349854
        k(    4) = (   0.3711537   0.3711537   0.0000000), wk =   0.0349854
        k(    5) = (   0.2474358   0.1237179   0.1237179), wk =   0.0699708
        k(    6) = (   0.3711537   0.2474358   0.1237179), wk =   0.1399417
        k(    7) = (   0.4948717   0.3711537   0.1237179), wk =   0.0699708
        k(    8) = (   0.4948717   0.2474358   0.2474358), wk =   0.0699708
        k(    9) = (   0.2474358   0.2474358   0.2474358), wk =   0.0233236
        k(   10) = (   0.3711537   0.3711537   0.2474358), wk =   0.0699708
        k(   11) = (  -0.0000000  -0.0000000   0.2474358), wk =   0.0174927
        k(   12) = (   0.4948717   0.3711537   0.3711537), wk =   0.0233236
        k(   13) = (   0.0000000  -0.1237179   0.3711537), wk =   0.0699708
        k(   14) = (  -0.0000000  -0.2474358   0.4948717), wk =   0.0699708
        k(   15) = (   0.1237179  -0.1237179   0.4948717), wk =   0.0699708
        k(   16) = (  -0.7423075  -0.2474358  -0.2474358), wk =   0.0699708
        k(   17) = (   0.0000000   0.0000000   0.4948717), wk =   0.0174927
        k(   18) = (  -0.0000000  -0.1237179   0.6185896), wk =   0.0699708
        k(   19) = (  -0.7423075  -0.1237179  -0.1237179), wk =   0.0233236
        k(   20) = (  -0.0000000  -0.0000000   0.7423075), wk =   0.0174927

     Dense  grid:    10761 G-vectors     FFT dimensions: (  30,  30,  30)

     Smooth grid:     3805 G-vectors     FFT dimensions: (  24,  24,  24)

     Estimated max dynamical RAM per process >      12.87 MB

     Estimated total dynamical RAM >      51.50 MB

     Check: negative core charge=   -0.000005
     Generating pointlists ...
     new r_m :   0.4125 (alat units)  2.4978 (a.u.) for type    1

     Initial potential from superposition of free atoms

     starting charge       7.9994, renormalised to       8.0000
     Starting wfcs are    6 randomized atomic wfcs +    2 random wfcs

     total cpu time spent up to now is        0.5 secs

     Self-consistent Calculation

     iteration #  1     ecut=    30.00 Ry     beta= 0.50
     Davidson diagonalization with overlap
     ethr =  1.00E-02,  avg # of iterations =  5.0

     total cpu time spent up to now is        0.7 secs

     total energy              =     -55.43921072 Ry
     estimated scf accuracy    <       0.47538260 Ry

     total magnetization       =     4.13 Bohr mag/cell
     absolute magnetization    =     4.13 Bohr mag/cell

     iteration #  2     ecut=    30.00 Ry     beta= 0.50
     Davidson diagonalization with overlap
     ethr =  5.94E-03,  avg # of iterations =  2.0

     total cpu time spent up to now is        0.9 secs

     total energy              =     -55.58795660 Ry
     estimated scf accuracy    <       0.46488698 Ry

     total magnetization       =     3.01 Bohr mag/cell
     absolute magnetization    =     3.03 Bohr mag/cell

     iteration #  3     ecut=    30.00 Ry     beta= 0.50
     Davidson diagonalization with overlap
     ethr =  5.81E-03,  avg # of iterations =  1.0

     total cpu time spent up to now is        1.1 secs

     total energy              =     -55.65545972 Ry
     estimated scf accuracy    <       0.00890838 Ry

     total magnetization       =     3.36 Bohr mag/cell
     absolute magnetization    =     3.43 Bohr mag/cell

     iteration #  4     ecut=    30.00 Ry     beta= 0.50
     Davidson diagonalization with overlap
     ethr =  1.11E-04,  avg # of iterations =  3.7

     total cpu time spent up to now is        1.3 secs

     total energy              =     -55.66198557 Ry
     estimated scf accuracy    <       0.00548266 Ry

     total magnetization       =     3.22 Bohr mag/cell
     absolute magnetization    =     3.48 Bohr mag/cell

     iteration #  5     ecut=    30.00 Ry     beta= 0.50
     Davidson diagonalization with overlap
     ethr =  6.85E-05,  avg # of iterations =  1.6

     total cpu time spent up to now is        1.4 secs

     total energy              =     -55.66339357 Ry
     estimated scf accuracy    <       0.00028270 Ry

     total magnetization       =     3.16 Bohr mag/cell
     absolute magnetization    =     3.44 Bohr mag/cell

     iteration #  6     ecut=    30.00 Ry     beta= 0.50
     Davidson diagonalization with overlap
     ethr =  3.53E-06,  avg # of iterations =  5.6

     total cpu time spent up to now is        1.7 secs

     total energy              =     -55.66366138 Ry
     estimated scf accuracy    <       0.00018657 Ry

     total magnetization       =     3.17 Bohr mag/cell
     absolute magnetization    =     3.47 Bohr mag/cell

     iteration #  7     ecut=    30.00 Ry     beta= 0.50
     Davidson diagonalization with overlap
     ethr =  2.33E-06,  avg # of iterations =  1.7

     total cpu time spent up to now is        1.8 secs

     total energy              =     -55.66378856 Ry
     estimated scf accuracy    <       0.00002327 Ry

     total magnetization       =     3.16 Bohr mag/cell
     absolute magnetization    =     3.47 Bohr mag/cell

     iteration #  8     ecut=    30.00 Ry     beta= 0.50
     Davidson diagonalization with overlap
     ethr =  2.91E-07,  avg # of iterations =  1.9

     total cpu time spent up to now is        2.0 secs

     total energy              =     -55.66379447 Ry
     estimated scf accuracy    <       0.00000579 Ry

     total magnetization       =     3.16 Bohr mag/cell
     absolute magnetization    =     3.47 Bohr mag/cell

     iteration #  9     ecut=    30.00 Ry     beta= 0.50
     Davidson diagonalization with overlap
     ethr =  7.24E-08,  avg # of iterations =  2.3

     total cpu time spent up to now is        2.2 secs

     total energy              =     -55.66379619 Ry
     estimated scf accuracy    <       0.00000046 Ry

     total magnetization       =     3.16 Bohr mag/cell
     absolute magnetization    =     3.47 Bohr mag/cell

     iteration # 10     ecut=    30.00 Ry     beta= 0.50
     Davidson diagonalization with overlap
     ethr =  5.78E-09,  avg # of iterations =  5.0

     Magnetic moment per site  (integrated on atomic sphere of radius R)
     atom   1 (R=0.413)  charge=  6.9393  magn=  3.3061

     total cpu time spent up to now is        2.5 secs

     End of self-consistent calculation

 ------ SPIN UP ------------


          k = 0.0000 0.0000 0.0000 (   459 PWs)   bands (ev):

    -0.8907   1.5127   1.5127   1.5127   1.7300   1.7300  20.1895  20.1895

          k = 0.1237 0.1237 0.0000 (   471 PWs)   bands (ev):

    -0.4295   1.4640   1.5165   1.6347   1.6997   1.7327  16.2156  18.2286

          k = 0.2474 0.2474 0.0000 (   479 PWs)   bands (ev):

     0.6332   1.3559   1.6721   1.7427   1.8217   1.9275  11.3564  16.0660

          k = 0.3712 0.3712 0.0000 (   476 PWs)   bands (ev):

     0.8643   1.2706   1.7542   1.7632   2.1839   3.7720   7.2505  14.8351

          k = 0.2474 0.1237 0.1237 (   469 PWs)   bands (ev):

     0.3941   1.4255   1.4385   1.6848   1.7639   1.9374  13.7592  14.2526

          k = 0.3712 0.2474 0.1237 (   476 PWs)   bands (ev):

     1.0035   1.3219   1.6170   1.7549   1.9012   3.0647   9.4908  12.5994

          k = 0.4949 0.3712 0.1237 (   478 PWs)   bands (ev):

     0.9843   1.2881   1.6737   1.7723   2.0789   5.4138   6.1398  12.0794

          k = 0.4949 0.2474 0.2474 (   474 PWs)   bands (ev):

     1.1798   1.3207   1.5044   1.8150   1.9241   5.3482   8.3205   8.7989

          k = 0.2474 0.2474 0.2474 (   477 PWs)   bands (ev):

     1.2043   1.3243   1.3243   1.7465   1.7465   2.8305  11.5797  12.5344

          k = 0.3712 0.3712 0.2474 (   487 PWs)   bands (ev):

     1.1909   1.2799   1.6909   1.7598   1.7751   4.9185   8.0771  10.9911

          k =-0.0000-0.0000 0.2474 (   478 PWs)   bands (ev):

     0.0118   1.5470   1.5470   1.5808   1.6347   1.8028  16.2544  16.2545

          k = 0.4949 0.3712 0.3712 (   469 PWs)   bands (ev):

     1.2590   1.4597   1.4597   1.7797   1.7797   7.3125   7.8269   7.8269

          k = 0.0000-0.1237 0.3712 (   471 PWs)   bands (ev):

     0.9093   1.4275   1.4845   1.6993   1.9057   2.2221  11.7577  14.2831

          k =-0.0000-0.2474 0.4949 (   470 PWs)   bands (ev):

     1.0023   1.4130   1.4871   1.7373   2.1695   4.3067   7.6553  13.1686

          k = 0.1237-0.1237 0.4949 (   472 PWs)   bands (ev):

     1.1841   1.2381   1.5301   1.7810   2.0280   3.8820  10.1039  10.5883

          k =-0.7423-0.2474-0.2474 (   469 PWs)   bands (ev):

     1.1269   1.3057   1.4423   1.8605   2.1130   6.5815   6.7480   9.8585

          k = 0.0000 0.0000 0.4949 (   466 PWs)   bands (ev):

     1.1455   1.2221   1.7493   1.7493   1.9076   3.3703  12.3048  12.3049

          k =-0.0000-0.1237 0.6186 (   473 PWs)   bands (ev):

     1.0520   1.1225   1.7672   1.8635   2.1374   5.6506   8.8648  11.1670

          k =-0.7423-0.1237-0.1237 (   472 PWs)   bands (ev):

     1.0144   1.0144   1.8001   2.0976   2.0976   8.1072   8.4675   8.4675

          k =-0.0000-0.0000 0.7423 (   482 PWs)   bands (ev):

     0.9126   0.9227   2.0861   2.0861   2.1235   7.7788   9.9818   9.9818

 ------ SPIN DOWN ----------


          k = 0.0000 0.0000 0.0000 (   459 PWs)   bands (ev):

    -0.8180   4.6715   4.6715   4.6715   5.5340   5.5340  20.9190  20.9194

          k = 0.1237 0.1237 0.0000 (   471 PWs)   bands (ev):

    -0.3502   4.5854   4.6477   4.8374   5.4579   5.5406  16.6860  19.0348

          k = 0.2474 0.2474 0.0000 (   479 PWs)   bands (ev):

     0.9816   4.3968   4.5241   5.2501   5.3948   5.5661  11.9806  16.7257

          k = 0.3712 0.3712 0.0000 (   476 PWs)   bands (ev):

     2.6664   4.2502   4.5605   5.4204   5.5973   5.6328   8.3658  15.3603

          k = 0.2474 0.1237 0.1237 (   469 PWs)   bands (ev):

     0.5547   4.4835   4.5109   5.1603   5.3701   5.5755  14.3792  14.6439

          k = 0.3712 0.2474 0.1237 (   476 PWs)   bands (ev):

     2.1602   4.3001   4.3677   5.3751   5.5597   5.7279  10.2121  13.0967

          k = 0.4949 0.3712 0.1237 (   478 PWs)   bands (ev):

     3.2495   4.2304   4.4084   5.4131   5.5998   6.3351   7.6914  12.5607

          k = 0.4949 0.2474 0.2474 (   474 PWs)   bands (ev):

     3.5182   4.1350   4.2465   5.4285   5.5447   6.7996   9.0816   9.5178

          k = 0.2474 0.2474 0.2474 (   477 PWs)   bands (ev):

     1.8062   4.2714   4.2714   5.5250   5.5250   5.7049  12.2327  12.9684

          k = 0.3712 0.3712 0.2474 (   487 PWs)   bands (ev):

     3.3128   4.1298   4.1581   5.5293   5.6017   6.5600   8.8815  11.5382

          k =-0.0000-0.0000 0.2474 (   478 PWs)   bands (ev):

     0.1103   4.6717   4.6717   4.8458   5.2477   5.6186  16.8426  16.8428

          k = 0.4949 0.3712 0.3712 (   469 PWs)   bands (ev):

     3.9349   4.0557   4.0557   5.5943   5.5943   8.2588   8.6045   8.6045

          k = 0.0000-0.1237 0.3712 (   471 PWs)   bands (ev):

     1.4121   4.5598   4.5773   5.1212   5.2179   5.6613  12.3591  14.8409

          k =-0.0000-0.2474 0.4949 (   470 PWs)   bands (ev):

     3.0246   4.3714   4.4375   5.2326   5.6113   5.9939   8.6271  13.6530

          k = 0.1237-0.1237 0.4949 (   472 PWs)   bands (ev):

     2.8580   4.3413   4.5823   5.1373   5.4667   5.9892  10.7470  11.1848

          k =-0.7423-0.2474-0.2474 (   469 PWs)   bands (ev):

     3.8106   4.1565   4.4332   5.2522   5.5513   7.3914   7.9531  10.4555

          k = 0.0000 0.0000 0.4949 (   466 PWs)   bands (ev):

     2.5595   4.5557   4.8917   4.8917   5.2380   5.7885  12.7998  12.7998

          k =-0.0000-0.1237 0.6186 (   473 PWs)   bands (ev):

     3.6976   4.1759   4.9362   5.0824   5.5641   6.7688   9.5179  11.5584

          k =-0.7423-0.1237-0.1237 (   472 PWs)   bands (ev):

     4.0085   4.0085   4.9133   5.4829   5.4829   8.8481   8.9994   8.9994

          k =-0.0000-0.0000 0.7423 (   482 PWs)   bands (ev):

     3.8766   3.9711   5.4507   5.4507   5.5502   8.2928  10.2034  10.2034

     the Fermi energy is     4.5038 ev

!    total energy              =     -55.66379688 Ry
     estimated scf accuracy    <          6.3E-09 Ry
     smearing contrib. (-TS)   =      -0.00094416 Ry
     internal energy E=F+TS    =     -55.66285273 Ry

     The total energy is F=E-TS. E is the sum of the following terms:
     one-electron contribution =      -7.28461080 Ry
     hartree contribution      =      11.17281478 Ry
     xc contribution           =     -26.23993182 Ry
     ewald contribution        =     -33.31112488 Ry

     total magnetization       =     3.16 Bohr mag/cell
     absolute magnetization    =     3.47 Bohr mag/cell

     convergence has been achieved in  10 iterations

     Forces acting on atoms (cartesian axes, Ry/au):

     atom    1 type  1   force =     0.00000000    0.00000000    0.00000000
     The non-local contrib.  to forces
     atom    1 type  1   force =    -0.00000000   -0.00000000    0.00000000
     The ionic contribution  to forces
     atom    1 type  1   force =    -0.00000000   -0.00000000   -0.00000000
     The local contribution  to forces
     atom    1 type  1   force =     0.00000000    0.00000000    0.00000000
     The core correction contribution to forces
     atom    1 type  1   force =     0.00000000    0.00000000    0.00000000
     The Hubbard contrib.    to forces
     atom    1 type  1   force =     0.00000000    0.00000000    0.00000000
     The SCF correction term to forces
     atom    1 type  1   force =    -0.00000000   -0.00000000   -0.00000000

     Total force =     0.000000     Total SCF correction =     0.000000


     Computing stress (Cartesian axis) and pressure

          total   stress  (Ry/bohr**3)                   (kbar)     P=     -222.93
  -0.00151548  -0.00000000   0.00000000         -222.93       -0.00        0.00
   0.00000000  -0.00151548   0.00000000            0.00     -222.93        0.00
   0.00000000   0.00000000  -0.00151548            0.00        0.00     -222.93


     init_run     :      0.34s CPU      0.34s WALL (       1 calls)
     electrons    :      1.89s CPU      2.00s WALL (       1 calls)
     forces       :      0.03s CPU      0.03s WALL (       1 calls)
     stress       :      0.17s CPU      0.14s WALL (       1 calls)

     Called by init_run:
     wfcinit      :      0.04s CPU      0.04s WALL (       1 calls)
     potinit      :      0.13s CPU      0.13s WALL (       1 calls)
     hinit0       :      0.15s CPU      0.16s WALL (       1 calls)

     Called by electrons:
     c_bands      :      1.43s CPU      1.55s WALL (      10 calls)
     sum_band     :      0.29s CPU      0.30s WALL (      10 calls)
     v_of_rho     :      0.10s CPU      0.09s WALL (      11 calls)
     newd         :      0.06s CPU      0.06s WALL (      11 calls)
     mix_rho      :      0.01s CPU      0.01s WALL (      10 calls)

     Called by c_bands:
     init_us_2    :      0.04s CPU      0.04s WALL (     920 calls)
     init_us_2:cp :      0.04s CPU      0.04s WALL (     920 calls)
     cegterg      :      1.30s CPU      1.29s WALL (     400 calls)

     Called by *egterg:
     cdiaghg      :      0.15s CPU      0.15s WALL (    1592 calls)
     h_psi        :      1.00s CPU      0.99s WALL (    1632 calls)
     s_psi        :      0.02s CPU      0.02s WALL (    1632 calls)
     g_psi        :      0.00s CPU      0.00s WALL (    1192 calls)

     Called by h_psi:
     h_psi:calbec :      0.06s CPU      0.06s WALL (    1632 calls)
     vloc_psi     :      0.91s CPU      0.91s WALL (    1632 calls)
     add_vuspsi   :      0.02s CPU      0.02s WALL (    1632 calls)

     General routines
     calbec       :      0.08s CPU      0.08s WALL (    2232 calls)
     fft          :      0.14s CPU      0.14s WALL (     313 calls)
     ffts         :      0.12s CPU      0.12s WALL (      42 calls)
     fftw         :      0.95s CPU      0.95s WALL (   20424 calls)
     interpolate  :      0.12s CPU      0.12s WALL (      22 calls)

     Parallel routines

     PWSCF        :      2.55s CPU      2.66s WALL


   This run was terminated on:  16:42:10   1Nov2023            

=------------------------------------------------------------------------------=
   JOB DONE.
=------------------------------------------------------------------------------=
