
     Program PWSCF v.7.2 starts on  3Nov2023 at 10:53:38 

     This program is part of the open-source Quantum ESPRESSO suite
     for quantum simulation of materials; please cite
         "P. Giannozzi et al., J. Phys.:Condens. Matter 21 395502 (2009);
         "P. Giannozzi et al., J. Phys.:Condens. Matter 29 465901 (2017);
         "P. Giannozzi et al., J. Chem. Phys. 152 154105 (2020);
          URL http://www.quantum-espresso.org", 
     in publications or presentations arising from this work. More details at
     http://www.quantum-espresso.org/quote

     Parallel version (MPI), running on     8 processors

     MPI processes distributed on     8 nodes
     185901 MiB available memory on the printing compute node when the environment starts

     Waiting for input...
     Reading input from standard input

     Current dimensions of program PWSCF are:
     Max number of different atomic species (ntypx) = 10
     Max number of k-points (npk) =  40000
     Max angular momentum in pseudopotentials (lmaxx) =  4
     file Cu.pz-d-rrkjus.UPF: wavefunction(s)  3D renormalized
     Message from routine setup:
     using ibrav=0 with symmetry is DISCOURAGED, use correct ibrav instead

     R & G space division:  proc/nbgrp/npool/nimage =       8
     Subspace diagonalization in iterative solution of the eigenvalue problem:
     a serial algorithm will be used


     Parallelization info
     --------------------
     sticks:   dense  smooth     PW     G-vecs:    dense   smooth      PW
     Min          59      30     10                  858      305      65
     Max          60      31     11                  861      308      68
     Sum         475     241     85                 6879     2445     531

     Using Slab Decomposition



     bravais-lattice index     =            0
     lattice parameter (alat)  =       4.6768  a.u.
     unit-cell volume          =      72.3337 (a.u.)^3
     number of atoms/cell      =            1
     number of atomic types    =            1
     number of electrons       =        11.00
     number of Kohn-Sham states=           10
     kinetic-energy cutoff     =      40.0000  Ry
     charge density cutoff     =     320.0000  Ry
     scf convergence threshold =      1.0E-07
     mixing beta               =       0.5000
     number of iterations used =            8  plain     mixing
     energy convergence thresh.=      1.0E-04
     force convergence thresh. =      1.0E-03
     press convergence thresh. =      5.0E-01
     Exchange-correlation=  SLA  PZ   NOGX NOGC
                           (   1   1   0   0   0   0   0)
     nstep                     =           50


     celldm(1)=   4.676834  celldm(2)=   0.000000  celldm(3)=   0.000000
     celldm(4)=   0.000000  celldm(5)=   0.000000  celldm(6)=   0.000000

     crystal axes: (cart. coord. in units of alat)
               a(1) = (   0.000000   0.707107   0.707107 )  
               a(2) = (   0.707107   0.000000   0.707107 )  
               a(3) = (   0.707107   0.707107   0.000000 )  

     reciprocal axes: (cart. coord. in units 2 pi/alat)
               b(1) = ( -0.707107  0.707107  0.707107 )  
               b(2) = (  0.707107 -0.707107  0.707107 )  
               b(3) = (  0.707107  0.707107 -0.707107 )  


     PseudoPot. # 1 for Cu read from file:
     /home/gridsan/epan1/labutil/lab3_samples/pseudopotentials/Cu.pz-d-rrkjus.UPF
     MD5 check sum: fd38ae683e239c95a66f426e1f8e5fc7
     Pseudo is Ultrasoft, Zval = 11.0
     Generated by new atomic code, or converted to UPF format
     Using radial grid of  899 points,  3 beta functions with: 
                l(1) =   2
                l(2) =   2
                l(3) =   1
     Q(r) pseudized with 0 coefficients 


     atomic species   valence    mass     pseudopotential
        Cu            11.00    63.54600     Cu( 1.00)

     Starting magnetic structure 
     atomic species   magnetization
        Cu           0.700

     48 Sym. Ops., with inversion, found



   Cartesian axes

     site n.     atom                  positions (alat units)
         1           Cu  tau(   1) = (   0.0000000   0.0000000   0.0000000  )

     number of k points=    29  Methfessel-Paxton smearing, width (Ry)=  0.0200
                       cart. coord. in units 2pi/alat
        k(    1) = (   0.0000000   0.0000000   0.0000000), wk =   0.0019531
        k(    2) = (   0.0883883   0.0883883  -0.0883883), wk =   0.0156250
        k(    3) = (   0.1767767   0.1767767  -0.1767767), wk =   0.0156250
        k(    4) = (   0.2651650   0.2651650  -0.2651650), wk =   0.0156250
        k(    5) = (  -0.3535534  -0.3535534   0.3535534), wk =   0.0078125
        k(    6) = (   0.1767767   0.0000000   0.0000000), wk =   0.0117188
        k(    7) = (   0.2651650   0.0883883  -0.0883883), wk =   0.0468750
        k(    8) = (   0.3535534   0.1767767  -0.1767767), wk =   0.0468750
        k(    9) = (  -0.2651650  -0.4419417   0.4419417), wk =   0.0468750
        k(   10) = (  -0.1767767  -0.3535534   0.3535534), wk =   0.0468750
        k(   11) = (  -0.0883883  -0.2651650   0.2651650), wk =   0.0468750
        k(   12) = (   0.0000000  -0.1767767   0.1767767), wk =   0.0234375
        k(   13) = (   0.3535534   0.0000000   0.0000000), wk =   0.0117188
        k(   14) = (   0.4419417   0.0883883  -0.0883883), wk =   0.0468750
        k(   15) = (  -0.1767767  -0.5303301   0.5303301), wk =   0.0468750
        k(   16) = (  -0.0883883  -0.4419417   0.4419417), wk =   0.0468750
        k(   17) = (   0.0000000  -0.3535534   0.3535534), wk =   0.0234375
        k(   18) = (   0.5303301   0.0000000   0.0000000), wk =   0.0117188
        k(   19) = (  -0.0883883  -0.6187184   0.6187184), wk =   0.0468750
        k(   20) = (   0.0000000  -0.5303301   0.5303301), wk =   0.0234375
        k(   21) = (  -0.7071068   0.0000000   0.0000000), wk =   0.0058594
        k(   22) = (   0.3535534   0.1767767   0.0000000), wk =   0.0468750
        k(   23) = (  -0.2651650  -0.4419417   0.6187184), wk =   0.0937500
        k(   24) = (  -0.1767767  -0.3535534   0.5303301), wk =   0.0468750
        k(   25) = (  -0.1767767  -0.5303301   0.7071068), wk =   0.0468750
        k(   26) = (  -0.0883883  -0.4419417   0.6187184), wk =   0.0937500
        k(   27) = (   0.0000000  -0.3535534   0.5303301), wk =   0.0468750
        k(   28) = (  -0.7071068   0.1767767   0.0000000), wk =   0.0234375
        k(   29) = (  -0.7071068   0.3535534   0.0000000), wk =   0.0117188

     Dense  grid:     6879 G-vectors     FFT dimensions: (  27,  27,  27)

     Smooth grid:     2445 G-vectors     FFT dimensions: (  20,  20,  20)

     Estimated max dynamical RAM per process >       3.70 MB

     Estimated total dynamical RAM >      29.62 MB
     Generating pointlists ...
     new r_m :   0.4125 (alat units)  1.9292 (a.u.) for type    1

     Initial potential from superposition of free atoms

     starting charge      10.9997, renormalised to      11.0000
     Starting wfcs are    6 randomized atomic wfcs +    4 random wfcs

     total cpu time spent up to now is        0.4 secs

     Self-consistent Calculation

     iteration #  1     ecut=    40.00 Ry     beta= 0.50
     Davidson diagonalization with overlap
     ethr =  1.00E-02,  avg # of iterations =  6.1

     total cpu time spent up to now is        0.7 secs

     total energy              =     -86.92926920 Ry
     estimated scf accuracy    <       1.47730283 Ry

     total magnetization       =     1.84 Bohr mag/cell
     absolute magnetization    =     1.92 Bohr mag/cell

     iteration #  2     ecut=    40.00 Ry     beta= 0.50
     Davidson diagonalization with overlap
     ethr =  1.00E-02,  avg # of iterations =  1.5

     total cpu time spent up to now is        0.8 secs

     total energy              =     -87.61450620 Ry
     estimated scf accuracy    <       0.76127659 Ry

     total magnetization       =     0.32 Bohr mag/cell
     absolute magnetization    =     0.50 Bohr mag/cell

     iteration #  3     ecut=    40.00 Ry     beta= 0.50
     Davidson diagonalization with overlap
     ethr =  6.92E-03,  avg # of iterations =  1.0

     negative rho (up, down):  0.000E+00 2.496E-07

     total cpu time spent up to now is        0.9 secs

     WARNING: integrated charge=    11.00257852, expected=    11.00000000

     total energy              =     -87.79514940 Ry
     estimated scf accuracy    <       0.22515007 Ry

     total magnetization       =     0.31 Bohr mag/cell
     absolute magnetization    =     0.52 Bohr mag/cell

     iteration #  4     ecut=    40.00 Ry     beta= 0.50
     Davidson diagonalization with overlap
     ethr =  2.05E-03,  avg # of iterations =  1.7

     total cpu time spent up to now is        1.1 secs

     WARNING: integrated charge=    11.00094083, expected=    11.00000000

     total energy              =     -87.82525863 Ry
     estimated scf accuracy    <       0.05337995 Ry

     total magnetization       =    -0.10 Bohr mag/cell
     absolute magnetization    =     0.10 Bohr mag/cell

     iteration #  5     ecut=    40.00 Ry     beta= 0.50
     Davidson diagonalization with overlap
     ethr =  4.85E-04,  avg # of iterations =  1.3

     total cpu time spent up to now is        1.2 secs

     WARNING: integrated charge=    11.00032082, expected=    11.00000000

     total energy              =     -87.83837040 Ry
     estimated scf accuracy    <       0.00149383 Ry

     total magnetization       =    -0.11 Bohr mag/cell
     absolute magnetization    =     0.11 Bohr mag/cell

     iteration #  6     ecut=    40.00 Ry     beta= 0.50
     Davidson diagonalization with overlap
     ethr =  1.36E-05,  avg # of iterations =  1.8

     total cpu time spent up to now is        1.4 secs

     WARNING: integrated charge=    11.00001900, expected=    11.00000000

     total energy              =     -87.83961350 Ry
     estimated scf accuracy    <       0.00021878 Ry

     total magnetization       =     0.02 Bohr mag/cell
     absolute magnetization    =     0.04 Bohr mag/cell

     iteration #  7     ecut=    40.00 Ry     beta= 0.50
     Davidson diagonalization with overlap
     ethr =  1.99E-06,  avg # of iterations =  1.4

     total cpu time spent up to now is        1.5 secs

     WARNING: integrated charge=    10.99997016, expected=    11.00000000

     total energy              =     -87.83970146 Ry
     estimated scf accuracy    <       0.00008023 Ry

     total magnetization       =     0.02 Bohr mag/cell
     absolute magnetization    =     0.02 Bohr mag/cell

     iteration #  8     ecut=    40.00 Ry     beta= 0.50
     Davidson diagonalization with overlap
     ethr =  7.29E-07,  avg # of iterations =  1.2

     total cpu time spent up to now is        1.7 secs

     WARNING: integrated charge=    10.99997614, expected=    11.00000000

     total energy              =     -87.83974593 Ry
     estimated scf accuracy    <       0.00000056 Ry

     total magnetization       =     0.00 Bohr mag/cell
     absolute magnetization    =     0.00 Bohr mag/cell

     iteration #  9     ecut=    40.00 Ry     beta= 0.50
     Davidson diagonalization with overlap
     ethr =  5.09E-09,  avg # of iterations =  2.1

     total cpu time spent up to now is        1.9 secs

     total energy              =     -87.83974637 Ry
     estimated scf accuracy    <       0.00000016 Ry

     total magnetization       =    -0.00 Bohr mag/cell
     absolute magnetization    =     0.00 Bohr mag/cell

     iteration # 10     ecut=    40.00 Ry     beta= 0.50
     Davidson diagonalization with overlap
     ethr =  1.47E-09,  avg # of iterations =  1.9

     Magnetic moment per site  (integrated on atomic sphere of radius R)
     atom   1 (R=0.412)  charge=  9.7771  magn= -0.0002

     total cpu time spent up to now is        2.0 secs

     End of self-consistent calculation

 ------ SPIN UP ------------


          k = 0.0000 0.0000 0.0000 (   331 PWs)   bands (ev):

     5.6326  12.0778  12.0778  12.0778  13.0427  13.0427  40.4901  43.0176
    43.0176  43.0176

          k = 0.0884 0.0884-0.0884 (   316 PWs)   bands (ev):

     6.2353  11.9520  12.1878  12.1878  13.0090  13.0090  35.9893  40.9970
    41.6861  41.6861

          k = 0.1768 0.1768-0.1768 (   311 PWs)   bands (ev):

     7.8712  11.8030  12.2610  12.2610  13.1406  13.1406  29.0627  40.1228
    40.3267  40.3267

          k = 0.2652 0.2652-0.2652 (   308 PWs)   bands (ev):

     9.4954  12.1198  12.1198  12.6557  13.5185  13.5185  23.1880  39.0449
    39.6916  39.6916

          k =-0.3536-0.3536 0.3536 (   302 PWs)   bands (ev):

     9.8465  12.0384  12.0384  13.7081  13.7081  14.3610  19.9845  38.5872
    39.5774  39.5774

          k = 0.1768 0.0000 0.0000 (   307 PWs)   bands (ev):

     6.4334  11.8287  12.2866  12.2866  12.8233  13.1356  38.4346  38.6141
    38.6141  40.4840

          k = 0.2652 0.0884-0.0884 (   308 PWs)   bands (ev):

     7.7274  11.5847  12.3255  12.4574  12.9131  13.2779  31.6845  36.6364
    38.1229  40.8593

          k = 0.3536 0.1768-0.1768 (   301 PWs)   bands (ev):

     9.4780  11.6633  12.0536  12.3880  13.5867  13.8028  25.3747  35.8622
    36.5768  38.5434

          k =-0.2652-0.4419 0.4419 (   309 PWs)   bands (ev):

    10.1335  11.8126  12.2584  12.5099  13.7214  15.6715  20.6574  34.4773
    36.4315  38.1799

          k =-0.1768-0.3536 0.3536 (   308 PWs)   bands (ev):

    10.0640  11.8938  12.2575  12.3591  13.4681  15.0988  21.9355  33.2373
    38.4194  39.0593

          k =-0.0884-0.2652 0.2652 (   309 PWs)   bands (ev):

     8.9582  11.6450  12.1330  12.4077  12.9763  13.8304  27.3721  33.1483
    41.1094  41.7369

          k = 0.0000-0.1768 0.1768 (   317 PWs)   bands (ev):

     7.1925  11.7467  12.2825  12.3724  12.8009  13.2458  33.6874  34.4926
    43.3819  44.3713

          k = 0.3536 0.0000 0.0000 (   311 PWs)   bands (ev):

     8.5251  11.2441  12.5431  12.8546  12.8546  13.3619  34.0376  34.0376
    35.3799  36.2078

          k = 0.4419 0.0884-0.0884 (   314 PWs)   bands (ev):

     9.7706  11.0262  12.3446  12.9629  13.6179  13.9921  28.4811  31.9589
    32.7446  36.8088

          k =-0.1768-0.5303 0.5303 (   311 PWs)   bands (ev):

    10.5314  11.1226  12.1406  12.8270  13.7558  16.6363  22.9514  29.2190
    32.9586  36.9016

          k =-0.0884-0.4419 0.4419 (   307 PWs)   bands (ev):

    10.8042  11.3325  11.9244  12.7129  13.4922  17.9195  21.4080  27.5450
    34.7022  37.6039

          k = 0.0000-0.3536 0.3536 (   307 PWs)   bands (ev):

    10.4095  11.5046  11.7364  12.6617  13.0428  15.2883  26.0123  27.5446
    37.7534  39.1692

          k = 0.5303 0.0000 0.0000 (   322 PWs)   bands (ev):

     9.9331  10.6828  13.5424  13.5424  13.5913  14.2657  27.9770  30.8647
    30.8647  34.9682

          k =-0.0884-0.6187 0.6187 (   314 PWs)   bands (ev):

    10.1802  10.6338  13.1515  13.4521  13.8047  16.9971  25.1556  26.7122
    30.5651  35.9305

          k = 0.0000-0.5303 0.5303 (   308 PWs)   bands (ev):

    10.6198  10.8888  12.3990  13.1993  13.6470  20.2015  21.7801  24.3908
    31.9384  36.5467

          k =-0.7071 0.0000 0.0000 (   302 PWs)   bands (ev):

     9.9722  10.4568  13.6873  13.8758  13.8758  17.0857  23.5472  29.6912
    29.6912  34.5829

          k = 0.3536 0.1768 0.0000 (   311 PWs)   bands (ev):

     9.1333  11.3406  12.0753  12.8647  12.9208  13.8708  29.9185  30.7611
    36.4557  41.5815

          k =-0.2652-0.4419 0.6187 (   313 PWs)   bands (ev):

    10.4249  11.4217  11.7760  12.7227  13.4392  15.4586  24.3081  30.1507
    33.3315  41.5701

          k =-0.1768-0.3536 0.5303 (   308 PWs)   bands (ev):

    10.6675  11.4005  12.0213  12.6014  13.6445  17.7958  20.4708  30.8363
    31.4764  41.2434

          k =-0.1768-0.5303 0.7071 (   309 PWs)   bands (ev):

    10.3650  10.8970  12.3056  13.3654  13.5384  15.8731  27.3212  28.0882
    28.8888  39.7099

          k =-0.0884-0.4419 0.6187 (   303 PWs)   bands (ev):

    10.7604  11.0584  11.9870  13.0750  13.7376  19.2024  22.5441  26.2605
    28.6445  40.9068

          k = 0.0000-0.3536 0.5303 (   311 PWs)   bands (ev):

    11.0606  11.2695  11.5296  12.9432  13.5429  18.3018  23.2816  25.6788
    30.4690  42.1399

          k =-0.7071 0.1768 0.0000 (   308 PWs)   bands (ev):

    10.3297  10.7136  12.8064  13.4002  13.8762  18.8532  23.8123  26.3404
    27.5353  39.0901

          k =-0.7071 0.3536 0.0000 (   308 PWs)   bands (ev):

    10.7945  11.5044  11.5044  13.0036  13.8767  22.2234  22.2234  24.4610
    25.6351  46.6821

 ------ SPIN DOWN ----------


          k = 0.0000 0.0000 0.0000 (   331 PWs)   bands (ev):

     5.6316  12.0770  12.0770  12.0770  13.0418  13.0418  40.4891  43.0167
    43.0167  43.0167

          k = 0.0884 0.0884-0.0884 (   316 PWs)   bands (ev):

     6.2344  11.9512  12.1870  12.1870  13.0081  13.0081  35.9883  40.9960
    41.6852  41.6852

          k = 0.1768 0.1768-0.1768 (   311 PWs)   bands (ev):

     7.8703  11.8022  12.2602  12.2602  13.1398  13.1398  29.0617  40.1218
    40.3258  40.3258

          k = 0.2652 0.2652-0.2652 (   308 PWs)   bands (ev):

     9.4945  12.1189  12.1189  12.6548  13.5177  13.5177  23.1871  39.0439
    39.6907  39.6907

          k =-0.3536-0.3536 0.3536 (   302 PWs)   bands (ev):

     9.8457  12.0376  12.0376  13.7073  13.7073  14.3600  19.9836  38.5862
    39.5765  39.5765

          k = 0.1768 0.0000 0.0000 (   307 PWs)   bands (ev):

     6.4324  11.8279  12.2858  12.2858  12.8225  13.1347  38.4336  38.6131
    38.6131  40.4830

          k = 0.2652 0.0884-0.0884 (   308 PWs)   bands (ev):

     7.7264  11.5839  12.3246  12.4566  12.9122  13.2770  31.6836  36.6355
    38.1219  40.8583

          k = 0.3536 0.1768-0.1768 (   301 PWs)   bands (ev):

     9.4771  11.6625  12.0528  12.3872  13.5859  13.8020  25.3738  35.8613
    36.5759  38.5424

          k =-0.2652-0.4419 0.4419 (   309 PWs)   bands (ev):

    10.1326  11.8118  12.2576  12.5091  13.7206  15.6706  20.6566  34.4763
    36.4306  38.1790

          k =-0.1768-0.3536 0.3536 (   308 PWs)   bands (ev):

    10.0631  11.8929  12.2566  12.3583  13.4673  15.0980  21.9346  33.2364
    38.4184  39.0583

          k =-0.0884-0.2652 0.2652 (   309 PWs)   bands (ev):

     8.9573  11.6442  12.1322  12.4069  12.9755  13.8296  27.3712  33.1474
    41.1084  41.7360

          k = 0.0000-0.1768 0.1768 (   317 PWs)   bands (ev):

     7.1916  11.7459  12.2817  12.3716  12.8001  13.2450  33.6864  34.4916
    43.3809  44.3703

          k = 0.3536 0.0000 0.0000 (   311 PWs)   bands (ev):

     8.5242  11.2433  12.5423  12.8538  12.8538  13.3611  34.0366  34.0366
    35.3789  36.2069

          k = 0.4419 0.0884-0.0884 (   314 PWs)   bands (ev):

     9.7697  11.0254  12.3437  12.9621  13.6171  13.9912  28.4802  31.9580
    32.7437  36.8079

          k =-0.1768-0.5303 0.5303 (   311 PWs)   bands (ev):

    10.5305  11.1218  12.1398  12.8262  13.7549  16.6354  22.9505  29.2181
    32.9577  36.9007

          k =-0.0884-0.4419 0.4419 (   307 PWs)   bands (ev):

    10.8033  11.3316  11.9236  12.7121  13.4914  17.9186  21.4071  27.5441
    34.7012  37.6029

          k = 0.0000-0.3536 0.3536 (   307 PWs)   bands (ev):

    10.4086  11.5038  11.7356  12.6609  13.0420  15.2875  26.0113  27.5437
    37.7525  39.1683

          k = 0.5303 0.0000 0.0000 (   322 PWs)   bands (ev):

     9.9322  10.6819  13.5416  13.5416  13.5905  14.2648  27.9761  30.8638
    30.8638  34.9672

          k =-0.0884-0.6187 0.6187 (   314 PWs)   bands (ev):

    10.1793  10.6329  13.1507  13.4513  13.8039  16.9962  25.1547  26.7113
    30.5642  35.9295

          k = 0.0000-0.5303 0.5303 (   308 PWs)   bands (ev):

    10.6189  10.8880  12.3982  13.1984  13.6462  20.2006  21.7792  24.3898
    31.9375  36.5458

          k =-0.7071 0.0000 0.0000 (   302 PWs)   bands (ev):

     9.9713  10.4560  13.6864  13.8750  13.8750  17.0847  23.5463  29.6902
    29.6902  34.5820

          k = 0.3536 0.1768 0.0000 (   311 PWs)   bands (ev):

     9.1324  11.3397  12.0745  12.8639  12.9200  13.8700  29.9176  30.7602
    36.4547  41.5806

          k =-0.2652-0.4419 0.6187 (   313 PWs)   bands (ev):

    10.4240  11.4208  11.7752  12.7219  13.4384  15.4577  24.3072  30.1498
    33.3305  41.5691

          k =-0.1768-0.3536 0.5303 (   308 PWs)   bands (ev):

    10.6666  11.3996  12.0204  12.6006  13.6437  17.7948  20.4699  30.8353
    31.4755  41.2424

          k =-0.1768-0.5303 0.7071 (   309 PWs)   bands (ev):

    10.3641  10.8961  12.3048  13.3646  13.5376  15.8722  27.3202  28.0873
    28.8879  39.7090

          k =-0.0884-0.4419 0.6187 (   303 PWs)   bands (ev):

    10.7596  11.0576  11.9861  13.0742  13.7368  19.2014  22.5432  26.2596
    28.6436  40.9058

          k = 0.0000-0.3536 0.5303 (   311 PWs)   bands (ev):

    11.0598  11.2687  11.5288  12.9424  13.5421  18.3009  23.2807  25.6779
    30.4681  42.1389

          k =-0.7071 0.1768 0.0000 (   308 PWs)   bands (ev):

    10.3289  10.7128  12.8056  13.3994  13.8755  18.8522  23.8114  26.3394
    27.5343  39.0892

          k =-0.7071 0.3536 0.0000 (   308 PWs)   bands (ev):

    10.7936  11.5036  11.5036  13.0027  13.8759  22.2225  22.2225  24.4601
    25.6342  46.6814

     the Fermi energy is    15.5519 ev

!    total energy              =     -87.83974650 Ry
     estimated scf accuracy    <          9.5E-09 Ry
     smearing contrib. (-TS)   =      -0.00025510 Ry
     internal energy E=F+TS    =     -87.83949140 Ry

     The total energy is F=E-TS. E is the sum of the following terms:
     one-electron contribution =      -8.04376805 Ry
     hartree contribution      =      18.17012220 Ry
     xc contribution           =     -14.08848912 Ry
     ewald contribution        =     -83.87735643 Ry

     total magnetization       =    -0.00 Bohr mag/cell
     absolute magnetization    =     0.00 Bohr mag/cell

     convergence has been achieved in  10 iterations

     Forces acting on atoms (cartesian axes, Ry/au):

     atom    1 type  1   force =     0.00000000    0.00000000    0.00000000
     The non-local contrib.  to forces
     atom    1 type  1   force =    -0.00000000   -0.00000000    0.00000000
     The ionic contribution  to forces
     atom    1 type  1   force =    -0.00000000   -0.00000000   -0.00000000
     The local contribution  to forces
     atom    1 type  1   force =    -0.00000000   -0.00000000    0.00000000
     The core correction contribution to forces
     atom    1 type  1   force =     0.00000000    0.00000000    0.00000000
     The Hubbard contrib.    to forces
     atom    1 type  1   force =     0.00000000    0.00000000    0.00000000
     The SCF correction term to forces
     atom    1 type  1   force =     0.00000000    0.00000000   -0.00000000

     Total force =     0.000000     Total SCF correction =     0.000000


     Computing stress (Cartesian axis) and pressure

          total   stress  (Ry/bohr**3)                   (kbar)     P=       94.02
   0.00063910   0.00000000   0.00000000           94.02        0.00        0.00
   0.00000000   0.00063910  -0.00000000            0.00       94.02       -0.00
   0.00000000   0.00000000   0.00063910            0.00        0.00       94.02


     BFGS Geometry Optimization
     Energy error            =      0.0E+00 Ry
     Gradient error          =      0.0E+00 Ry/Bohr
     Cell gradient error     =      9.4E+01 kbar

     number of scf cycles    =   1
     number of bfgs steps    =   0

     enthalpy           new  =     -87.8397465007 Ry

     new trust radius        =       0.0271776286 bohr
     new conv_thr            =       0.0000001000 Ry

     new unit-cell volume =     75.85656 a.u.^3 (    11.24078 Ang^3 )
     density =      9.38730 g/cm^3

CELL_PARAMETERS (angstrom)
   0.000000000   1.777960777   1.777960777
   1.777960777  -0.000000000   1.777960777
   1.777960777   1.777960777   0.000000000

ATOMIC_POSITIONS (angstrom)
Cu            0.0000000000        0.0000000000        0.0000000000



     Writing config-only to output data dir /home/gridsan/epan1/labutil/lab3_samples/problem3/Lab3/Cu_a_3.5_ecut_40_nk_8/pwscf.save/
     NEW-OLD atomic charge density approx. for the potential
     extrapolated charge   11.51084, renormalised to   11.00000
     Generating pointlists ...

     total cpu time spent up to now is        2.3 secs

     Self-consistent Calculation

     iteration #  1     ecut=    40.00 Ry     beta= 0.50
     Davidson diagonalization with overlap
     ethr =  1.00E-06,  avg # of iterations =  4.4

     total cpu time spent up to now is        2.5 secs

     total energy              =     -87.62983501 Ry
     estimated scf accuracy    <       0.20263973 Ry

     total magnetization       =    -0.00 Bohr mag/cell
     absolute magnetization    =     0.00 Bohr mag/cell

     iteration #  2     ecut=    40.00 Ry     beta= 0.50
     Davidson diagonalization with overlap
     ethr =  1.84E-03,  avg # of iterations =  2.0

     total cpu time spent up to now is        2.7 secs

     total energy              =     -87.84662366 Ry
     estimated scf accuracy    <       0.30689701 Ry

     total magnetization       =    -0.00 Bohr mag/cell
     absolute magnetization    =     0.00 Bohr mag/cell

     iteration #  3     ecut=    40.00 Ry     beta= 0.50
     Davidson diagonalization with overlap
     ethr =  1.84E-03,  avg # of iterations =  1.0

     total cpu time spent up to now is        2.9 secs

     total energy              =     -87.84355816 Ry
     estimated scf accuracy    <       0.06939301 Ry

     total magnetization       =    -0.00 Bohr mag/cell
     absolute magnetization    =     0.00 Bohr mag/cell

     iteration #  4     ecut=    40.00 Ry     beta= 0.50
     Davidson diagonalization with overlap
     ethr =  6.31E-04,  avg # of iterations =  1.0

     total cpu time spent up to now is        3.0 secs

     total energy              =     -87.84214647 Ry
     estimated scf accuracy    <       0.01900192 Ry

     total magnetization       =    -0.00 Bohr mag/cell
     absolute magnetization    =     0.00 Bohr mag/cell

     iteration #  5     ecut=    40.00 Ry     beta= 0.50
     Davidson diagonalization with overlap
     ethr =  1.73E-04,  avg # of iterations =  1.0

     total cpu time spent up to now is        3.2 secs

     total energy              =     -87.83946823 Ry
     estimated scf accuracy    <       0.00648348 Ry

     total magnetization       =    -0.00 Bohr mag/cell
     absolute magnetization    =     0.00 Bohr mag/cell

     iteration #  6     ecut=    40.00 Ry     beta= 0.50
     Davidson diagonalization with overlap
     ethr =  5.89E-05,  avg # of iterations =  1.1

     total cpu time spent up to now is        3.3 secs

     total energy              =     -87.84083068 Ry
     estimated scf accuracy    <       0.00001990 Ry

     total magnetization       =    -0.00 Bohr mag/cell
     absolute magnetization    =     0.00 Bohr mag/cell

     iteration #  7     ecut=    40.00 Ry     beta= 0.50
     Davidson diagonalization with overlap
     ethr =  1.81E-07,  avg # of iterations =  2.4

     total cpu time spent up to now is        3.5 secs

     total energy              =     -87.84105429 Ry
     estimated scf accuracy    <       0.00003323 Ry

     total magnetization       =    -0.00 Bohr mag/cell
     absolute magnetization    =     0.00 Bohr mag/cell

     iteration #  8     ecut=    40.00 Ry     beta= 0.50
     Davidson diagonalization with overlap
     ethr =  1.81E-07,  avg # of iterations =  2.3

     total cpu time spent up to now is        3.7 secs

     total energy              =     -87.84047751 Ry
     estimated scf accuracy    <       0.00145290 Ry

     total magnetization       =    -0.00 Bohr mag/cell
     absolute magnetization    =     0.00 Bohr mag/cell

     iteration #  9     ecut=    40.00 Ry     beta= 0.50
     Davidson diagonalization with overlap
     ethr =  1.81E-07,  avg # of iterations =  2.8

     total cpu time spent up to now is        3.9 secs

     total energy              =     -87.84082670 Ry
     estimated scf accuracy    <       0.00002985 Ry

     total magnetization       =    -0.00 Bohr mag/cell
     absolute magnetization    =     0.00 Bohr mag/cell

     iteration # 10     ecut=    40.00 Ry     beta= 0.50
     Davidson diagonalization with overlap
     ethr =  1.81E-07,  avg # of iterations =  1.0

     total cpu time spent up to now is        4.1 secs

     total energy              =     -87.84082537 Ry
     estimated scf accuracy    <       0.00000625 Ry

     total magnetization       =    -0.00 Bohr mag/cell
     absolute magnetization    =     0.00 Bohr mag/cell

     iteration # 11     ecut=    40.00 Ry     beta= 0.50
     Davidson diagonalization with overlap
     ethr =  5.68E-08,  avg # of iterations =  1.1

     Magnetic moment per site  (integrated on atomic sphere of radius R)
     atom   1 (R=0.412)  charge=  9.7281  magn= -0.0000

     total cpu time spent up to now is        4.3 secs

     End of self-consistent calculation

 ------ SPIN UP ------------


          k = 0.0000 0.0000 0.0000 (   331 PWs)   bands (ev):

     5.0454  11.2847  11.2847  11.2847  12.1806  12.1806  39.0003  41.1868
    41.1868  41.1868

          k = 0.0870 0.0870-0.0870 (   316 PWs)   bands (ev):

     5.6280  11.1687  11.3871  11.3871  12.1498  12.1498  34.4160  39.4202
    39.8752  39.8752

          k = 0.1740 0.1740-0.1740 (   311 PWs)   bands (ev):

     7.2171  11.0328  11.4556  11.4556  12.2728  12.2728  27.6587  38.5379
    38.5379  38.6070

          k = 0.2610 0.2610-0.2610 (   308 PWs)   bands (ev):

     8.8245  11.3249  11.3249  11.8511  12.6240  12.6240  21.9241  37.5896
    37.9042  37.9042

          k =-0.3480-0.3480 0.3480 (   302 PWs)   bands (ev):

     9.1810  11.2494  11.2494  12.7999  12.7999  13.5410  18.7599  37.1552
    37.7816  37.7816

          k = 0.1740 0.0000 0.0000 (   307 PWs)   bands (ev):

     5.8197  11.0541  11.4792  11.4792  11.9779  12.2671  36.9037  36.9037
    36.9053  38.8294

          k = 0.2610 0.0870-0.0870 (   308 PWs)   bands (ev):

     7.0758  10.8285  11.5163  11.6383  12.0619  12.3998  30.2146  34.9887
    36.5859  39.1033

          k = 0.3480 0.1740-0.1740 (   301 PWs)   bands (ev):

     8.7950  10.9053  11.2636  11.5742  12.6870  12.8986  24.0661  34.2377
    35.0757  36.7993

          k =-0.2610-0.4350 0.4350 (   309 PWs)   bands (ev):

     9.4531  11.0437  11.4541  11.7027  12.8122  14.7309  19.4382  32.9547
    34.7830  36.5568

          k =-0.1740-0.3480 0.3480 (   308 PWs)   bands (ev):

     9.3811  11.1179  11.4533  11.5632  12.5773  14.1483  20.7011  31.7292
    36.6928  37.4604

          k =-0.0870-0.2610 0.2610 (   309 PWs)   bands (ev):

     8.2783  10.8859  11.3390  11.5925  12.1207  12.9166  26.0137  31.6355
    39.4728  39.8808

          k = 0.0000-0.1740 0.1740 (   317 PWs)   bands (ev):

     6.5554  10.9788  11.4761  11.5589  11.9575  12.3700  32.1795  32.9283
    41.6862  42.6422

          k = 0.3480 0.0000 0.0000 (   311 PWs)   bands (ev):

     7.8576  10.5118  11.7180  12.0078  12.0078  12.4776  32.4848  32.4848
    33.8954  34.6798

          k = 0.4350 0.0870-0.0870 (   314 PWs)   bands (ev):

     9.0893  10.3094  11.5338  12.1085  12.7158  13.0783  27.1068  30.4891
    31.2397  35.1841

          k =-0.1740-0.5220 0.5220 (   311 PWs)   bands (ev):

     9.8381  10.4031  11.3465  11.9827  12.8440  15.6281  21.7174  27.8065
    31.4440  35.2807

          k =-0.0870-0.4350 0.4350 (   307 PWs)   bands (ev):

    10.0919  10.6016  11.1486  11.8771  12.5996  16.8751  20.2072  26.1707
    33.1192  35.9899

          k = 0.0000-0.3480 0.3480 (   307 PWs)   bands (ev):

     9.6968  10.7553  10.9741  11.8296  12.1822  14.3030  24.7178  26.1557
    36.0564  37.5387

          k = 0.5220 0.0000 0.0000 (   322 PWs)   bands (ev):

     9.2726   9.9895  12.6467  12.6467  12.6909  13.3733  26.5991  29.4347
    29.4347  33.4410

          k =-0.0870-0.6090 0.6090 (   314 PWs)   bands (ev):

     9.5183   9.9436  12.2909  12.5626  12.8896  16.0079  23.8452  25.3775
    29.1471  34.3317

          k = 0.0000-0.5220 0.5220 (   308 PWs)   bands (ev):

     9.9322  10.1823  11.5913  12.3286  12.7433  19.1099  20.6241  23.0407
    30.4634  34.9299

          k =-0.6960 0.0000 0.0000 (   302 PWs)   bands (ev):

     9.3249   9.7787  12.7801  12.9557  12.9557  16.1523  22.2327  28.3105
    28.3105  33.0552

          k = 0.3480 0.1740 0.0000 (   311 PWs)   bands (ev):

     8.4490  10.6019  11.2848  12.0170  12.0701  12.9546  28.5089  29.3040
    34.8506  39.8784

          k =-0.2610-0.4350 0.6090 (   313 PWs)   bands (ev):

     9.7225  10.6814  11.0056  11.8864  12.5512  14.4761  23.0354  28.7246
    31.7933  39.8277

          k =-0.1740-0.3480 0.5220 (   308 PWs)   bands (ev):

     9.9625  10.6641  11.2403  11.7735  12.7410  16.7872  19.2580  29.4431
    29.9362  39.5278

          k =-0.1740-0.5220 0.6960 (   309 PWs)   bands (ev):

     9.6834  10.1888  11.4995  12.4838  12.6429  14.8857  25.9945  26.7730
    27.4064  38.0481

          k =-0.0870-0.4350 0.6090 (   303 PWs)   bands (ev):

    10.0647  10.3396  11.2050  12.2136  12.8275  18.1207  21.3395  24.9199
    27.2343  39.1767

          k = 0.0000-0.3480 0.5220 (   311 PWs)   bands (ev):

    10.3456  10.5322  10.7790  12.0915  12.6470  17.2290  22.0785  24.3336
    29.0105  40.3759

          k =-0.6960 0.1740 0.0000 (   308 PWs)   bands (ev):

     9.6620  10.0178  11.9706  12.5146  12.9561  17.8214  22.5135  25.0504
    26.1545  37.4423

          k =-0.6960 0.3480 0.0000 (   308 PWs)   bands (ev):

    10.1001  10.7555  10.7555  12.1464  12.9566  21.0613  21.0613  23.2464
    24.1916  44.8213

 ------ SPIN DOWN ----------


          k = 0.0000 0.0000 0.0000 (   331 PWs)   bands (ev):

     5.0454  11.2847  11.2847  11.2847  12.1806  12.1806  39.0002  41.1868
    41.1868  41.1868

          k = 0.0870 0.0870-0.0870 (   316 PWs)   bands (ev):

     5.6280  11.1687  11.3871  11.3871  12.1498  12.1498  34.4160  39.4202
    39.8752  39.8752

          k = 0.1740 0.1740-0.1740 (   311 PWs)   bands (ev):

     7.2171  11.0328  11.4556  11.4556  12.2728  12.2728  27.6587  38.5379
    38.5379  38.6070

          k = 0.2610 0.2610-0.2610 (   308 PWs)   bands (ev):

     8.8245  11.3249  11.3249  11.8511  12.6240  12.6240  21.9241  37.5896
    37.9042  37.9042

          k =-0.3480-0.3480 0.3480 (   302 PWs)   bands (ev):

     9.1810  11.2494  11.2494  12.7999  12.7999  13.5410  18.7599  37.1552
    37.7816  37.7816

          k = 0.1740 0.0000 0.0000 (   307 PWs)   bands (ev):

     5.8197  11.0541  11.4792  11.4792  11.9779  12.2671  36.9037  36.9037
    36.9053  38.8294

          k = 0.2610 0.0870-0.0870 (   308 PWs)   bands (ev):

     7.0757  10.8285  11.5163  11.6383  12.0619  12.3998  30.2146  34.9886
    36.5859  39.1033

          k = 0.3480 0.1740-0.1740 (   301 PWs)   bands (ev):

     8.7950  10.9053  11.2636  11.5742  12.6870  12.8986  24.0661  34.2377
    35.0757  36.7993

          k =-0.2610-0.4350 0.4350 (   309 PWs)   bands (ev):

     9.4531  11.0436  11.4541  11.7027  12.8122  14.7309  19.4382  32.9547
    34.7830  36.5568

          k =-0.1740-0.3480 0.3480 (   308 PWs)   bands (ev):

     9.3811  11.1179  11.4533  11.5632  12.5773  14.1483  20.7011  31.7292
    36.6928  37.4603

          k =-0.0870-0.2610 0.2610 (   309 PWs)   bands (ev):

     8.2783  10.8859  11.3390  11.5925  12.1207  12.9166  26.0137  31.6355
    39.4728  39.8808

          k = 0.0000-0.1740 0.1740 (   317 PWs)   bands (ev):

     6.5554  10.9788  11.4761  11.5589  11.9575  12.3700  32.1795  32.9283
    41.6862  42.6422

          k = 0.3480 0.0000 0.0000 (   311 PWs)   bands (ev):

     7.8576  10.5118  11.7180  12.0078  12.0078  12.4776  32.4848  32.4848
    33.8954  34.6798

          k = 0.4350 0.0870-0.0870 (   314 PWs)   bands (ev):

     9.0893  10.3094  11.5338  12.1085  12.7158  13.0783  27.1068  30.4891
    31.2397  35.1841

          k =-0.1740-0.5220 0.5220 (   311 PWs)   bands (ev):

     9.8381  10.4031  11.3464  11.9827  12.8440  15.6281  21.7174  27.8065
    31.4440  35.2807

          k =-0.0870-0.4350 0.4350 (   307 PWs)   bands (ev):

    10.0919  10.6016  11.1486  11.8771  12.5996  16.8751  20.2072  26.1707
    33.1192  35.9899

          k = 0.0000-0.3480 0.3480 (   307 PWs)   bands (ev):

     9.6968  10.7553  10.9741  11.8296  12.1822  14.3030  24.7178  26.1557
    36.0564  37.5387

          k = 0.5220 0.0000 0.0000 (   322 PWs)   bands (ev):

     9.2725   9.9895  12.6467  12.6467  12.6909  13.3733  26.5991  29.4347
    29.4347  33.4410

          k =-0.0870-0.6090 0.6090 (   314 PWs)   bands (ev):

     9.5183   9.9436  12.2909  12.5626  12.8896  16.0079  23.8452  25.3775
    29.1471  34.3317

          k = 0.0000-0.5220 0.5220 (   308 PWs)   bands (ev):

     9.9322  10.1823  11.5913  12.3286  12.7433  19.1099  20.6241  23.0407
    30.4634  34.9299

          k =-0.6960 0.0000 0.0000 (   302 PWs)   bands (ev):

     9.3249   9.7787  12.7801  12.9557  12.9557  16.1523  22.2327  28.3105
    28.3105  33.0552

          k = 0.3480 0.1740 0.0000 (   311 PWs)   bands (ev):

     8.4490  10.6019  11.2848  12.0170  12.0701  12.9546  28.5089  29.3040
    34.8506  39.8784

          k =-0.2610-0.4350 0.6090 (   313 PWs)   bands (ev):

     9.7225  10.6814  11.0056  11.8864  12.5512  14.4761  23.0354  28.7246
    31.7933  39.8277

          k =-0.1740-0.3480 0.5220 (   308 PWs)   bands (ev):

     9.9625  10.6641  11.2403  11.7735  12.7410  16.7872  19.2580  29.4431
    29.9362  39.5278

          k =-0.1740-0.5220 0.6960 (   309 PWs)   bands (ev):

     9.6834  10.1888  11.4995  12.4838  12.6429  14.8857  25.9945  26.7730
    27.4064  38.0481

          k =-0.0870-0.4350 0.6090 (   303 PWs)   bands (ev):

    10.0647  10.3396  11.2050  12.2136  12.8275  18.1207  21.3395  24.9199
    27.2343  39.1767

          k = 0.0000-0.3480 0.5220 (   311 PWs)   bands (ev):

    10.3456  10.5322  10.7790  12.0915  12.6470  17.2289  22.0785  24.3336
    29.0105  40.3759

          k =-0.6960 0.1740 0.0000 (   308 PWs)   bands (ev):

     9.6620  10.0178  11.9706  12.5146  12.9561  17.8214  22.5135  25.0504
    26.1545  37.4423

          k =-0.6960 0.3480 0.0000 (   308 PWs)   bands (ev):

    10.1001  10.7555  10.7555  12.1464  12.9565  21.0613  21.0613  23.2464
    24.1916  44.8213

     the Fermi energy is    14.5809 ev

!    total energy              =     -87.84082655 Ry
     estimated scf accuracy    <       0.00000001 Ry
     smearing contrib. (-TS)   =      -0.00014706 Ry
     internal energy E=F+TS    =     -87.84067950 Ry

     The total energy is F=E-TS. E is the sum of the following terms:
     one-electron contribution =     -10.05574920 Ry
     hartree contribution      =      18.83338470 Ry
     xc contribution           =     -14.06004059 Ry
     ewald contribution        =     -82.55827441 Ry

     total magnetization       =    -0.00 Bohr mag/cell
     absolute magnetization    =     0.00 Bohr mag/cell

     convergence has been achieved in  11 iterations

     Forces acting on atoms (cartesian axes, Ry/au):

     atom    1 type  1   force =     0.00000000    0.00000000    0.00000000
     The non-local contrib.  to forces
     atom    1 type  1   force =     0.00000000    0.00000000   -0.00000000
     The ionic contribution  to forces
     atom    1 type  1   force =    -0.00000000   -0.00000000   -0.00000000
     The local contribution  to forces
     atom    1 type  1   force =    -0.00000000   -0.00000000   -0.00000000
     The core correction contribution to forces
     atom    1 type  1   force =     0.00000000    0.00000000    0.00000000
     The Hubbard contrib.    to forces
     atom    1 type  1   force =     0.00000000    0.00000000    0.00000000
     The SCF correction term to forces
     atom    1 type  1   force =     0.00000000   -0.00000000    0.00000000

     Total force =     0.000000     Total SCF correction =     0.000000


     Computing stress (Cartesian axis) and pressure

          total   stress  (Ry/bohr**3)                   (kbar)     P=        1.20
   0.00000817  -0.00000000  -0.00000000            1.20       -0.00       -0.00
  -0.00000000   0.00000817   0.00000000           -0.00        1.20        0.00
  -0.00000000  -0.00000000   0.00000817           -0.00       -0.00        1.20

     Energy error            =      1.1E-03 Ry
     Gradient error          =      0.0E+00 Ry/Bohr
     Cell gradient error     =      1.2E+00 kbar

     number of scf cycles    =   2
     number of bfgs steps    =   1

     enthalpy           old  =     -87.8397465007 Ry
     enthalpy           new  =     -87.8408265542 Ry

     CASE: enthalpy          _new < enthalpy          _old

     new trust radius        =       0.0003662215 bohr
     new conv_thr            =       0.0000000010 Ry

     new unit-cell volume =     75.90441 a.u.^3 (    11.24787 Ang^3 )
     density =      9.38138 g/cm^3

CELL_PARAMETERS (angstrom)
  -0.000000000   1.778334577   1.778334577
   1.778334577  -0.000000000   1.778334577
   1.778334577   1.778334577  -0.000000000

ATOMIC_POSITIONS (angstrom)
Cu            0.0000000000        0.0000000000        0.0000000000



     Writing config-only to output data dir /home/gridsan/epan1/labutil/lab3_samples/problem3/Lab3/Cu_a_3.5_ecut_40_nk_8/pwscf.save/
     NEW-OLD atomic charge density approx. for the potential
     extrapolated charge   11.00693, renormalised to   11.00000
     Generating pointlists ...

     total cpu time spent up to now is        4.4 secs

     Self-consistent Calculation

     iteration #  1     ecut=    40.00 Ry     beta= 0.50
     Davidson diagonalization with overlap
     ethr =  1.00E-06,  avg # of iterations =  2.0

     total cpu time spent up to now is        4.6 secs

     total energy              =     -87.84079242 Ry
     estimated scf accuracy    <       0.00003294 Ry

     total magnetization       =    -0.00 Bohr mag/cell
     absolute magnetization    =     0.00 Bohr mag/cell

     iteration #  2     ecut=    40.00 Ry     beta= 0.50
     Davidson diagonalization with overlap
     ethr =  2.99E-07,  avg # of iterations =  2.0

     total cpu time spent up to now is        4.8 secs

     total energy              =     -87.84082594 Ry
     estimated scf accuracy    <       0.00005993 Ry

     total magnetization       =    -0.00 Bohr mag/cell
     absolute magnetization    =     0.00 Bohr mag/cell

     iteration #  3     ecut=    40.00 Ry     beta= 0.50
     Davidson diagonalization with overlap
     ethr =  2.99E-07,  avg # of iterations =  1.0

     total cpu time spent up to now is        5.0 secs

     total energy              =     -87.84082830 Ry
     estimated scf accuracy    <       0.00001033 Ry

     total magnetization       =    -0.00 Bohr mag/cell
     absolute magnetization    =     0.00 Bohr mag/cell

     iteration #  4     ecut=    40.00 Ry     beta= 0.50
     Davidson diagonalization with overlap
     ethr =  9.39E-08,  avg # of iterations =  1.0

     total cpu time spent up to now is        5.1 secs

     total energy              =     -87.84082591 Ry
     estimated scf accuracy    <       0.00000562 Ry

     total magnetization       =    -0.00 Bohr mag/cell
     absolute magnetization    =     0.00 Bohr mag/cell

     iteration #  5     ecut=    40.00 Ry     beta= 0.50
     Davidson diagonalization with overlap
     ethr =  5.11E-08,  avg # of iterations =  1.0

     total cpu time spent up to now is        5.3 secs

     total energy              =     -87.84082676 Ry
     estimated scf accuracy    <       0.00000004 Ry

     total magnetization       =    -0.00 Bohr mag/cell
     absolute magnetization    =     0.00 Bohr mag/cell

     iteration #  6     ecut=    40.00 Ry     beta= 0.50
     Davidson diagonalization with overlap
     ethr =  3.95E-10,  avg # of iterations =  2.0

     total cpu time spent up to now is        5.4 secs

     total energy              =     -87.84082676 Ry
     estimated scf accuracy    <       0.00000015 Ry

     total magnetization       =    -0.00 Bohr mag/cell
     absolute magnetization    =     0.00 Bohr mag/cell

     iteration #  7     ecut=    40.00 Ry     beta= 0.50
     Davidson diagonalization with overlap
     ethr =  3.95E-10,  avg # of iterations =  2.0

     Magnetic moment per site  (integrated on atomic sphere of radius R)
     atom   1 (R=0.412)  charge=  9.7275  magn= -0.0000

     total cpu time spent up to now is        5.6 secs

     End of self-consistent calculation

 ------ SPIN UP ------------


          k = 0.0000 0.0000 0.0000 (   331 PWs)   bands (ev):

     5.0380  11.2745  11.2745  11.2745  12.1695  12.1695  38.9811  41.1631
    41.1631  41.1631

          k = 0.0870 0.0870-0.0870 (   316 PWs)   bands (ev):

     5.6203  11.1587  11.3768  11.3768  12.1387  12.1387  34.3957  39.3998
    39.8518  39.8518

          k = 0.1740 0.1740-0.1740 (   311 PWs)   bands (ev):

     7.2088  11.0229  11.4453  11.4453  12.2617  12.2617  27.6407  38.5148
    38.5148  38.5874

          k = 0.2609 0.2609-0.2609 (   308 PWs)   bands (ev):

     8.8159  11.3146  11.3146  11.8408  12.6124  12.6124  21.9078  37.5707
    37.8811  37.8811

          k =-0.3479-0.3479 0.3479 (   302 PWs)   bands (ev):

     9.1725  11.2393  11.2393  12.7882  12.7882  13.5305  18.7442  37.1366
    37.7584  37.7584

          k = 0.1740 0.0000 0.0000 (   307 PWs)   bands (ev):

     5.8119  11.0442  11.4688  11.4688  11.9670  12.2559  36.8817  36.8817
    36.8856  38.8078

          k = 0.2609 0.0870-0.0870 (   308 PWs)   bands (ev):

     7.0675  10.8188  11.5059  11.6278  12.0510  12.3884  30.1956  34.9674
    36.5660  39.0806

          k = 0.3479 0.1740-0.1740 (   301 PWs)   bands (ev):

     8.7863  10.8956  11.2534  11.5637  12.6754  12.8869  24.0492  34.2167
    35.0562  36.7768

          k =-0.2609-0.4349 0.4349 (   309 PWs)   bands (ev):

     9.4444  11.0337  11.4437  11.6923  12.8005  14.7189  19.4225  32.9350
    34.7617  36.5358

          k =-0.1740-0.3479 0.3479 (   308 PWs)   bands (ev):

     9.3723  11.1079  11.4429  11.5529  12.5658  14.1361  20.6853  31.7097
    36.6705  37.4397

          k =-0.0870-0.2609 0.2609 (   309 PWs)   bands (ev):

     8.2696  10.8762  11.3287  11.5820  12.1097  12.9048  25.9962  31.6159
    39.4516  39.8568

          k = 0.0000-0.1740 0.1740 (   317 PWs)   bands (ev):

     6.5473  10.9690  11.4657  11.5485  11.9466  12.3588  32.1600  32.9080
    41.6643  42.6198

          k = 0.3479 0.0000 0.0000 (   311 PWs)   bands (ev):

     7.8491  10.5024  11.7074  11.9969  11.9969  12.4662  32.4648  32.4648
    33.8761  34.6602

          k = 0.4349 0.0870-0.0870 (   314 PWs)   bands (ev):

     9.0806  10.3002  11.5234  12.0975  12.7042  13.0666  27.0891  30.4701
    31.2203  35.1632

          k =-0.1740-0.5219 0.5219 (   311 PWs)   bands (ev):

     9.8292  10.3938  11.3362  11.9718  12.8323  15.6151  21.7015  27.7882
    31.4245  35.2598

          k =-0.0870-0.4349 0.4349 (   307 PWs)   bands (ev):

    10.0827  10.5922  11.1386  11.8663  12.5881  16.8617  20.1917  26.1530
    33.0988  35.9690

          k = 0.0000-0.3479 0.3479 (   307 PWs)   bands (ev):

     9.6877  10.7457  10.9642  11.8189  12.1711  14.2903  24.7011  26.1378
    36.0345  37.5176

          k = 0.5219 0.0000 0.0000 (   322 PWs)   bands (ev):

     9.2641   9.9805  12.6352  12.6352  12.6793  13.3618  26.5813  29.4163
    29.4163  33.4213

          k =-0.0870-0.6089 0.6089 (   314 PWs)   bands (ev):

     9.5097   9.9347  12.2798  12.5511  12.8778  15.9952  23.8282  25.3604
    29.1288  34.3111

          k = 0.0000-0.5219 0.5219 (   308 PWs)   bands (ev):

     9.9233  10.1732  11.5809  12.3174  12.7317  19.0959  20.6093  23.0232
    30.4444  34.9090

          k =-0.6958 0.0000 0.0000 (   302 PWs)   bands (ev):

     9.3166   9.7700  12.7684  12.9439  12.9439  16.1404  22.2157  28.2927
    28.2927  33.0356

          k = 0.3479 0.1740 0.0000 (   311 PWs)   bands (ev):

     8.4402  10.5924  11.2746  12.0061  12.0592  12.9428  28.4908  29.2851
    34.8298  39.8564

          k =-0.2609-0.4349 0.6089 (   313 PWs)   bands (ev):

     9.7135  10.6718  10.9957  11.8757  12.5398  14.4635  23.0190  28.7062
    31.7734  39.8052

          k =-0.1740-0.3479 0.5219 (   308 PWs)   bands (ev):

     9.9534  10.6547  11.2302  11.7628  12.7293  16.7742  19.2424  29.4251
    29.9164  39.5056

          k =-0.1740-0.5219 0.6958 (   309 PWs)   bands (ev):

     9.6746  10.1797  11.4891  12.4725  12.6314  14.8730  25.9775  26.7560
    27.3873  38.0267

          k =-0.0870-0.4349 0.6089 (   303 PWs)   bands (ev):

    10.0557  10.3304  11.1950  12.2025  12.8157  18.1068  21.3240  24.9026
    27.2161  39.1544

          k = 0.0000-0.3479 0.5219 (   311 PWs)   bands (ev):

    10.3364  10.5227  10.7693  12.0805  12.6354  17.2152  22.0631  24.3162
    28.9917  40.3531

          k =-0.6958 0.1740 0.0000 (   308 PWs)   bands (ev):

     9.6534  10.0089  11.9598  12.5032  12.9443  17.8082  22.4967  25.0338
    26.1367  37.4211

          k =-0.6958 0.3479-0.0000 (   308 PWs)   bands (ev):

    10.0912  10.7459  10.7459  12.1353  12.9447  21.0464  21.0464  23.2308
    24.1730  44.7973

 ------ SPIN DOWN ----------


          k = 0.0000 0.0000 0.0000 (   331 PWs)   bands (ev):

     5.0380  11.2745  11.2745  11.2745  12.1695  12.1695  38.9811  41.1631
    41.1631  41.1631

          k = 0.0870 0.0870-0.0870 (   316 PWs)   bands (ev):

     5.6203  11.1587  11.3768  11.3768  12.1387  12.1387  34.3957  39.3998
    39.8518  39.8518

          k = 0.1740 0.1740-0.1740 (   311 PWs)   bands (ev):

     7.2088  11.0229  11.4453  11.4453  12.2617  12.2617  27.6407  38.5148
    38.5148  38.5874

          k = 0.2609 0.2609-0.2609 (   308 PWs)   bands (ev):

     8.8159  11.3146  11.3146  11.8408  12.6124  12.6124  21.9078  37.5707
    37.8811  37.8811

          k =-0.3479-0.3479 0.3479 (   302 PWs)   bands (ev):

     9.1725  11.2393  11.2393  12.7882  12.7882  13.5305  18.7442  37.1366
    37.7584  37.7584

          k = 0.1740 0.0000 0.0000 (   307 PWs)   bands (ev):

     5.8119  11.0442  11.4688  11.4688  11.9670  12.2559  36.8817  36.8817
    36.8856  38.8078

          k = 0.2609 0.0870-0.0870 (   308 PWs)   bands (ev):

     7.0675  10.8188  11.5059  11.6278  12.0510  12.3884  30.1956  34.9674
    36.5660  39.0806

          k = 0.3479 0.1740-0.1740 (   301 PWs)   bands (ev):

     8.7863  10.8956  11.2534  11.5637  12.6754  12.8869  24.0492  34.2167
    35.0562  36.7768

          k =-0.2609-0.4349 0.4349 (   309 PWs)   bands (ev):

     9.4444  11.0337  11.4437  11.6923  12.8005  14.7189  19.4225  32.9350
    34.7617  36.5358

          k =-0.1740-0.3479 0.3479 (   308 PWs)   bands (ev):

     9.3723  11.1079  11.4429  11.5529  12.5658  14.1361  20.6853  31.7097
    36.6705  37.4397

          k =-0.0870-0.2609 0.2609 (   309 PWs)   bands (ev):

     8.2696  10.8762  11.3287  11.5820  12.1097  12.9048  25.9962  31.6159
    39.4516  39.8568

          k = 0.0000-0.1740 0.1740 (   317 PWs)   bands (ev):

     6.5473  10.9690  11.4657  11.5485  11.9466  12.3588  32.1600  32.9080
    41.6643  42.6198

          k = 0.3479 0.0000 0.0000 (   311 PWs)   bands (ev):

     7.8491  10.5024  11.7074  11.9969  11.9969  12.4662  32.4648  32.4648
    33.8761  34.6602

          k = 0.4349 0.0870-0.0870 (   314 PWs)   bands (ev):

     9.0806  10.3002  11.5234  12.0975  12.7042  13.0666  27.0891  30.4701
    31.2203  35.1632

          k =-0.1740-0.5219 0.5219 (   311 PWs)   bands (ev):

     9.8292  10.3938  11.3362  11.9718  12.8323  15.6151  21.7015  27.7882
    31.4245  35.2598

          k =-0.0870-0.4349 0.4349 (   307 PWs)   bands (ev):

    10.0827  10.5922  11.1386  11.8663  12.5881  16.8617  20.1917  26.1530
    33.0988  35.9690

          k = 0.0000-0.3479 0.3479 (   307 PWs)   bands (ev):

     9.6877  10.7457  10.9642  11.8189  12.1711  14.2903  24.7011  26.1378
    36.0345  37.5176

          k = 0.5219 0.0000 0.0000 (   322 PWs)   bands (ev):

     9.2641   9.9805  12.6352  12.6352  12.6793  13.3618  26.5813  29.4163
    29.4163  33.4213

          k =-0.0870-0.6089 0.6089 (   314 PWs)   bands (ev):

     9.5097   9.9347  12.2798  12.5511  12.8778  15.9952  23.8282  25.3604
    29.1288  34.3111

          k = 0.0000-0.5219 0.5219 (   308 PWs)   bands (ev):

     9.9233  10.1732  11.5809  12.3174  12.7317  19.0959  20.6093  23.0232
    30.4444  34.9090

          k =-0.6958 0.0000 0.0000 (   302 PWs)   bands (ev):

     9.3166   9.7700  12.7684  12.9439  12.9439  16.1404  22.2157  28.2927
    28.2927  33.0356

          k = 0.3479 0.1740 0.0000 (   311 PWs)   bands (ev):

     8.4402  10.5924  11.2746  12.0061  12.0592  12.9428  28.4908  29.2851
    34.8298  39.8564

          k =-0.2609-0.4349 0.6089 (   313 PWs)   bands (ev):

     9.7135  10.6718  10.9957  11.8757  12.5398  14.4635  23.0190  28.7062
    31.7734  39.8052

          k =-0.1740-0.3479 0.5219 (   308 PWs)   bands (ev):

     9.9534  10.6547  11.2302  11.7628  12.7293  16.7742  19.2424  29.4251
    29.9164  39.5056

          k =-0.1740-0.5219 0.6958 (   309 PWs)   bands (ev):

     9.6746  10.1797  11.4891  12.4725  12.6314  14.8730  25.9775  26.7560
    27.3873  38.0267

          k =-0.0870-0.4349 0.6089 (   303 PWs)   bands (ev):

    10.0557  10.3304  11.1950  12.2025  12.8157  18.1068  21.3240  24.9026
    27.2161  39.1544

          k = 0.0000-0.3479 0.5219 (   311 PWs)   bands (ev):

    10.3364  10.5227  10.7693  12.0805  12.6354  17.2152  22.0631  24.3162
    28.9917  40.3531

          k =-0.6958 0.1740 0.0000 (   308 PWs)   bands (ev):

     9.6534  10.0089  11.9598  12.5032  12.9443  17.8082  22.4967  25.0338
    26.1367  37.4211

          k =-0.6958 0.3479-0.0000 (   308 PWs)   bands (ev):

    10.0912  10.7459  10.7459  12.1353  12.9447  21.0464  21.0464  23.2308
    24.1730  44.7973

     the Fermi energy is    14.5685 ev

!    total energy              =     -87.84082679 Ry
     estimated scf accuracy    <          4.1E-12 Ry
     smearing contrib. (-TS)   =      -0.00014563 Ry
     internal energy E=F+TS    =     -87.84068116 Ry

     The total energy is F=E-TS. E is the sum of the following terms:
     one-electron contribution =     -10.08235766 Ry
     hartree contribution      =      18.84229222 Ry
     xc contribution           =     -14.05969478 Ry
     ewald contribution        =     -82.54092093 Ry

     total magnetization       =    -0.00 Bohr mag/cell
     absolute magnetization    =     0.00 Bohr mag/cell

     convergence has been achieved in   7 iterations

     Forces acting on atoms (cartesian axes, Ry/au):

     atom    1 type  1   force =     0.00000000    0.00000000    0.00000000
     The non-local contrib.  to forces
     atom    1 type  1   force =    -0.00000000   -0.00000000    0.00000000
     The ionic contribution  to forces
     atom    1 type  1   force =    -0.00000000   -0.00000000   -0.00000000
     The local contribution  to forces
     atom    1 type  1   force =    -0.00000000   -0.00000000    0.00000000
     The core correction contribution to forces
     atom    1 type  1   force =     0.00000000    0.00000000    0.00000000
     The Hubbard contrib.    to forces
     atom    1 type  1   force =     0.00000000    0.00000000    0.00000000
     The SCF correction term to forces
     atom    1 type  1   force =     0.00000000    0.00000000   -0.00000000

     Total force =     0.000000     Total SCF correction =     0.000000


     Computing stress (Cartesian axis) and pressure

          total   stress  (Ry/bohr**3)                   (kbar)     P=        0.17
   0.00000115  -0.00000000  -0.00000000            0.17       -0.00       -0.00
  -0.00000000   0.00000115  -0.00000000           -0.00        0.17       -0.00
  -0.00000000  -0.00000000   0.00000115           -0.00       -0.00        0.17

     Energy error            =      2.3E-07 Ry
     Gradient error          =      0.0E+00 Ry/Bohr
     Cell gradient error     =      1.7E-01 kbar
Begin final coordinates
     new unit-cell volume =     75.90441 a.u.^3 (    11.24787 Ang^3 )
     density =      9.38138 g/cm^3

CELL_PARAMETERS (angstrom)
  -0.000000000   1.778334577   1.778334577
   1.778334577  -0.000000000   1.778334577
   1.778334577   1.778334577  -0.000000000

ATOMIC_POSITIONS (angstrom)
Cu            0.0000000000        0.0000000000        0.0000000000
End final coordinates



     Writing config-only to output data dir /home/gridsan/epan1/labutil/lab3_samples/problem3/Lab3/Cu_a_3.5_ecut_40_nk_8/pwscf.save/

     lsda relaxation :  a final configuration with zero
                        absolute magnetization has been found

     the program is checking if it is really the minimum energy structure
     by performing a new scf iteration without any "electronic" history

     Initial potential from superposition of free atoms

     starting charge      10.9997, renormalised to      11.0000

     total cpu time spent up to now is        5.9 secs

     Self-consistent Calculation

     iteration #  1     ecut=    40.00 Ry     beta= 0.50
     Davidson diagonalization with overlap
     ethr =  1.00E-06,  avg # of iterations =  4.2

     total cpu time spent up to now is        6.1 secs

     total energy              =     -86.89539796 Ry
     estimated scf accuracy    <       1.52108679 Ry

     total magnetization       =     1.89 Bohr mag/cell
     absolute magnetization    =     1.97 Bohr mag/cell

     iteration #  2     ecut=    40.00 Ry     beta= 0.50
     Davidson diagonalization with overlap
     ethr =  1.00E-02,  avg # of iterations =  1.6

     total cpu time spent up to now is        6.3 secs

     total energy              =     -87.60811002 Ry
     estimated scf accuracy    <       0.82896809 Ry

     total magnetization       =     0.32 Bohr mag/cell
     absolute magnetization    =     0.48 Bohr mag/cell

     iteration #  3     ecut=    40.00 Ry     beta= 0.50
     Davidson diagonalization with overlap
     ethr =  7.54E-03,  avg # of iterations =  1.0

     negative rho (up, down):  0.000E+00 1.072E-06

     total cpu time spent up to now is        6.5 secs

     WARNING: integrated charge=    11.00202379, expected=    11.00000000

     total energy              =     -87.79201944 Ry
     estimated scf accuracy    <       0.24090419 Ry

     total magnetization       =     0.31 Bohr mag/cell
     absolute magnetization    =     0.52 Bohr mag/cell

     iteration #  4     ecut=    40.00 Ry     beta= 0.50
     Davidson diagonalization with overlap
     ethr =  2.19E-03,  avg # of iterations =  1.5

     negative rho (up, down):  0.000E+00 4.215E-07

     total cpu time spent up to now is        6.6 secs

     WARNING: integrated charge=    11.00079566, expected=    11.00000000

     total energy              =     -87.82317946 Ry
     estimated scf accuracy    <       0.07012352 Ry

     total magnetization       =    -0.11 Bohr mag/cell
     absolute magnetization    =     0.11 Bohr mag/cell

     iteration #  5     ecut=    40.00 Ry     beta= 0.50
     Davidson diagonalization with overlap
     ethr =  6.37E-04,  avg # of iterations =  1.1

     total cpu time spent up to now is        6.8 secs

     WARNING: integrated charge=    11.00027952, expected=    11.00000000

     total energy              =     -87.83924136 Ry
     estimated scf accuracy    <       0.00150784 Ry

     total magnetization       =    -0.11 Bohr mag/cell
     absolute magnetization    =     0.11 Bohr mag/cell

     iteration #  6     ecut=    40.00 Ry     beta= 0.50
     Davidson diagonalization with overlap
     ethr =  1.37E-05,  avg # of iterations =  1.4

     total cpu time spent up to now is        6.9 secs

     WARNING: integrated charge=    11.00001714, expected=    11.00000000

     total energy              =     -87.84066579 Ry
     estimated scf accuracy    <       0.00029523 Ry

     total magnetization       =     0.02 Bohr mag/cell
     absolute magnetization    =     0.04 Bohr mag/cell

     iteration #  7     ecut=    40.00 Ry     beta= 0.50
     Davidson diagonalization with overlap
     ethr =  2.68E-06,  avg # of iterations =  1.2

     total cpu time spent up to now is        7.1 secs

     WARNING: integrated charge=    10.99997314, expected=    11.00000000

     total energy              =     -87.84077767 Ry
     estimated scf accuracy    <       0.00009435 Ry

     total magnetization       =     0.02 Bohr mag/cell
     absolute magnetization    =     0.03 Bohr mag/cell

     iteration #  8     ecut=    40.00 Ry     beta= 0.50
     Davidson diagonalization with overlap
     ethr =  8.58E-07,  avg # of iterations =  1.3

     total cpu time spent up to now is        7.2 secs

     WARNING: integrated charge=    10.99998023, expected=    11.00000000

     total energy              =     -87.84082617 Ry
     estimated scf accuracy    <       0.00000095 Ry

     total magnetization       =     0.00 Bohr mag/cell
     absolute magnetization    =     0.00 Bohr mag/cell

     iteration #  9     ecut=    40.00 Ry     beta= 0.50
     Davidson diagonalization with overlap
     ethr =  8.67E-09,  avg # of iterations =  2.0

     total cpu time spent up to now is        7.4 secs

     total energy              =     -87.84082664 Ry
     estimated scf accuracy    <       0.00000035 Ry

     total magnetization       =    -0.00 Bohr mag/cell
     absolute magnetization    =     0.00 Bohr mag/cell

     iteration # 10     ecut=    40.00 Ry     beta= 0.50
     Davidson diagonalization with overlap
     ethr =  3.22E-09,  avg # of iterations =  1.6

     total cpu time spent up to now is        7.6 secs

     total energy              =     -87.84082678 Ry
     estimated scf accuracy    <       0.00000001 Ry

     total magnetization       =    -0.00 Bohr mag/cell
     absolute magnetization    =     0.00 Bohr mag/cell

     iteration # 11     ecut=    40.00 Ry     beta= 0.50
     Davidson diagonalization with overlap
     ethr =  1.18E-10,  avg # of iterations =  1.7

     total cpu time spent up to now is        7.8 secs

     total energy              =     -87.84082679 Ry
     estimated scf accuracy    <          1.5E-09 Ry

     total magnetization       =     0.00 Bohr mag/cell
     absolute magnetization    =     0.00 Bohr mag/cell

     iteration # 12     ecut=    40.00 Ry     beta= 0.50
     Davidson diagonalization with overlap
     ethr =  1.34E-11,  avg # of iterations =  1.5

     Magnetic moment per site  (integrated on atomic sphere of radius R)
     atom   1 (R=0.412)  charge=  9.7275  magn=  0.0000

     total cpu time spent up to now is        8.0 secs

     End of self-consistent calculation

 ------ SPIN UP ------------


          k = 0.0000 0.0000 0.0000 (   331 PWs)   bands (ev):

     5.0380  11.2745  11.2745  11.2745  12.1695  12.1695  38.9811  41.1631
    41.1631  41.1631

          k = 0.0870 0.0870-0.0870 (   316 PWs)   bands (ev):

     5.6203  11.1586  11.3768  11.3768  12.1387  12.1387  34.3957  39.3998
    39.8518  39.8518

          k = 0.1740 0.1740-0.1740 (   311 PWs)   bands (ev):

     7.2088  11.0228  11.4453  11.4453  12.2616  12.2616  27.6406  38.5148
    38.5148  38.5874

          k = 0.2609 0.2609-0.2609 (   308 PWs)   bands (ev):

     8.8159  11.3146  11.3146  11.8407  12.6124  12.6124  21.9078  37.5707
    37.8811  37.8811

          k =-0.3479-0.3479 0.3479 (   302 PWs)   bands (ev):

     9.1725  11.2393  11.2393  12.7881  12.7881  13.5305  18.7442  37.1366
    37.7584  37.7584

          k = 0.1740 0.0000 0.0000 (   307 PWs)   bands (ev):

     5.8119  11.0441  11.4688  11.4688  11.9670  12.2559  36.8816  36.8816
    36.8856  38.8078

          k = 0.2609 0.0870-0.0870 (   308 PWs)   bands (ev):

     7.0675  10.8188  11.5059  11.6277  12.0509  12.3884  30.1956  34.9674
    36.5659  39.0806

          k = 0.3479 0.1740-0.1740 (   301 PWs)   bands (ev):

     8.7863  10.8956  11.2534  11.5637  12.6754  12.8869  24.0492  34.2167
    35.0562  36.7768

          k =-0.2609-0.4349 0.4349 (   309 PWs)   bands (ev):

     9.4444  11.0337  11.4437  11.6923  12.8005  14.7188  19.4225  32.9350
    34.7617  36.5358

          k =-0.1740-0.3479 0.3479 (   308 PWs)   bands (ev):

     9.3723  11.1078  11.4429  11.5529  12.5658  14.1361  20.6853  31.7097
    36.6705  37.4397

          k =-0.0870-0.2609 0.2609 (   309 PWs)   bands (ev):

     8.2696  10.8762  11.3287  11.5820  12.1097  12.9048  25.9962  31.6159
    39.4516  39.8568

          k = 0.0000-0.1740 0.1740 (   317 PWs)   bands (ev):

     6.5473  10.9689  11.4657  11.5484  11.9466  12.3587  32.1600  32.9080
    41.6642  42.6198

          k = 0.3479 0.0000 0.0000 (   311 PWs)   bands (ev):

     7.8491  10.5024  11.7074  11.9969  11.9969  12.4662  32.4648  32.4648
    33.8761  34.6602

          k = 0.4349 0.0870-0.0870 (   314 PWs)   bands (ev):

     9.0806  10.3002  11.5234  12.0975  12.7041  13.0665  27.0891  30.4701
    31.2203  35.1631

          k =-0.1740-0.5219 0.5219 (   311 PWs)   bands (ev):

     9.8291  10.3938  11.3362  11.9718  12.8323  15.6151  21.7015  27.7882
    31.4245  35.2598

          k =-0.0870-0.4349 0.4349 (   307 PWs)   bands (ev):

    10.0827  10.5922  11.1386  11.8663  12.5881  16.8617  20.1917  26.1530
    33.0988  35.9690

          k = 0.0000-0.3479 0.3479 (   307 PWs)   bands (ev):

     9.6877  10.7457  10.9642  11.8189  12.1711  14.2903  24.7011  26.1377
    36.0345  37.5176

          k = 0.5219 0.0000 0.0000 (   322 PWs)   bands (ev):

     9.2640   9.9805  12.6352  12.6352  12.6793  13.3618  26.5813  29.4163
    29.4163  33.4213

          k =-0.0870-0.6089 0.6089 (   314 PWs)   bands (ev):

     9.5097   9.9347  12.2798  12.5511  12.8778  15.9952  23.8282  25.3604
    29.1288  34.3111

          k = 0.0000-0.5219 0.5219 (   308 PWs)   bands (ev):

     9.9233  10.1732  11.5809  12.3174  12.7316  19.0959  20.6092  23.0232
    30.4444  34.9090

          k =-0.6958 0.0000 0.0000 (   302 PWs)   bands (ev):

     9.3165   9.7700  12.7684  12.9439  12.9439  16.1404  22.2157  28.2927
    28.2927  33.0355

          k = 0.3479 0.1740 0.0000 (   311 PWs)   bands (ev):

     8.4402  10.5923  11.2746  12.0061  12.0592  12.9427  28.4907  29.2851
    34.8298  39.8564

          k =-0.2609-0.4349 0.6089 (   313 PWs)   bands (ev):

     9.7135  10.6718  10.9956  11.8757  12.5398  14.4634  23.0190  28.7061
    31.7734  39.8051

          k =-0.1740-0.3479 0.5219 (   308 PWs)   bands (ev):

     9.9534  10.6546  11.2302  11.7628  12.7293  16.7742  19.2424  29.4251
    29.9164  39.5056

          k =-0.1740-0.5219 0.6958 (   309 PWs)   bands (ev):

     9.6746  10.1797  11.4891  12.4725  12.6314  14.8730  25.9774  26.7560
    27.3873  38.0267

          k =-0.0870-0.4349 0.6089 (   303 PWs)   bands (ev):

    10.0557  10.3304  11.1949  12.2025  12.8157  18.1068  21.3240  24.9026
    27.2161  39.1544

          k = 0.0000-0.3479 0.5219 (   311 PWs)   bands (ev):

    10.3364  10.5227  10.7693  12.0805  12.6354  17.2152  22.0631  24.3162
    28.9917  40.3531

          k =-0.6958 0.1740 0.0000 (   308 PWs)   bands (ev):

     9.6533  10.0089  11.9598  12.5032  12.9443  17.8082  22.4967  25.0338
    26.1367  37.4211

          k =-0.6958 0.3479-0.0000 (   308 PWs)   bands (ev):

    10.0911  10.7459  10.7459  12.1353  12.9447  21.0464  21.0464  23.2308
    24.1730  44.7973

 ------ SPIN DOWN ----------


          k = 0.0000 0.0000 0.0000 (   331 PWs)   bands (ev):

     5.0380  11.2745  11.2745  11.2745  12.1695  12.1695  38.9811  41.1631
    41.1631  41.1631

          k = 0.0870 0.0870-0.0870 (   316 PWs)   bands (ev):

     5.6203  11.1587  11.3768  11.3768  12.1387  12.1387  34.3957  39.3998
    39.8518  39.8518

          k = 0.1740 0.1740-0.1740 (   311 PWs)   bands (ev):

     7.2088  11.0228  11.4453  11.4453  12.2617  12.2617  27.6407  38.5148
    38.5148  38.5874

          k = 0.2609 0.2609-0.2609 (   308 PWs)   bands (ev):

     8.8159  11.3146  11.3146  11.8407  12.6124  12.6124  21.9078  37.5707
    37.8811  37.8811

          k =-0.3479-0.3479 0.3479 (   302 PWs)   bands (ev):

     9.1725  11.2393  11.2393  12.7882  12.7882  13.5305  18.7442  37.1367
    37.7584  37.7584

          k = 0.1740 0.0000 0.0000 (   307 PWs)   bands (ev):

     5.8119  11.0442  11.4688  11.4688  11.9670  12.2559  36.8817  36.8817
    36.8856  38.8078

          k = 0.2609 0.0870-0.0870 (   308 PWs)   bands (ev):

     7.0675  10.8188  11.5059  11.6277  12.0509  12.3884  30.1956  34.9674
    36.5660  39.0806

          k = 0.3479 0.1740-0.1740 (   301 PWs)   bands (ev):

     8.7863  10.8956  11.2534  11.5637  12.6754  12.8869  24.0492  34.2167
    35.0562  36.7768

          k =-0.2609-0.4349 0.4349 (   309 PWs)   bands (ev):

     9.4444  11.0337  11.4437  11.6923  12.8005  14.7189  19.4225  32.9350
    34.7617  36.5358

          k =-0.1740-0.3479 0.3479 (   308 PWs)   bands (ev):

     9.3723  11.1079  11.4429  11.5529  12.5658  14.1361  20.6853  31.7097
    36.6705  37.4397

          k =-0.0870-0.2609 0.2609 (   309 PWs)   bands (ev):

     8.2696  10.8762  11.3287  11.5820  12.1097  12.9048  25.9962  31.6159
    39.4516  39.8568

          k = 0.0000-0.1740 0.1740 (   317 PWs)   bands (ev):

     6.5473  10.9689  11.4657  11.5484  11.9466  12.3588  32.1600  32.9080
    41.6643  42.6198

          k = 0.3479 0.0000 0.0000 (   311 PWs)   bands (ev):

     7.8491  10.5024  11.7074  11.9969  11.9969  12.4662  32.4648  32.4648
    33.8761  34.6602

          k = 0.4349 0.0870-0.0870 (   314 PWs)   bands (ev):

     9.0806  10.3002  11.5234  12.0975  12.7042  13.0666  27.0891  30.4701
    31.2203  35.1632

          k =-0.1740-0.5219 0.5219 (   311 PWs)   bands (ev):

     9.8292  10.3938  11.3362  11.9718  12.8323  15.6151  21.7015  27.7882
    31.4245  35.2598

          k =-0.0870-0.4349 0.4349 (   307 PWs)   bands (ev):

    10.0827  10.5922  11.1386  11.8663  12.5881  16.8617  20.1917  26.1530
    33.0988  35.9690

          k = 0.0000-0.3479 0.3479 (   307 PWs)   bands (ev):

     9.6877  10.7457  10.9642  11.8189  12.1711  14.2903  24.7011  26.1378
    36.0345  37.5176

          k = 0.5219 0.0000 0.0000 (   322 PWs)   bands (ev):

     9.2641   9.9805  12.6352  12.6352  12.6793  13.3618  26.5813  29.4163
    29.4163  33.4213

          k =-0.0870-0.6089 0.6089 (   314 PWs)   bands (ev):

     9.5097   9.9347  12.2798  12.5511  12.8778  15.9952  23.8282  25.3604
    29.1288  34.3111

          k = 0.0000-0.5219 0.5219 (   308 PWs)   bands (ev):

     9.9233  10.1732  11.5809  12.3174  12.7317  19.0959  20.6093  23.0232
    30.4444  34.9090

          k =-0.6958 0.0000 0.0000 (   302 PWs)   bands (ev):

     9.3166   9.7700  12.7684  12.9439  12.9439  16.1404  22.2157  28.2927
    28.2927  33.0356

          k = 0.3479 0.1740 0.0000 (   311 PWs)   bands (ev):

     8.4402  10.5924  11.2746  12.0061  12.0592  12.9428  28.4908  29.2851
    34.8298  39.8564

          k =-0.2609-0.4349 0.6089 (   313 PWs)   bands (ev):

     9.7135  10.6718  10.9957  11.8757  12.5398  14.4635  23.0190  28.7062
    31.7734  39.8052

          k =-0.1740-0.3479 0.5219 (   308 PWs)   bands (ev):

     9.9534  10.6546  11.2302  11.7628  12.7293  16.7742  19.2424  29.4251
    29.9164  39.5056

          k =-0.1740-0.5219 0.6958 (   309 PWs)   bands (ev):

     9.6746  10.1797  11.4891  12.4725  12.6314  14.8730  25.9774  26.7560
    27.3873  38.0267

          k =-0.0870-0.4349 0.6089 (   303 PWs)   bands (ev):

    10.0557  10.3304  11.1950  12.2025  12.8157  18.1068  21.3240  24.9026
    27.2161  39.1544

          k = 0.0000-0.3479 0.5219 (   311 PWs)   bands (ev):

    10.3364  10.5227  10.7693  12.0805  12.6354  17.2152  22.0631  24.3162
    28.9917  40.3531

          k =-0.6958 0.1740 0.0000 (   308 PWs)   bands (ev):

     9.6534  10.0089  11.9598  12.5032  12.9443  17.8082  22.4967  25.0338
    26.1367  37.4211

          k =-0.6958 0.3479-0.0000 (   308 PWs)   bands (ev):

    10.0912  10.7459  10.7459  12.1353  12.9447  21.0464  21.0464  23.2308
    24.1730  44.7973

     the Fermi energy is    14.5684 ev

!    total energy              =     -87.84082679 Ry
     estimated scf accuracy    <          2.5E-11 Ry
     smearing contrib. (-TS)   =      -0.00014563 Ry
     internal energy E=F+TS    =     -87.84068116 Ry

     The total energy is F=E-TS. E is the sum of the following terms:
     one-electron contribution =     -10.08237614 Ry
     hartree contribution      =      18.84231525 Ry
     xc contribution           =     -14.05969934 Ry
     ewald contribution        =     -82.54092093 Ry

     total magnetization       =     0.00 Bohr mag/cell
     absolute magnetization    =     0.00 Bohr mag/cell

     convergence has been achieved in  12 iterations

     Forces acting on atoms (cartesian axes, Ry/au):

     atom    1 type  1   force =     0.00000000    0.00000000    0.00000000
     The non-local contrib.  to forces
     atom    1 type  1   force =     0.00000000    0.00000000    0.00000000
     The ionic contribution  to forces
     atom    1 type  1   force =    -0.00000000   -0.00000000   -0.00000000
     The local contribution  to forces
     atom    1 type  1   force =    -0.00000000   -0.00000000    0.00000000
     The core correction contribution to forces
     atom    1 type  1   force =     0.00000000    0.00000000    0.00000000
     The Hubbard contrib.    to forces
     atom    1 type  1   force =     0.00000000    0.00000000    0.00000000
     The SCF correction term to forces
     atom    1 type  1   force =     0.00000000    0.00000000    0.00000000

     Total force =     0.000000     Total SCF correction =     0.000000


     Computing stress (Cartesian axis) and pressure

          total   stress  (Ry/bohr**3)                   (kbar)     P=        0.27
   0.00000181   0.00000000   0.00000000            0.27        0.00        0.00
   0.00000000   0.00000181   0.00000000            0.00        0.27        0.00
   0.00000000   0.00000000   0.00000181            0.00        0.00        0.27

     Energy error            =      2.3E-07 Ry
     Gradient error          =      0.0E+00 Ry/Bohr
     Cell gradient error     =      2.7E-01 kbar

     bfgs converged in   3 scf cycles and   2 bfgs steps
     (criteria: energy <  1.0E-04 Ry, force <  1.0E-03 Ry/Bohr, cell <  5.0E-01 kbar)

     End of BFGS Geometry Optimization

     Final enthalpy           =     -87.8408267885 Ry

     File /home/gridsan/epan1/labutil/lab3_samples/problem3/Lab3/Cu_a_3.5_ecut_40_nk_8/pwscf.bfgs deleted, as requested
Begin final coordinates
     new unit-cell volume =     75.90441 a.u.^3 (    11.24787 Ang^3 )
     density =      9.38138 g/cm^3

CELL_PARAMETERS (angstrom)
  -0.000000000   1.778334577   1.778334577
   1.778334577  -0.000000000   1.778334577
   1.778334577   1.778334577  -0.000000000

ATOMIC_POSITIONS (angstrom)
Cu            0.0000000000        0.0000000000        0.0000000000
End final coordinates



     Writing config-only to output data dir /home/gridsan/epan1/labutil/lab3_samples/problem3/Lab3/Cu_a_3.5_ecut_40_nk_8/pwscf.save/

     Final scf calculation at the relaxed structure.
     The G-vectors are recalculated for the final unit cell
     Results may differ from those at the preceding step.

     Parallelization info
     --------------------
     sticks:   dense  smooth     PW     G-vecs:    dense   smooth      PW
     Min          62      31     10                  922      329      66
     Max          63      32     11                  926      331      69
     Sum         499     253     85                 7391     2637     537

     Using Slab Decomposition



     bravais-lattice index     =            0
     lattice parameter (alat)  =       4.6768  a.u.
     unit-cell volume          =      75.9044 (a.u.)^3
     number of atoms/cell      =            1
     number of atomic types    =            1
     number of electrons       =        11.00
     number of Kohn-Sham states=           10
     kinetic-energy cutoff     =      40.0000  Ry
     charge density cutoff     =     320.0000  Ry
     scf convergence threshold =      1.0E-09
     mixing beta               =       0.5000
     number of iterations used =            8  plain     mixing
     press convergence thresh. =      5.0E-01
     Exchange-correlation=  SLA  PZ   NOGX NOGC
                           (   1   1   0   0   0   0   0)

     celldm(1)=   4.676834  celldm(2)=   0.000000  celldm(3)=   0.000000
     celldm(4)=   0.000000  celldm(5)=   0.000000  celldm(6)=   0.000000

     crystal axes: (cart. coord. in units of alat)
               a(1) = (  -0.000000   0.718556   0.718556 )  
               a(2) = (   0.718556  -0.000000   0.718556 )  
               a(3) = (   0.718556   0.718556  -0.000000 )  

     reciprocal axes: (cart. coord. in units 2 pi/alat)
               b(1) = ( -0.695840  0.695840  0.695840 )  
               b(2) = (  0.695840 -0.695840  0.695840 )  
               b(3) = (  0.695840  0.695840 -0.695840 )  


     PseudoPot. # 1 for Cu read from file:
     /home/gridsan/epan1/labutil/lab3_samples/pseudopotentials/Cu.pz-d-rrkjus.UPF
     MD5 check sum: fd38ae683e239c95a66f426e1f8e5fc7
     Pseudo is Ultrasoft, Zval = 11.0
     Generated by new atomic code, or converted to UPF format
     Using radial grid of  899 points,  3 beta functions with: 
                l(1) =   2
                l(2) =   2
                l(3) =   1
     Q(r) pseudized with 0 coefficients 


     atomic species   valence    mass     pseudopotential
        Cu            11.00    63.54600     Cu( 1.00)

     Starting magnetic structure 
     atomic species   magnetization
        Cu           0.000

     48 Sym. Ops., with inversion, found



   Cartesian axes

     site n.     atom                  positions (alat units)
         1           Cu  tau(   1) = (   0.0000000   0.0000000   0.0000000  )

     number of k points=    29  Methfessel-Paxton smearing, width (Ry)=  0.0200
                       cart. coord. in units 2pi/alat
        k(    1) = (   0.0000000   0.0000000   0.0000000), wk =   0.0019531
        k(    2) = (   0.0869800   0.0869800  -0.0869800), wk =   0.0156250
        k(    3) = (   0.1739601   0.1739601  -0.1739601), wk =   0.0156250
        k(    4) = (   0.2609401   0.2609401  -0.2609401), wk =   0.0156250
        k(    5) = (  -0.3479202  -0.3479202   0.3479202), wk =   0.0078125
        k(    6) = (   0.1739601   0.0000000   0.0000000), wk =   0.0117188
        k(    7) = (   0.2609401   0.0869800  -0.0869800), wk =   0.0468750
        k(    8) = (   0.3479202   0.1739601  -0.1739601), wk =   0.0468750
        k(    9) = (  -0.2609401  -0.4349002   0.4349002), wk =   0.0468750
        k(   10) = (  -0.1739601  -0.3479202   0.3479202), wk =   0.0468750
        k(   11) = (  -0.0869800  -0.2609401   0.2609401), wk =   0.0468750
        k(   12) = (   0.0000000  -0.1739601   0.1739601), wk =   0.0234375
        k(   13) = (   0.3479202   0.0000000   0.0000000), wk =   0.0117188
        k(   14) = (   0.4349002   0.0869800  -0.0869800), wk =   0.0468750
        k(   15) = (  -0.1739601  -0.5218802   0.5218802), wk =   0.0468750
        k(   16) = (  -0.0869800  -0.4349002   0.4349002), wk =   0.0468750
        k(   17) = (   0.0000000  -0.3479202   0.3479202), wk =   0.0234375
        k(   18) = (   0.5218802   0.0000000   0.0000000), wk =   0.0117188
        k(   19) = (  -0.0869800  -0.6088603   0.6088603), wk =   0.0468750
        k(   20) = (   0.0000000  -0.5218802   0.5218802), wk =   0.0234375
        k(   21) = (  -0.6958403   0.0000000   0.0000000), wk =   0.0058594
        k(   22) = (   0.3479202   0.1739601   0.0000000), wk =   0.0468750
        k(   23) = (  -0.2609401  -0.4349002   0.6088603), wk =   0.0937500
        k(   24) = (  -0.1739601  -0.3479202   0.5218802), wk =   0.0468750
        k(   25) = (  -0.1739601  -0.5218802   0.6958403), wk =   0.0468750
        k(   26) = (  -0.0869800  -0.4349002   0.6088603), wk =   0.0937500
        k(   27) = (   0.0000000  -0.3479202   0.5218802), wk =   0.0468750
        k(   28) = (  -0.6958403   0.1739601   0.0000000), wk =   0.0234375
        k(   29) = (  -0.6958403   0.3479202  -0.0000000), wk =   0.0117188

     Dense  grid:     7391 G-vectors     FFT dimensions: (  27,  27,  27)

     Smooth grid:     2637 G-vectors     FFT dimensions: (  20,  20,  20)

     Estimated max dynamical RAM per process >       3.89 MB

     Estimated total dynamical RAM >      31.14 MB
     Generating pointlists ...

     Initial potential from superposition of free atoms

     starting charge      10.9997, renormalised to      11.0000
     Starting wfcs are    6 randomized atomic wfcs +    4 random wfcs

     total cpu time spent up to now is        8.3 secs

     Self-consistent Calculation

     iteration #  1     ecut=    40.00 Ry     beta= 0.50
     Davidson diagonalization with overlap
     c_bands:  1 eigenvalues not converged
     c_bands:  2 eigenvalues not converged
     ethr =  1.00E-06,  avg # of iterations = 13.1

     total cpu time spent up to now is        8.8 secs

     total energy              =     -87.75901123 Ry
     estimated scf accuracy    <       0.24659822 Ry

     total magnetization       =     0.00 Bohr mag/cell
     absolute magnetization    =     0.00 Bohr mag/cell

     iteration #  2     ecut=    40.00 Ry     beta= 0.50
     Davidson diagonalization with overlap
     ethr =  2.24E-03,  avg # of iterations =  1.6

     total cpu time spent up to now is        9.0 secs

     total energy              =     -87.83387217 Ry
     estimated scf accuracy    <       0.04134066 Ry

     total magnetization       =     0.00 Bohr mag/cell
     absolute magnetization    =     0.00 Bohr mag/cell

     iteration #  3     ecut=    40.00 Ry     beta= 0.50
     Davidson diagonalization with overlap
     ethr =  3.76E-04,  avg # of iterations =  1.0

     total cpu time spent up to now is        9.2 secs

     total energy              =     -87.84074688 Ry
     estimated scf accuracy    <       0.00023206 Ry

     total magnetization       =     0.00 Bohr mag/cell
     absolute magnetization    =     0.00 Bohr mag/cell

     iteration #  4     ecut=    40.00 Ry     beta= 0.50
     Davidson diagonalization with overlap
     ethr =  2.11E-06,  avg # of iterations =  2.3

     total cpu time spent up to now is        9.5 secs

     total energy              =     -87.84082652 Ry
     estimated scf accuracy    <       0.00008355 Ry

     total magnetization       =     0.00 Bohr mag/cell
     absolute magnetization    =     0.00 Bohr mag/cell

     iteration #  5     ecut=    40.00 Ry     beta= 0.50
     Davidson diagonalization with overlap
     ethr =  7.60E-07,  avg # of iterations =  1.0

     total cpu time spent up to now is        9.6 secs

     total energy              =     -87.84084178 Ry
     estimated scf accuracy    <       0.00000002 Ry

     total magnetization       =     0.00 Bohr mag/cell
     absolute magnetization    =     0.00 Bohr mag/cell

     iteration #  6     ecut=    40.00 Ry     beta= 0.50
     Davidson diagonalization with overlap
     ethr =  1.77E-10,  avg # of iterations =  3.7

     total cpu time spent up to now is        9.9 secs

     total energy              =     -87.84084182 Ry
     estimated scf accuracy    <       0.00000007 Ry

     total magnetization       =     0.00 Bohr mag/cell
     absolute magnetization    =     0.00 Bohr mag/cell

     iteration #  7     ecut=    40.00 Ry     beta= 0.50
     Davidson diagonalization with overlap
     ethr =  1.77E-10,  avg # of iterations =  1.2

     total cpu time spent up to now is       10.0 secs

     total energy              =     -87.84084182 Ry
     estimated scf accuracy    <          7.8E-09 Ry

     total magnetization       =     0.00 Bohr mag/cell
     absolute magnetization    =     0.00 Bohr mag/cell

     iteration #  8     ecut=    40.00 Ry     beta= 0.50
     Davidson diagonalization with overlap
     ethr =  7.08E-11,  avg # of iterations =  1.1

     Magnetic moment per site  (integrated on atomic sphere of radius R)
     atom   1 (R=0.412)  charge=  9.7275  magn=  0.0000

     total cpu time spent up to now is       10.2 secs

     End of self-consistent calculation

 ------ SPIN UP ------------


          k = 0.0000 0.0000 0.0000 (   331 PWs)   bands (ev):

     5.0380  11.2744  11.2744  11.2744  12.1694  12.1694  38.9811  41.1631
    41.1631  41.1631

          k = 0.0870 0.0870-0.0870 (   326 PWs)   bands (ev):

     5.6203  11.1586  11.3767  11.3767  12.1386  12.1386  34.3956  39.3998
    39.8517  39.8517

          k = 0.1740 0.1740-0.1740 (   323 PWs)   bands (ev):

     7.2088  11.0228  11.4452  11.4452  12.2615  12.2615  27.6406  38.5146
    38.5146  38.5874

          k = 0.2609 0.2609-0.2609 (   323 PWs)   bands (ev):

     8.8159  11.3145  11.3145  11.8407  12.6123  12.6123  21.9078  37.5707
    37.8811  37.8811

          k =-0.3479-0.3479 0.3479 (   332 PWs)   bands (ev):

     9.1723  11.2391  11.2391  12.7881  12.7881  13.5305  18.7441  37.1367
    37.7583  37.7583

          k = 0.1740 0.0000 0.0000 (   327 PWs)   bands (ev):

     5.8119  11.0440  11.4686  11.4686  11.9669  12.2558  36.8812  36.8812
    36.8853  38.8078

          k = 0.2609 0.0870-0.0870 (   320 PWs)   bands (ev):

     7.0675  10.8187  11.5058  11.6276  12.0508  12.3883  30.1955  34.9672
    36.5658  39.0803

          k = 0.3479 0.1740-0.1740 (   328 PWs)   bands (ev):

     8.7862  10.8955  11.2533  11.5636  12.6753  12.8868  24.0491  34.2165
    35.0558  36.7766

          k =-0.2609-0.4349 0.4349 (   325 PWs)   bands (ev):

     9.4443  11.0336  11.4436  11.6922  12.8004  14.7188  19.4225  32.9349
    34.7616  36.5357

          k =-0.1740-0.3479 0.3479 (   328 PWs)   bands (ev):

     9.3723  11.1078  11.4428  11.5529  12.5657  14.1360  20.6852  31.7096
    36.6702  37.4396

          k =-0.0870-0.2609 0.2609 (   323 PWs)   bands (ev):

     8.2696  10.8761  11.3286  11.5819  12.1095  12.9047  25.9961  31.6159
    39.4516  39.8565

          k = 0.0000-0.1740 0.1740 (   317 PWs)   bands (ev):

     6.5473  10.9689  11.4657  11.5484  11.9465  12.3587  32.1600  32.9080
    41.6643  42.6198

          k = 0.3479 0.0000 0.0000 (   311 PWs)   bands (ev):

     7.8491  10.5023  11.7073  11.9968  11.9968  12.4661  32.4648  32.4648
    33.8761  34.6602

          k = 0.4349 0.0870-0.0870 (   321 PWs)   bands (ev):

     9.0806  10.3001  11.5233  12.0974  12.7041  13.0665  27.0891  30.4701
    31.2203  35.1630

          k =-0.1740-0.5219 0.5219 (   327 PWs)   bands (ev):

     9.8291  10.3937  11.3362  11.9717  12.8322  15.6151  21.7015  27.7882
    31.4244  35.2596

          k =-0.0870-0.4349 0.4349 (   325 PWs)   bands (ev):

    10.0826  10.5921  11.1385  11.8662  12.5880  16.8616  20.1917  26.1530
    33.0987  35.9688

          k = 0.0000-0.3479 0.3479 (   327 PWs)   bands (ev):

     9.6877  10.7456  10.9641  11.8188  12.1710  14.2902  24.7011  26.1377
    36.0342  37.5174

          k = 0.5219 0.0000 0.0000 (   323 PWs)   bands (ev):

     9.2640   9.9805  12.6351  12.6351  12.6792  13.3618  26.5812  29.4163
    29.4163  33.4213

          k =-0.0870-0.6089 0.6089 (   324 PWs)   bands (ev):

     9.5097   9.9347  12.2798  12.5510  12.8777  15.9952  23.8282  25.3604
    29.1288  34.3110

          k = 0.0000-0.5219 0.5219 (   327 PWs)   bands (ev):

     9.9232  10.1731  11.5808  12.3173  12.7316  19.0958  20.6092  23.0232
    30.4443  34.9088

          k =-0.6958 0.0000 0.0000 (   326 PWs)   bands (ev):

     9.3165   9.7699  12.7683  12.9438  12.9438  16.1404  22.2157  28.2927
    28.2927  33.0354

          k = 0.3479 0.1740 0.0000 (   322 PWs)   bands (ev):

     8.4402  10.5923  11.2745  12.0060  12.0591  12.9427  28.4907  29.2851
    34.8296  39.8562

          k =-0.2609-0.4349 0.6089 (   324 PWs)   bands (ev):

     9.7134  10.6717  10.9956  11.8756  12.5397  14.4634  23.0189  28.7061
    31.7733  39.8051

          k =-0.1740-0.3479 0.5219 (   314 PWs)   bands (ev):

     9.9534  10.6546  11.2302  11.7627  12.7292  16.7742  19.2424  29.4251
    29.9163  39.5056

          k =-0.1740-0.5219 0.6958 (   327 PWs)   bands (ev):

     9.6745  10.1796  11.4890  12.4724  12.6313  14.8730  25.9774  26.7560
    27.3872  38.0263

          k =-0.0870-0.4349 0.6089 (   325 PWs)   bands (ev):

    10.0556  10.3303  11.1948  12.2024  12.8156  18.1067  21.3239  24.9025
    27.2160  39.1541

          k = 0.0000-0.3479 0.5219 (   323 PWs)   bands (ev):

    10.3363  10.5226  10.7692  12.0804  12.6353  17.2151  22.0630  24.3162
    28.9917  40.3530

          k =-0.6958 0.1740 0.0000 (   324 PWs)   bands (ev):

     9.6533  10.0088  11.9597  12.5031  12.9442  17.8082  22.4966  25.0338
    26.1367  37.4211

          k =-0.6958 0.3479-0.0000 (   328 PWs)   bands (ev):

    10.0911  10.7458  10.7458  12.1352  12.9446  21.0464  21.0464  23.2307
    24.1730  44.7968

 ------ SPIN DOWN ----------


          k = 0.0000 0.0000 0.0000 (   331 PWs)   bands (ev):

     5.0380  11.2744  11.2744  11.2744  12.1694  12.1694  38.9811  41.1631
    41.1631  41.1631

          k = 0.0870 0.0870-0.0870 (   326 PWs)   bands (ev):

     5.6203  11.1586  11.3767  11.3767  12.1386  12.1386  34.3956  39.3998
    39.8517  39.8517

          k = 0.1740 0.1740-0.1740 (   323 PWs)   bands (ev):

     7.2088  11.0228  11.4452  11.4452  12.2615  12.2615  27.6406  38.5146
    38.5146  38.5874

          k = 0.2609 0.2609-0.2609 (   323 PWs)   bands (ev):

     8.8159  11.3145  11.3145  11.8407  12.6123  12.6123  21.9078  37.5707
    37.8811  37.8811

          k =-0.3479-0.3479 0.3479 (   332 PWs)   bands (ev):

     9.1723  11.2391  11.2391  12.7881  12.7881  13.5305  18.7441  37.1367
    37.7583  37.7583

          k = 0.1740 0.0000 0.0000 (   327 PWs)   bands (ev):

     5.8119  11.0440  11.4686  11.4686  11.9669  12.2558  36.8812  36.8812
    36.8853  38.8078

          k = 0.2609 0.0870-0.0870 (   320 PWs)   bands (ev):

     7.0675  10.8187  11.5058  11.6276  12.0508  12.3883  30.1955  34.9672
    36.5658  39.0803

          k = 0.3479 0.1740-0.1740 (   328 PWs)   bands (ev):

     8.7862  10.8955  11.2533  11.5636  12.6753  12.8868  24.0491  34.2165
    35.0558  36.7766

          k =-0.2609-0.4349 0.4349 (   325 PWs)   bands (ev):

     9.4443  11.0336  11.4436  11.6922  12.8004  14.7188  19.4225  32.9349
    34.7616  36.5357

          k =-0.1740-0.3479 0.3479 (   328 PWs)   bands (ev):

     9.3723  11.1078  11.4428  11.5529  12.5657  14.1360  20.6852  31.7096
    36.6702  37.4396

          k =-0.0870-0.2609 0.2609 (   323 PWs)   bands (ev):

     8.2696  10.8761  11.3286  11.5819  12.1095  12.9047  25.9961  31.6159
    39.4516  39.8565

          k = 0.0000-0.1740 0.1740 (   317 PWs)   bands (ev):

     6.5473  10.9689  11.4657  11.5484  11.9465  12.3587  32.1600  32.9080
    41.6643  42.6198

          k = 0.3479 0.0000 0.0000 (   311 PWs)   bands (ev):

     7.8491  10.5023  11.7073  11.9968  11.9968  12.4661  32.4648  32.4648
    33.8761  34.6602

          k = 0.4349 0.0870-0.0870 (   321 PWs)   bands (ev):

     9.0806  10.3001  11.5233  12.0974  12.7041  13.0665  27.0891  30.4701
    31.2203  35.1630

          k =-0.1740-0.5219 0.5219 (   327 PWs)   bands (ev):

     9.8291  10.3937  11.3362  11.9717  12.8322  15.6151  21.7015  27.7882
    31.4244  35.2596

          k =-0.0870-0.4349 0.4349 (   325 PWs)   bands (ev):

    10.0826  10.5921  11.1385  11.8662  12.5880  16.8616  20.1917  26.1530
    33.0987  35.9688

          k = 0.0000-0.3479 0.3479 (   327 PWs)   bands (ev):

     9.6877  10.7456  10.9641  11.8188  12.1710  14.2902  24.7011  26.1377
    36.0342  37.5174

          k = 0.5219 0.0000 0.0000 (   323 PWs)   bands (ev):

     9.2640   9.9805  12.6351  12.6351  12.6792  13.3618  26.5812  29.4163
    29.4163  33.4213

          k =-0.0870-0.6089 0.6089 (   324 PWs)   bands (ev):

     9.5097   9.9347  12.2798  12.5510  12.8777  15.9952  23.8282  25.3604
    29.1288  34.3110

          k = 0.0000-0.5219 0.5219 (   327 PWs)   bands (ev):

     9.9232  10.1731  11.5808  12.3173  12.7316  19.0958  20.6092  23.0232
    30.4443  34.9088

          k =-0.6958 0.0000 0.0000 (   326 PWs)   bands (ev):

     9.3165   9.7699  12.7683  12.9438  12.9438  16.1404  22.2157  28.2927
    28.2927  33.0354

          k = 0.3479 0.1740 0.0000 (   322 PWs)   bands (ev):

     8.4402  10.5923  11.2745  12.0060  12.0591  12.9427  28.4907  29.2851
    34.8296  39.8562

          k =-0.2609-0.4349 0.6089 (   324 PWs)   bands (ev):

     9.7134  10.6717  10.9956  11.8756  12.5397  14.4634  23.0189  28.7061
    31.7733  39.8051

          k =-0.1740-0.3479 0.5219 (   314 PWs)   bands (ev):

     9.9534  10.6546  11.2302  11.7627  12.7292  16.7742  19.2424  29.4251
    29.9163  39.5056

          k =-0.1740-0.5219 0.6958 (   327 PWs)   bands (ev):

     9.6745  10.1796  11.4890  12.4724  12.6313  14.8730  25.9774  26.7560
    27.3872  38.0263

          k =-0.0870-0.4349 0.6089 (   325 PWs)   bands (ev):

    10.0556  10.3303  11.1948  12.2024  12.8156  18.1067  21.3239  24.9025
    27.2160  39.1541

          k = 0.0000-0.3479 0.5219 (   323 PWs)   bands (ev):

    10.3363  10.5226  10.7692  12.0804  12.6353  17.2151  22.0630  24.3162
    28.9917  40.3530

          k =-0.6958 0.1740 0.0000 (   324 PWs)   bands (ev):

     9.6533  10.0088  11.9597  12.5031  12.9442  17.8082  22.4966  25.0338
    26.1367  37.4211

          k =-0.6958 0.3479-0.0000 (   328 PWs)   bands (ev):

    10.0911  10.7458  10.7458  12.1352  12.9446  21.0464  21.0464  23.2307
    24.1730  44.7968

     the Fermi energy is    14.5684 ev

!    total energy              =     -87.84084182 Ry
     estimated scf accuracy    <          1.6E-11 Ry
     smearing contrib. (-TS)   =      -0.00014558 Ry
     internal energy E=F+TS    =     -87.84069624 Ry

     The total energy is F=E-TS. E is the sum of the following terms:
     one-electron contribution =     -10.08229976 Ry
     hartree contribution      =      18.84218310 Ry
     xc contribution           =     -14.05965865 Ry
     ewald contribution        =     -82.54092093 Ry

     total magnetization       =     0.00 Bohr mag/cell
     absolute magnetization    =     0.00 Bohr mag/cell

     convergence has been achieved in   8 iterations

     Forces acting on atoms (cartesian axes, Ry/au):

     atom    1 type  1   force =     0.00000000    0.00000000    0.00000000
     The non-local contrib.  to forces
     atom    1 type  1   force =     0.00000000    0.00000000    0.00000000
     The ionic contribution  to forces
     atom    1 type  1   force =    -0.00000000   -0.00000000   -0.00000000
     The local contribution  to forces
     atom    1 type  1   force =    -0.00000000   -0.00000000    0.00000000
     The core correction contribution to forces
     atom    1 type  1   force =     0.00000000    0.00000000    0.00000000
     The Hubbard contrib.    to forces
     atom    1 type  1   force =     0.00000000    0.00000000    0.00000000
     The SCF correction term to forces
     atom    1 type  1   force =    -0.00000000    0.00000000   -0.00000000

     Total force =     0.000000     Total SCF correction =     0.000000


     Computing stress (Cartesian axis) and pressure

          total   stress  (Ry/bohr**3)                   (kbar)     P=        0.17
   0.00000117   0.00000000   0.00000000            0.17        0.00        0.00
   0.00000000   0.00000117   0.00000000            0.00        0.17        0.00
   0.00000000   0.00000000   0.00000117            0.00        0.00        0.17


     init_run     :      0.38s CPU      0.40s WALL (       2 calls)
     electrons    :      8.96s CPU      8.91s WALL (       5 calls)
     update_pot   :      0.12s CPU      0.08s WALL (       2 calls)
     forces       :      0.16s CPU      0.16s WALL (       5 calls)
     stress       :      0.42s CPU      0.39s WALL (       5 calls)

     Called by init_run:
     wfcinit      :      0.07s CPU      0.08s WALL (       2 calls)
     potinit      :      0.14s CPU      0.15s WALL (       3 calls)
     hinit0       :      0.17s CPU      0.17s WALL (       2 calls)

     Called by electrons:
     c_bands      :      7.52s CPU      7.66s WALL (      48 calls)
     sum_band     :      1.11s CPU      0.98s WALL (      48 calls)
     v_of_rho     :      0.10s CPU      0.08s WALL (      53 calls)
     newd         :      0.13s CPU      0.10s WALL (      53 calls)
     mix_rho      :      0.05s CPU      0.04s WALL (      48 calls)

     Called by c_bands:
     init_us_2    :      0.15s CPU      0.14s WALL (    6264 calls)
     init_us_2:cp :      0.14s CPU      0.13s WALL (    6264 calls)
     cegterg      :      6.34s CPU      6.03s WALL (    2784 calls)

     Called by *egterg:
     cdiaghg      :      1.56s CPU      1.48s WALL (    8186 calls)
     h_psi        :      3.61s CPU      3.46s WALL (    8476 calls)
     s_psi        :      0.06s CPU      0.06s WALL (    8476 calls)
     g_psi        :      0.02s CPU      0.02s WALL (    5576 calls)

     Called by h_psi:
     h_psi:calbec :      0.35s CPU      0.34s WALL (    8476 calls)
     vloc_psi     :      3.14s CPU      3.01s WALL (    8476 calls)
     add_vuspsi   :      0.07s CPU      0.06s WALL (    8476 calls)

     General routines
     calbec       :      0.53s CPU      0.50s WALL (   12710 calls)
     fft          :      0.12s CPU      0.11s WALL (     589 calls)
     ffts         :      0.12s CPU      0.12s WALL (     202 calls)
     fftw         :      3.11s CPU      2.96s WALL (  165890 calls)
     interpolate  :      0.13s CPU      0.13s WALL (     106 calls)

     Parallel routines

     PWSCF        :     10.23s CPU     10.45s WALL


   This run was terminated on:  10:53:49   3Nov2023            

=------------------------------------------------------------------------------=
   JOB DONE.
=------------------------------------------------------------------------------=
