Header of the LAMMPS data file 

4 atoms 
1 atom types

0.0 4.305263157894737  xlo xhi
0.0 4.305263157894737  ylo yhi
0.0 4.305263157894737  zlo zhi

Masses 

1  107.8682

Atoms # atomic 

1 1 0.00000 0.00000 0.00000 
2 1 0.00000 2.15263 2.15263 
3 1 2.15263 0.00000 2.15263 
4 1 2.15263 2.15263 0.00000 
