
     Program PWSCF v.7.2 starts on 14Oct2023 at 15:42:17 

     This program is part of the open-source Quantum ESPRESSO suite
     for quantum simulation of materials; please cite
         "P. Giannozzi et al., J. Phys.:Condens. Matter 21 395502 (2009);
         "P. Giannozzi et al., J. Phys.:Condens. Matter 29 465901 (2017);
         "P. Giannozzi et al., J. Chem. Phys. 152 154105 (2020);
          URL http://www.quantum-espresso.org", 
     in publications or presentations arising from this work. More details at
     http://www.quantum-espresso.org/quote

     Parallel version (MPI), running on     1 processors

     MPI processes distributed on     1 nodes
     41915 MiB available memory on the printing compute node when the environment starts

     Waiting for input...
     Reading input from standard input
Warning: card &CELL ignored
Warning: card / ignored

     Current dimensions of program PWSCF are:
     Max number of different atomic species (ntypx) = 10
     Max number of k-points (npk) =  40000
     Max angular momentum in pseudopotentials (lmaxx) =  4
     file Ge.pz-dn-rrkjus_psl.0.2.2.UPF: wavefunction(s)  3D renormalized
     Message from routine setup:
     using ibrav=0 with symmetry is DISCOURAGED, use correct ibrav instead

     Subspace diagonalization in iterative solution of the eigenvalue problem:
     a serial algorithm will be used


     G-vector sticks info
     --------------------
     sticks:   dense  smooth     PW     G-vecs:    dense   smooth      PW
     Sum         463     463    151                 6615     6615    1211

     Using Slab Decomposition



     bravais-lattice index     =            0
     lattice parameter (alat)  =       7.4953  a.u.
     unit-cell volume          =     297.7536 (a.u.)^3
     number of atoms/cell      =            2
     number of atomic types    =            1
     number of electrons       =        28.00
     number of Kohn-Sham states=           14
     kinetic-energy cutoff     =      30.0000  Ry
     charge density cutoff     =     120.0000  Ry
     scf convergence threshold =      1.0E-07
     mixing beta               =       0.5000
     number of iterations used =            8  plain     mixing
     Exchange-correlation= LDA
                           (   1   1   0   0   0   0   0)

     celldm(1)=   7.495329  celldm(2)=   0.000000  celldm(3)=   0.000000
     celldm(4)=   0.000000  celldm(5)=   0.000000  celldm(6)=   0.000000

     crystal axes: (cart. coord. in units of alat)
               a(1) = (   0.000000   0.707107   0.707107 )  
               a(2) = (   0.707107   0.000000   0.707107 )  
               a(3) = (   0.707107   0.707107   0.000000 )  

     reciprocal axes: (cart. coord. in units 2 pi/alat)
               b(1) = ( -0.707107  0.707107  0.707107 )  
               b(2) = (  0.707107 -0.707107  0.707107 )  
               b(3) = (  0.707107  0.707107 -0.707107 )  


     PseudoPot. # 1 for Ge read from file:
     ../Ge.pz-dn-rrkjus_psl.0.2.2.UPF
     MD5 check sum: 9948ad5293734715c8cf6021b6c26e6d
     Pseudo is Ultrasoft + core correction, Zval = 14.0
     Generated using "atomic" code by A. Dal Corso  v.5.0.2 svn rev. 9415
     Using radial grid of 1207 points,  6 beta functions with: 
                l(1) =   0
                l(2) =   0
                l(3) =   1
                l(4) =   1
                l(5) =   2
                l(6) =   2
     Q(r) pseudized with 0 coefficients 


     atomic species   valence    mass     pseudopotential
        Ge            14.00    72.63000     Ge( 1.00)

     48 Sym. Ops., with inversion, found (24 have fractional translation)



   Cartesian axes

     site n.     atom                  positions (alat units)
         1           Ge  tau(   1) = (   0.0000000   0.0000000   0.0000000  )
         2           Ge  tau(   2) = (   0.3535536   0.3535536   0.3535536  )

     number of k points=     8
                       cart. coord. in units 2pi/alat
        k(    1) = (   0.0000000   0.0000000   0.0000000), wk =   0.0312500
        k(    2) = (   0.1767767   0.1767767  -0.1767767), wk =   0.2500000
        k(    3) = (  -0.3535534  -0.3535534   0.3535534), wk =   0.1250000
        k(    4) = (   0.3535534   0.0000000   0.0000000), wk =   0.1875000
        k(    5) = (  -0.1767767  -0.5303301   0.5303301), wk =   0.7500000
        k(    6) = (   0.0000000  -0.3535534   0.3535534), wk =   0.3750000
        k(    7) = (  -0.7071068   0.0000000   0.0000000), wk =   0.0937500
        k(    8) = (  -0.7071068   0.3535534   0.0000000), wk =   0.1875000

     Dense  grid:     6615 G-vectors     FFT dimensions: (  32,  32,  32)

     Estimated max dynamical RAM per process >      28.21 MB

     Check: negative core charge=   -0.000248

     Initial potential from superposition of free atoms

     starting charge      27.9988, renormalised to      28.0000
     Starting wfcs are   18 randomized atomic wfcs

     total cpu time spent up to now is        0.9 secs

     Self-consistent Calculation

     iteration #  1     ecut=    30.00 Ry     beta= 0.50
     Davidson diagonalization with overlap
     ethr =  1.00E-02,  avg # of iterations =  2.0

     Threshold (ethr) on eigenvalues was too large:
     Diagonalizing with lowered threshold

     Davidson diagonalization with overlap
     ethr =  1.38E-04,  avg # of iterations =  2.0

     total cpu time spent up to now is        1.7 secs

     total energy              =    -421.74207481 Ry
     estimated scf accuracy    <       0.04285307 Ry

     iteration #  2     ecut=    30.00 Ry     beta= 0.50
     Davidson diagonalization with overlap
     ethr =  1.53E-04,  avg # of iterations =  1.0

     total cpu time spent up to now is        2.0 secs

     total energy              =    -421.74077676 Ry
     estimated scf accuracy    <       0.00748359 Ry

     iteration #  3     ecut=    30.00 Ry     beta= 0.50
     Davidson diagonalization with overlap
     ethr =  2.67E-05,  avg # of iterations =  2.0

     total cpu time spent up to now is        2.4 secs

     total energy              =    -421.74140777 Ry
     estimated scf accuracy    <       0.00008608 Ry

     iteration #  4     ecut=    30.00 Ry     beta= 0.50
     Davidson diagonalization with overlap
     ethr =  3.07E-07,  avg # of iterations =  4.0

     total cpu time spent up to now is        3.0 secs

     total energy              =    -421.74143019 Ry
     estimated scf accuracy    <       0.00001624 Ry

     iteration #  5     ecut=    30.00 Ry     beta= 0.50
     Davidson diagonalization with overlap
     ethr =  5.80E-08,  avg # of iterations =  2.5

     total cpu time spent up to now is        3.4 secs

     total energy              =    -421.74143209 Ry
     estimated scf accuracy    <       0.00000108 Ry

     iteration #  6     ecut=    30.00 Ry     beta= 0.50
     Davidson diagonalization with overlap
     ethr =  3.85E-09,  avg # of iterations =  3.8

     total cpu time spent up to now is        3.9 secs

     total energy              =    -421.74143265 Ry
     estimated scf accuracy    <       0.00000018 Ry

     iteration #  7     ecut=    30.00 Ry     beta= 0.50
     Davidson diagonalization with overlap
     ethr =  6.42E-10,  avg # of iterations =  2.5

     total cpu time spent up to now is        4.4 secs

     End of self-consistent calculation

          k = 0.0000 0.0000 0.0000 (   869 PWs)   bands (ev):

   -16.4504 -16.4504 -16.4504 -16.4226 -16.4226 -16.2049 -16.2049 -16.2049
   -16.1823 -16.1823  -4.4581   8.5654   8.5654   8.5655

          k = 0.1768 0.1768-0.1768 (   827 PWs)   bands (ev):

   -16.4599 -16.4599 -16.4391 -16.3802 -16.3802 -16.2136 -16.2136 -16.2064
   -16.1562 -16.1562  -3.6978   3.7472   7.6534   7.6535

          k =-0.3536-0.3536 0.3536 (   832 PWs)   bands (ev):

   -16.4740 -16.4740 -16.4314 -16.3675 -16.3675 -16.2312 -16.2312 -16.2155
   -16.1428 -16.1428  -2.3076   0.7857   7.1197   7.1197

          k = 0.3536 0.0000 0.0000 (   833 PWs)   bands (ev):

   -16.4654 -16.4654 -16.4625 -16.3731 -16.3394 -16.2848 -16.2127 -16.1633
   -16.1633 -16.1603  -3.4243   3.7811   6.4571   6.4571

          k =-0.1768-0.5303 0.5303 (   822 PWs)   bands (ev):

   -16.4923 -16.4769 -16.4100 -16.3347 -16.3181 -16.2991 -16.2455 -16.2125
   -16.1334 -16.1233  -1.8939   1.0443   4.7009   6.0850

          k = 0.0000-0.3536 0.3536 (   819 PWs)   bands (ev):

   -16.4828 -16.4745 -16.3961 -16.3617 -16.3373 -16.2576 -16.2398 -16.2239
   -16.1369 -16.1286  -2.5251   1.9217   4.5504   7.0126

          k =-0.7071 0.0000 0.0000 (   806 PWs)   bands (ev):

   -16.4688 -16.4688 -16.4005 -16.4005 -16.2774 -16.2773 -16.2275 -16.2275
   -16.1239 -16.1239  -0.4805  -0.4804   5.3927   5.3927

          k =-0.7071 0.3536 0.0000 (   848 PWs)   bands (ev):

   -16.5007 -16.5007 -16.3558 -16.3557 -16.3019 -16.3017 -16.2690 -16.2689
   -16.1231 -16.1231  -0.3747  -0.3746   4.5087   4.5087

     highest occupied level (ev):     8.5655

!    total energy              =    -421.74143265 Ry
     estimated scf accuracy    <       0.00000005 Ry

     The total energy is the sum of the following terms:
     one-electron contribution =    -272.32056989 Ry
     hartree contribution      =     161.48735166 Ry
     xc contribution           =    -111.69824506 Ry
     ewald contribution        =    -199.20996937 Ry

     convergence has been achieved in   7 iterations

     Forces acting on atoms (cartesian axes, Ry/au):

     atom    1 type  1   force =    -0.00000000   -0.00000000    0.00000000
     atom    2 type  1   force =     0.00000000    0.00000000   -0.00000000
     The non-local contrib.  to forces
     atom    1 type  1   force =    -0.00000000    0.00000000    0.00000000
     atom    2 type  1   force =    -0.00000000   -0.00000000   -0.00000000
     The ionic contribution  to forces
     atom    1 type  1   force =     0.00000990    0.00000990    0.00000990
     atom    2 type  1   force =    -0.00000990   -0.00000990   -0.00000990
     The local contribution  to forces
     atom    1 type  1   force =     0.00000000    0.00000000    0.00000000
     atom    2 type  1   force =    -0.00035391   -0.00035391   -0.00035391
     The core correction contribution to forces
     atom    1 type  1   force =     0.00000000    0.00000000    0.00000000
     atom    2 type  1   force =    -0.00004520   -0.00004520   -0.00004520
     The Hubbard contrib.    to forces
     atom    1 type  1   force =     0.00000000    0.00000000    0.00000000
     atom    2 type  1   force =     0.00000000    0.00000000    0.00000000
     The SCF correction term to forces
     atom    1 type  1   force =    -0.00000000   -0.00000000   -0.00000000
     atom    2 type  1   force =     0.00000000    0.00000000    0.00000000

     Total force =     0.000000     Total SCF correction =     0.000000


     Computing stress (Cartesian axis) and pressure

          total   stress  (Ry/bohr**3)                   (kbar)     P=     -166.25
  -0.00113012  -0.00000000   0.00000000         -166.25       -0.00        0.00
  -0.00000000  -0.00113012   0.00000000           -0.00     -166.25        0.00
   0.00000000  -0.00000000  -0.00113012            0.00       -0.00     -166.25


     init_run     :      0.80s CPU      0.74s WALL (       1 calls)
     electrons    :      5.01s CPU      3.51s WALL (       1 calls)
     forces       :      0.12s CPU      0.07s WALL (       1 calls)
     stress       :      1.15s CPU      0.73s WALL (       1 calls)

     Called by init_run:
     wfcinit      :      0.38s CPU      0.31s WALL (       1 calls)
     potinit      :      0.00s CPU      0.01s WALL (       1 calls)
     hinit0       :      0.38s CPU      0.39s WALL (       1 calls)

     Called by electrons:
     c_bands      :      3.68s CPU      2.59s WALL (       8 calls)
     sum_band     :      1.02s CPU      0.70s WALL (       8 calls)
     v_of_rho     :      0.05s CPU      0.04s WALL (       8 calls)
     newd         :      0.27s CPU      0.18s WALL (       8 calls)
     mix_rho      :      0.01s CPU      0.01s WALL (       8 calls)

     Called by c_bands:
     init_us_2    :      0.15s CPU      0.11s WALL (     152 calls)
     init_us_2:cp :      0.15s CPU      0.11s WALL (     152 calls)
     cegterg      :      3.33s CPU      2.33s WALL (      64 calls)

     Called by *egterg:
     cdiaghg      :      0.20s CPU      0.14s WALL (     214 calls)
     h_psi        :      3.14s CPU      2.24s WALL (     230 calls)
     s_psi        :      0.06s CPU      0.04s WALL (     230 calls)
     g_psi        :      0.02s CPU      0.02s WALL (     158 calls)

     Called by h_psi:
     h_psi:calbec :      0.07s CPU      0.05s WALL (     230 calls)
     vloc_psi     :      2.99s CPU      2.13s WALL (     230 calls)
     add_vuspsi   :      0.06s CPU      0.05s WALL (     230 calls)

     General routines
     calbec       :      0.10s CPU      0.07s WALL (     334 calls)
     fft          :      0.18s CPU      0.18s WALL (      41 calls)
     ffts         :      0.01s CPU      0.01s WALL (       8 calls)
     fftw         :      2.81s CPU      2.00s WALL (    5712 calls)

     Parallel routines

     PWSCF        :      7.23s CPU      5.22s WALL


   This run was terminated on:  15:42:22  14Oct2023            

=------------------------------------------------------------------------------=
   JOB DONE.
=------------------------------------------------------------------------------=
