
     Program PWSCF v.7.2 starts on 31Oct2023 at 10:25: 5 

     This program is part of the open-source Quantum ESPRESSO suite
     for quantum simulation of materials; please cite
         "P. Giannozzi et al., J. Phys.:Condens. Matter 21 395502 (2009);
         "P. Giannozzi et al., J. Phys.:Condens. Matter 29 465901 (2017);
         "P. Giannozzi et al., J. Chem. Phys. 152 154105 (2020);
          URL http://www.quantum-espresso.org", 
     in publications or presentations arising from this work. More details at
     http://www.quantum-espresso.org/quote

     Parallel version (MPI), running on     8 processors

     MPI processes distributed on     8 nodes
     186324 MiB available memory on the printing compute node when the environment starts

     Waiting for input...
     Reading input from standard input

     Current dimensions of program PWSCF are:
     Max number of different atomic species (ntypx) = 10
     Max number of k-points (npk) =  40000
     Max angular momentum in pseudopotentials (lmaxx) =  4
     file Fe.pbe-nd-rrkjus.UPF: wavefunction(s)  4S renormalized
     Message from routine find_sym:
     Not a group! Trying with lower acceptance parameter...
     Message from routine find_sym:
     Symmetry operations form a group
     Message from routine setup:
     using ibrav=0 with symmetry is DISCOURAGED, use correct ibrav instead

     R & G space division:  proc/nbgrp/npool/nimage =       8
     Subspace diagonalization in iterative solution of the eigenvalue problem:
     a serial algorithm will be used


     Parallelization info
     --------------------
     sticks:   dense  smooth     PW     G-vecs:    dense   smooth      PW
     Min          45      23      7                 1167      417      77
     Max          46      24      9                 1174      422      80
     Sum         367     187     61                 9369     3357     627

     Using Slab Decomposition



     bravais-lattice index     =            0
     lattice parameter (alat)  =       4.7243  a.u.
     unit-cell volume          =     149.1185 (a.u.)^3
     number of atoms/cell      =            2
     number of atomic types    =            1
     number of electrons       =        16.00
     number of Kohn-Sham states=           12
     kinetic-energy cutoff     =      30.0000  Ry
     charge density cutoff     =     240.0000  Ry
     scf convergence threshold =      1.0E-07
     mixing beta               =       0.5000
     number of iterations used =            8  plain     mixing
     energy convergence thresh.=      1.0E-04
     force convergence thresh. =      1.0E-03
     press convergence thresh. =      5.0E-01
     Exchange-correlation=  SLA  PW   PBE  PBE
                           (   1   4   3   4   0   0   0)
     nstep                     =           50


     celldm(1)=   4.724315  celldm(2)=   0.000000  celldm(3)=   0.000000
     celldm(4)=   0.000000  celldm(5)=   0.000000  celldm(6)=   0.000000

     crystal axes: (cart. coord. in units of alat)
               a(1) = (   1.000000   0.000000   0.000000 )  
               a(2) = (  -0.500000   0.866025   0.000000 )  
               a(3) = (   0.000000   0.000000   1.632993 )  

     reciprocal axes: (cart. coord. in units 2 pi/alat)
               b(1) = (  1.000000  0.577350 -0.000000 )  
               b(2) = (  0.000000  1.154701  0.000000 )  
               b(3) = (  0.000000 -0.000000  0.612372 )  


     PseudoPot. # 1 for Fe read from file:
     /home/gridsan/epan1/labutil/lab3_samples/pseudopotentials/Fe.pbe-nd-rrkjus.UPF
     MD5 check sum: 398036227a04b607635f6f5e8dfd8242
     Pseudo is Ultrasoft + core correction, Zval =  8.0
     Generated by new atomic code, or converted to UPF format
     Using radial grid of  957 points,  6 beta functions with: 
                l(1) =   0
                l(2) =   0
                l(3) =   1
                l(4) =   1
                l(5) =   2
                l(6) =   2
     Q(r) pseudized with 0 coefficients 


     atomic species   valence    mass     pseudopotential
        Fe             8.00    55.84500     Fe( 1.00)

     Starting magnetic structure 
     atomic species   magnetization
        Fe           0.700

      4 Sym. Ops. (no inversion) found



   Cartesian axes

     site n.     atom                  positions (alat units)
         1           Fe  tau(   1) = (   0.0000000   0.0000000   0.0000000  )
         2           Fe  tau(   2) = (  -0.0000000   0.5773520   0.8164960  )

     number of k points=    27  Methfessel-Paxton smearing, width (Ry)=  0.0200
                       cart. coord. in units 2pi/alat
        k(    1) = (   0.0000000   0.0000000   0.0000000), wk =   0.0080000
        k(    2) = (   0.0000000   0.0000000   0.1224745), wk =   0.0160000
        k(    3) = (   0.0000000   0.0000000   0.2449490), wk =   0.0160000
        k(    4) = (   0.0000000   0.2309401   0.0000000), wk =   0.0160000
        k(    5) = (   0.0000000   0.2309401   0.1224745), wk =   0.0320000
        k(    6) = (   0.0000000   0.2309401   0.2449490), wk =   0.0320000
        k(    7) = (   0.0000000   0.4618802   0.0000000), wk =   0.0160000
        k(    8) = (   0.0000000   0.4618802   0.1224745), wk =   0.0320000
        k(    9) = (   0.0000000   0.4618802   0.2449490), wk =   0.0320000
        k(   10) = (   0.2000000   0.3464102   0.0000000), wk =   0.0320000
        k(   11) = (   0.2000000   0.3464102   0.1224745), wk =   0.0640000
        k(   12) = (   0.2000000   0.3464102   0.2449490), wk =   0.0640000
        k(   13) = (   0.2000000   0.5773503   0.0000000), wk =   0.0160000
        k(   14) = (   0.2000000   0.5773503   0.1224745), wk =   0.0320000
        k(   15) = (   0.2000000   0.5773503   0.2449490), wk =   0.0320000
        k(   16) = (   0.2000000  -0.1154701   0.0000000), wk =   0.0320000
        k(   17) = (   0.2000000  -0.1154701   0.1224745), wk =   0.0640000
        k(   18) = (   0.2000000  -0.1154701   0.2449490), wk =   0.0640000
        k(   19) = (   0.4000000  -0.2309401   0.0000000), wk =   0.0320000
        k(   20) = (   0.4000000  -0.2309401   0.1224745), wk =   0.0640000
        k(   21) = (   0.4000000  -0.2309401   0.2449490), wk =   0.0640000
        k(   22) = (   0.4000000  -0.0000000   0.0000000), wk =   0.0160000
        k(   23) = (   0.4000000  -0.0000000  -0.1224745), wk =   0.0320000
        k(   24) = (   0.4000000  -0.0000000  -0.2449490), wk =   0.0320000
        k(   25) = (   0.4000000  -0.4618802   0.0000000), wk =   0.0320000
        k(   26) = (   0.4000000  -0.4618802   0.1224745), wk =   0.0640000
        k(   27) = (   0.4000000  -0.4618802   0.2449490), wk =   0.0640000

     Dense  grid:     9369 G-vectors     FFT dimensions: (  24,  24,  40)

     Smooth grid:     3357 G-vectors     FFT dimensions: (  18,  18,  27)

     Estimated max dynamical RAM per process >       7.80 MB

     Estimated total dynamical RAM >      62.38 MB
     Generating pointlists ...
     new r_m :   0.4125 (alat units)  1.9488 (a.u.) for type    1

     Initial potential from superposition of free atoms

     starting charge      15.9987, renormalised to      16.0000
     Starting wfcs are   12 randomized atomic wfcs

     total cpu time spent up to now is        0.5 secs

     Self-consistent Calculation

     iteration #  1     ecut=    30.00 Ry     beta= 0.50
     Davidson diagonalization with overlap
     ethr =  1.00E-02,  avg # of iterations =  3.7

     total cpu time spent up to now is        0.9 secs

     total energy              =    -111.37160701 Ry
     estimated scf accuracy    <       0.50640076 Ry

     total magnetization       =     6.35 Bohr mag/cell
     absolute magnetization    =     6.35 Bohr mag/cell

     iteration #  2     ecut=    30.00 Ry     beta= 0.50
     Davidson diagonalization with overlap
     ethr =  3.17E-03,  avg # of iterations =  1.9

     total cpu time spent up to now is        1.1 secs

     total energy              =    -111.53313901 Ry
     estimated scf accuracy    <       0.04261020 Ry

     total magnetization       =     5.77 Bohr mag/cell
     absolute magnetization    =     5.79 Bohr mag/cell

     iteration #  3     ecut=    30.00 Ry     beta= 0.50
     Davidson diagonalization with overlap
     ethr =  2.66E-04,  avg # of iterations =  1.7

     total cpu time spent up to now is        1.4 secs

     total energy              =    -111.55690178 Ry
     estimated scf accuracy    <       0.00912324 Ry

     total magnetization       =     5.80 Bohr mag/cell
     absolute magnetization    =     5.83 Bohr mag/cell

     iteration #  4     ecut=    30.00 Ry     beta= 0.50
     Davidson diagonalization with overlap
     ethr =  5.70E-05,  avg # of iterations =  2.3

     total cpu time spent up to now is        1.7 secs

     total energy              =    -111.55537969 Ry
     estimated scf accuracy    <       0.07826612 Ry

     total magnetization       =     5.57 Bohr mag/cell
     absolute magnetization    =     5.64 Bohr mag/cell

     iteration #  5     ecut=    30.00 Ry     beta= 0.50
     Davidson diagonalization with overlap
     ethr =  5.70E-05,  avg # of iterations =  1.2

     total cpu time spent up to now is        1.9 secs

     total energy              =    -111.56076270 Ry
     estimated scf accuracy    <       0.00039203 Ry

     total magnetization       =     5.54 Bohr mag/cell
     absolute magnetization    =     5.63 Bohr mag/cell

     iteration #  6     ecut=    30.00 Ry     beta= 0.50
     Davidson diagonalization with overlap
     ethr =  2.45E-06,  avg # of iterations =  4.5

     total cpu time spent up to now is        2.3 secs

     total energy              =    -111.56132546 Ry
     estimated scf accuracy    <       0.00016335 Ry

     total magnetization       =     5.41 Bohr mag/cell
     absolute magnetization    =     5.52 Bohr mag/cell

     iteration #  7     ecut=    30.00 Ry     beta= 0.50
     Davidson diagonalization with overlap
     ethr =  1.02E-06,  avg # of iterations =  1.8

     total cpu time spent up to now is        2.6 secs

     total energy              =    -111.56141603 Ry
     estimated scf accuracy    <       0.00011268 Ry

     total magnetization       =     5.35 Bohr mag/cell
     absolute magnetization    =     5.47 Bohr mag/cell

     iteration #  8     ecut=    30.00 Ry     beta= 0.50
     Davidson diagonalization with overlap
     ethr =  7.04E-07,  avg # of iterations =  1.6

     total cpu time spent up to now is        2.8 secs

     total energy              =    -111.56163745 Ry
     estimated scf accuracy    <       0.00003673 Ry

     total magnetization       =     5.23 Bohr mag/cell
     absolute magnetization    =     5.36 Bohr mag/cell

     iteration #  9     ecut=    30.00 Ry     beta= 0.50
     Davidson diagonalization with overlap
     ethr =  2.30E-07,  avg # of iterations =  2.7

     total cpu time spent up to now is        3.2 secs

     total energy              =    -111.56165193 Ry
     estimated scf accuracy    <       0.00004227 Ry

     total magnetization       =     5.19 Bohr mag/cell
     absolute magnetization    =     5.33 Bohr mag/cell

     iteration # 10     ecut=    30.00 Ry     beta= 0.50
     Davidson diagonalization with overlap
     ethr =  2.30E-07,  avg # of iterations =  1.9

     total cpu time spent up to now is        3.4 secs

     total energy              =    -111.56169279 Ry
     estimated scf accuracy    <       0.00000224 Ry

     total magnetization       =     5.14 Bohr mag/cell
     absolute magnetization    =     5.28 Bohr mag/cell

     iteration # 11     ecut=    30.00 Ry     beta= 0.50
     Davidson diagonalization with overlap
     ethr =  1.40E-08,  avg # of iterations =  6.6

     total cpu time spent up to now is        4.0 secs

     total energy              =    -111.56170042 Ry
     estimated scf accuracy    <       0.00000065 Ry

     total magnetization       =     5.12 Bohr mag/cell
     absolute magnetization    =     5.27 Bohr mag/cell

     iteration # 12     ecut=    30.00 Ry     beta= 0.50
     Davidson diagonalization with overlap
     ethr =  4.08E-09,  avg # of iterations =  3.7

     Magnetic moment per site  (integrated on atomic sphere of radius R)
     atom   1 (R=0.412)  charge=  6.6055  magn=  2.5698
     atom   2 (R=0.412)  charge=  6.6056  magn=  2.5703

     total cpu time spent up to now is        4.4 secs

     End of self-consistent calculation

 ------ SPIN UP ------------


          k = 0.0000 0.0000 0.0000 (   391 PWs)   bands (ev):

     5.4325   8.9926  11.6603  11.6603  11.6913  12.0046  12.0046  12.3912
    12.3912  13.5863  13.5863  14.1577

          k = 0.0000 0.0000 0.1225 (   397 PWs)   bands (ev):

     5.8317   8.9125  11.5742  11.5742  11.5838  11.8934  11.8934  12.6301
    12.6301  12.9443  13.5586  13.5586

          k = 0.0000 0.0000 0.2449 (   410 PWs)   bands (ev):

     6.9323   8.2725  11.3833  11.5429  11.5429  11.5778  11.6776  11.6776
    13.0573  13.0573  13.4004  13.4004

          k = 0.0000 0.2309 0.0000 (   407 PWs)   bands (ev):

     6.7884   9.6923  11.0141  11.0581  11.6907  12.0202  12.2229  12.3466
    12.4109  12.6113  13.7183  17.7288

          k = 0.0000 0.2309 0.1225 (   412 PWs)   bands (ev):

     7.1288   9.7205  10.7680  11.0818  11.5222  11.9641  12.0414  12.4383
    12.6364  12.7484  13.6448  16.1023

          k = 0.0000 0.2309 0.2449 (   411 PWs)   bands (ev):

     8.0555   9.2032  10.6402  11.0307  11.3904  11.7487  12.0162  12.2184
    13.0239  13.3608  13.4050  14.3738

          k = 0.0000 0.4619 0.0000 (   423 PWs)   bands (ev):

     9.0874   9.5111   9.7112  11.4806  11.5440  11.7542  12.0546  13.6017
    13.7475  13.8172  14.4436  20.1789

          k = 0.0000 0.4619 0.1225 (   417 PWs)   bands (ev):

     8.9292   9.4832  10.1489  10.7217  11.7174  12.0813  12.8518  13.4500
    13.6340  13.8390  14.2081  18.5726

          k = 0.0000 0.4619 0.2449 (   416 PWs)   bands (ev):

     8.9552   9.2869  10.3118  10.5717  12.1959  12.5897  12.8490  13.5225
    13.7015  13.7840  14.3243  16.2224

          k = 0.2000 0.3464 0.0000 (   414 PWs)   bands (ev):

     8.9232  10.0667  10.2694  10.3568  11.3533  11.8134  12.0191  12.7701
    13.5246  13.6814  14.2353  21.2251

          k = 0.2000 0.3464 0.1225 (   415 PWs)   bands (ev):

     9.0317   9.9222  10.4417  10.5016  11.4717  11.7351  11.9054  12.8534
    13.3858  13.6640  14.3583  18.5034

          k = 0.2000 0.3464 0.2449 (   415 PWs)   bands (ev):

     9.3132   9.6567  10.7278  10.8512  11.3691  11.4044  12.0988  12.6144
    13.6298  13.8529  14.6367  16.0410

          k = 0.2000 0.5774 0.0000 (   418 PWs)   bands (ev):

     9.6641   9.8611   9.9738  11.0437  11.2965  11.5357  12.2583  13.5710
    13.6365  13.8166  17.3531  18.8437

          k = 0.2000 0.5774 0.1225 (   415 PWs)   bands (ev):

     9.4826   9.9729  10.4259  10.5600  11.2192  11.8909  12.3533  13.2998
    13.5906  13.8931  17.5625  18.8024

          k = 0.2000 0.5774 0.2449 (   414 PWs)   bands (ev):

     9.5106   9.8351  10.4729  10.9012  11.1759  11.8795  12.5912  12.7866
    13.7132  13.9068  18.0738  18.5873

          k = 0.2000-0.1155 0.0000 (   407 PWs)   bands (ev):

     6.7884   9.6923  11.0141  11.0581  11.6907  12.0203  12.2229  12.3466
    12.4109  12.6113  13.7183  17.7288

          k = 0.2000-0.1155 0.1225 (   412 PWs)   bands (ev):

     7.1289   9.7205  10.7680  11.0818  11.5222  11.9641  12.0414  12.4383
    12.6364  12.7484  13.6448  16.1023

          k = 0.2000-0.1155 0.2449 (   411 PWs)   bands (ev):

     8.0555   9.2032  10.6402  11.0307  11.3904  11.7487  12.0162  12.2184
    13.0239  13.3608  13.4050  14.3738

          k = 0.4000-0.2309 0.0000 (   423 PWs)   bands (ev):

     9.0875   9.5111   9.7112  11.4806  11.5440  11.7542  12.0546  13.6017
    13.7475  13.8172  14.4436  20.1788

          k = 0.4000-0.2309 0.1225 (   417 PWs)   bands (ev):

     8.9292   9.4832  10.1489  10.7217  11.7174  12.0813  12.8518  13.4500
    13.6340  13.8390  14.2081  18.5726

          k = 0.4000-0.2309 0.2449 (   416 PWs)   bands (ev):

     8.9552   9.2869  10.3118  10.5717  12.1959  12.5897  12.8490  13.5225
    13.7015  13.7840  14.3242  16.2224

          k = 0.4000-0.0000 0.0000 (   414 PWs)   bands (ev):

     8.9232  10.0667  10.2694  10.3568  11.3533  11.8134  12.0191  12.7701
    13.5246  13.6814  14.2353  21.2251

          k = 0.4000-0.0000-0.1225 (   415 PWs)   bands (ev):

     9.0317   9.9222  10.4417  10.5016  11.4716  11.7351  11.9054  12.8534
    13.3858  13.6640  14.3583  18.5034

          k = 0.4000-0.0000-0.2449 (   415 PWs)   bands (ev):

     9.3132   9.6567  10.7278  10.8512  11.3691  11.4044  12.0988  12.6144
    13.6298  13.8529  14.6367  16.0410

          k = 0.4000-0.4619 0.0000 (   418 PWs)   bands (ev):

     9.6641   9.8611   9.9738  11.0437  11.2965  11.5357  12.2583  13.5710
    13.6365  13.8166  17.3531  18.8437

          k = 0.4000-0.4619 0.1225 (   415 PWs)   bands (ev):

     9.4826   9.9729  10.4259  10.5600  11.2192  11.8909  12.3533  13.2998
    13.5906  13.8930  17.5625  18.8024

          k = 0.4000-0.4619 0.2449 (   414 PWs)   bands (ev):

     9.5106   9.8351  10.4729  10.9012  11.1760  11.8795  12.5912  12.7865
    13.7132  13.9068  18.0738  18.5873

 ------ SPIN DOWN ----------


          k = 0.0000 0.0000 0.0000 (   391 PWs)   bands (ev):

     5.6995  10.4634  14.1367  14.3037  14.3037  14.3411  14.7350  14.7350
    15.3711  15.3712  16.7447  16.7447

          k = 0.0000 0.0000 0.1225 (   397 PWs)   bands (ev):

     6.1024  10.0985  13.7350  13.9796  14.2259  14.2259  14.6071  14.6071
    15.6304  15.6304  16.7137  16.7138

          k = 0.0000 0.0000 0.2449 (   410 PWs)   bands (ev):

     7.2383   8.8184  13.3481  13.6112  14.2024  14.2024  14.3589  14.3589
    16.1232  16.1232  16.5283  16.5283

          k = 0.0000 0.2309 0.0000 (   407 PWs)   bands (ev):

     7.0804  11.3422  12.8503  13.3386  14.2441  14.8986  14.9085  14.9937
    15.0896  15.4270  16.9147  19.4298

          k = 0.0000 0.2309 0.1225 (   412 PWs)   bands (ev):

     7.4420  11.0649  12.6153  13.4301  14.0521  14.4968  14.7619  15.2173
    15.5256  15.5457  16.8175  18.3041

          k = 0.0000 0.2309 0.2449 (   411 PWs)   bands (ev):

     8.4591   9.8810  12.8076  13.3936  13.7536  14.1537  14.7772  14.9809
    16.0275  16.2396  16.5094  17.0999

          k = 0.0000 0.4619 0.0000 (   423 PWs)   bands (ev):

    10.0955  11.4754  11.7285  12.8981  14.2601  14.3274  14.4154  16.5912
    16.7515  16.8731  17.0364  21.5278

          k = 0.0000 0.4619 0.1225 (   417 PWs)   bands (ev):

    10.1642  11.3370  11.9928  12.7685  14.2868  14.5230  14.7243  16.5044
    16.6273  16.7151  16.9433  19.9684

          k = 0.0000 0.4619 0.2449 (   416 PWs)   bands (ev):

    10.4326  10.9053  12.4222  12.7772  14.4228  14.9854  15.0672  15.8215
    16.7147  16.7827  16.8280  17.9924

          k = 0.2000 0.3464 0.0000 (   414 PWs)   bands (ev):

     9.4176  12.0513  12.1456  12.4469  14.0035  14.2668  14.6830  15.4419
    16.3990  16.8679  16.9517  22.6551

          k = 0.2000 0.3464 0.1225 (   415 PWs)   bands (ev):

     9.6533  11.7944  12.3171  12.5680  13.9101  14.2043  14.5699  15.5888
    16.4083  16.5803  17.1661  20.1656

          k = 0.2000 0.3464 0.2449 (   415 PWs)   bands (ev):

    10.2898  11.1138  12.7245  12.8624  13.5963  13.7386  14.8893  15.4942
    16.5022  16.8414  17.2150  18.0837

          k = 0.2000 0.5774 0.0000 (   418 PWs)   bands (ev):

    11.4916  11.7582  11.7964  12.4535  13.9107  14.0081  14.7611  16.4307
    16.7118  16.8127  19.1704  20.5492

          k = 0.2000 0.5774 0.1225 (   415 PWs)   bands (ev):

    11.3150  11.8243  12.2937  12.3520  13.7231  14.0313  14.8879  16.3753
    16.4581  16.8079  19.3018  20.4373

          k = 0.2000 0.5774 0.2449 (   414 PWs)   bands (ev):

    11.3524  11.6268  12.6149  13.0548  13.2760  13.8289  15.2043  15.6556
    16.6011  16.8226  19.5985  20.0736

          k = 0.2000-0.1155 0.0000 (   407 PWs)   bands (ev):

     7.0804  11.3422  12.8503  13.3386  14.2441  14.8986  14.9085  14.9937
    15.0896  15.4270  16.9147  19.4298

          k = 0.2000-0.1155 0.1225 (   412 PWs)   bands (ev):

     7.4420  11.0649  12.6153  13.4301  14.0520  14.4968  14.7619  15.2173
    15.5256  15.5457  16.8175  18.3041

          k = 0.2000-0.1155 0.2449 (   411 PWs)   bands (ev):

     8.4591   9.8810  12.8076  13.3936  13.7536  14.1537  14.7772  14.9810
    16.0275  16.2395  16.5094  17.0999

          k = 0.4000-0.2309 0.0000 (   423 PWs)   bands (ev):

    10.0955  11.4754  11.7285  12.8981  14.2600  14.3274  14.4154  16.5912
    16.7515  16.8731  17.0364  21.5278

          k = 0.4000-0.2309 0.1225 (   417 PWs)   bands (ev):

    10.1642  11.3370  11.9928  12.7685  14.2868  14.5230  14.7243  16.5044
    16.6273  16.7151  16.9433  19.9684

          k = 0.4000-0.2309 0.2449 (   416 PWs)   bands (ev):

    10.4326  10.9053  12.4222  12.7772  14.4228  14.9854  15.0672  15.8215
    16.7147  16.7827  16.8280  17.9924

          k = 0.4000-0.0000 0.0000 (   414 PWs)   bands (ev):

     9.4176  12.0513  12.1456  12.4469  14.0035  14.2668  14.6830  15.4419
    16.3990  16.8679  16.9517  22.6551

          k = 0.4000-0.0000-0.1225 (   415 PWs)   bands (ev):

     9.6533  11.7944  12.3171  12.5679  13.9101  14.2043  14.5699  15.5888
    16.4083  16.5803  17.1661  20.1656

          k = 0.4000-0.0000-0.2449 (   415 PWs)   bands (ev):

    10.2898  11.1138  12.7245  12.8624  13.5963  13.7386  14.8893  15.4942
    16.5022  16.8414  17.2150  18.0837

          k = 0.4000-0.4619 0.0000 (   418 PWs)   bands (ev):

    11.4916  11.7582  11.7964  12.4535  13.9107  14.0081  14.7611  16.4307
    16.7118  16.8127  19.1704  20.5492

          k = 0.4000-0.4619 0.1225 (   415 PWs)   bands (ev):

    11.3150  11.8243  12.2937  12.3520  13.7231  14.0313  14.8879  16.3753
    16.4581  16.8079  19.3018  20.4373

          k = 0.4000-0.4619 0.2449 (   414 PWs)   bands (ev):

    11.3524  11.6268  12.6149  13.0548  13.2760  13.8289  15.2043  15.6556
    16.6011  16.8226  19.5984  20.0735

     the Fermi energy is    14.3113 ev

!    total energy              =    -111.56170412 Ry
     estimated scf accuracy    <       0.00000004 Ry
     smearing contrib. (-TS)   =      -0.00068008 Ry
     internal energy E=F+TS    =    -111.56102404 Ry

     The total energy is F=E-TS. E is the sum of the following terms:
     one-electron contribution =      16.48900704 Ry
     hartree contribution      =      12.80917726 Ry
     xc contribution           =     -53.02470208 Ry
     ewald contribution        =     -87.83450626 Ry

     total magnetization       =     5.11 Bohr mag/cell
     absolute magnetization    =     5.25 Bohr mag/cell

     convergence has been achieved in  12 iterations

     Forces acting on atoms (cartesian axes, Ry/au):

     atom    1 type  1   force =     0.00000000   -0.00000578    0.00000000
     atom    2 type  1   force =     0.00000000    0.00000578    0.00000000
     The non-local contrib.  to forces
     atom    1 type  1   force =     0.00000000    0.00000016    0.00000000
     atom    2 type  1   force =     0.00000000    0.00000233    0.00000000
     The ionic contribution  to forces
     atom    1 type  1   force =    -0.00000000    0.00000403   -0.00002690
     atom    2 type  1   force =     0.00000000   -0.00000403    0.00002690
     The local contribution  to forces
     atom    1 type  1   force =    -0.00000000   -0.00000604    0.00000000
     atom    2 type  1   force =    -0.00000000    0.00000118    0.00007653
     The core correction contribution to forces
     atom    1 type  1   force =    -0.00000000   -0.00000028    0.00000000
     atom    2 type  1   force =    -0.00000000   -0.00000018    0.00001279
     The Hubbard contrib.    to forces
     atom    1 type  1   force =     0.00000000    0.00000000    0.00000000
     atom    2 type  1   force =     0.00000000    0.00000000    0.00000000
     The SCF correction term to forces
     atom    1 type  1   force =    -0.00000000    0.00000127    0.00000000
     atom    2 type  1   force =    -0.00000000    0.00001139   -0.00000001

     Total force =     0.000008     Total SCF correction =     0.000011
     SCF correction compared to forces is large: reduce conv_thr to get better values


     Computing stress (Cartesian axis) and pressure

          total   stress  (Ry/bohr**3)                   (kbar)     P=      195.41
   0.00102579   0.00000000   0.00000000          150.90        0.00        0.00
   0.00000000   0.00102572   0.00000000            0.00      150.89        0.00
   0.00000000   0.00000000   0.00193360            0.00        0.00      284.44


     BFGS Geometry Optimization
     Energy error            =      0.0E+00 Ry
     Gradient error          =      5.8E-06 Ry/Bohr
     Cell gradient error     =      2.8E+02 kbar

     number of scf cycles    =   1
     number of bfgs steps    =   0

     enthalpy           new  =    -111.5617041183 Ry

     new trust radius        =       0.1180602074 bohr
     new conv_thr            =       0.0000001000 Ry

     new unit-cell volume =    164.44742 a.u.^3 (    24.36859 Ang^3 )
     density =      7.61085 g/cm^3

CELL_PARAMETERS (angstrom)
   2.564112185  -0.000000000   0.000000000
  -1.282056092   2.220582247   0.000000000
   0.000000000   0.000000000   4.279830622

ATOMIC_POSITIONS (angstrom)
Fe            0.0000000000       -0.0000031357        0.0000000000
Fe            0.0000000000        1.4803957387        2.1399137887



     Writing config-only to output data dir /home/gridsan/epan1/labutil/lab3_samples/problem1/Lab3/Fe_hcp_a_2.5_ecut_30_nk_5/pwscf.save/
     NEW-OLD atomic charge density approx. for the potential

     Check: negative core charge=   -0.000004
     extrapolated charge   17.49131, renormalised to   16.00000
     Generating pointlists ...

     total cpu time spent up to now is        5.0 secs

     Self-consistent Calculation

     iteration #  1     ecut=    30.00 Ry     beta= 0.50
     Davidson diagonalization with overlap
     ethr =  1.00E-06,  avg # of iterations = 12.5

     total cpu time spent up to now is        6.0 secs

     total energy              =    -110.72956086 Ry
     estimated scf accuracy    <       0.86667985 Ry

     total magnetization       =     4.10 Bohr mag/cell
     absolute magnetization    =     4.32 Bohr mag/cell

     iteration #  2     ecut=    30.00 Ry     beta= 0.50
     Davidson diagonalization with overlap
     ethr =  5.42E-03,  avg # of iterations =  3.3

     total cpu time spent up to now is        6.4 secs

     total energy              =    -111.52917595 Ry
     estimated scf accuracy    <       1.91624029 Ry

     total magnetization       =     4.59 Bohr mag/cell
     absolute magnetization    =     4.82 Bohr mag/cell

     iteration #  3     ecut=    30.00 Ry     beta= 0.50
     Davidson diagonalization with overlap
     ethr =  5.42E-03,  avg # of iterations =  1.7

     total cpu time spent up to now is        6.7 secs

     total energy              =    -111.59510919 Ry
     estimated scf accuracy    <       0.37814442 Ry

     total magnetization       =     5.03 Bohr mag/cell
     absolute magnetization    =     5.21 Bohr mag/cell

     iteration #  4     ecut=    30.00 Ry     beta= 0.50
     Davidson diagonalization with overlap
     ethr =  2.36E-03,  avg # of iterations =  1.1

     total cpu time spent up to now is        6.9 secs

     total energy              =    -111.60415126 Ry
     estimated scf accuracy    <       0.16806924 Ry

     total magnetization       =     5.14 Bohr mag/cell
     absolute magnetization    =     5.30 Bohr mag/cell

     iteration #  5     ecut=    30.00 Ry     beta= 0.50
     Davidson diagonalization with overlap
     ethr =  1.05E-03,  avg # of iterations =  1.0

     total cpu time spent up to now is        7.2 secs

     total energy              =    -111.60669153 Ry
     estimated scf accuracy    <       0.16203491 Ry

     total magnetization       =     5.15 Bohr mag/cell
     absolute magnetization    =     5.32 Bohr mag/cell

     iteration #  6     ecut=    30.00 Ry     beta= 0.50
     Davidson diagonalization with overlap
     ethr =  1.01E-03,  avg # of iterations =  1.0

     total cpu time spent up to now is        7.4 secs

     total energy              =    -111.61232686 Ry
     estimated scf accuracy    <       0.15229302 Ry

     total magnetization       =     5.15 Bohr mag/cell
     absolute magnetization    =     5.31 Bohr mag/cell

     iteration #  7     ecut=    30.00 Ry     beta= 0.50
     Davidson diagonalization with overlap
     ethr =  9.52E-04,  avg # of iterations =  1.0

     total cpu time spent up to now is        7.7 secs

     total energy              =    -111.53034426 Ry
     estimated scf accuracy    <       0.17197592 Ry

     total magnetization       =     5.14 Bohr mag/cell
     absolute magnetization    =     5.31 Bohr mag/cell

     iteration #  8     ecut=    30.00 Ry     beta= 0.50
     Davidson diagonalization with overlap
     ethr =  9.52E-04,  avg # of iterations =  2.0

     total cpu time spent up to now is        8.0 secs

     total energy              =    -111.57472398 Ry
     estimated scf accuracy    <       0.00391358 Ry

     total magnetization       =     5.51 Bohr mag/cell
     absolute magnetization    =     5.63 Bohr mag/cell

     iteration #  9     ecut=    30.00 Ry     beta= 0.50
     Davidson diagonalization with overlap
     ethr =  2.45E-05,  avg # of iterations =  4.3

     total cpu time spent up to now is        8.4 secs

     total energy              =    -111.59462733 Ry
     estimated scf accuracy    <       0.01789778 Ry

     total magnetization       =     5.56 Bohr mag/cell
     absolute magnetization    =     5.68 Bohr mag/cell

     iteration # 10     ecut=    30.00 Ry     beta= 0.50
     Davidson diagonalization with overlap
     ethr =  2.45E-05,  avg # of iterations =  3.9

     total cpu time spent up to now is        8.8 secs

     total energy              =    -111.60246622 Ry
     estimated scf accuracy    <       0.08400311 Ry

     total magnetization       =     5.72 Bohr mag/cell
     absolute magnetization    =     5.86 Bohr mag/cell

     iteration # 11     ecut=    30.00 Ry     beta= 0.50
     Davidson diagonalization with overlap
     ethr =  2.45E-05,  avg # of iterations =  1.0

     total cpu time spent up to now is        9.0 secs

     total energy              =    -111.54653115 Ry
     estimated scf accuracy    <       0.08818907 Ry

     total magnetization       =     5.77 Bohr mag/cell
     absolute magnetization    =     5.92 Bohr mag/cell

     iteration # 12     ecut=    30.00 Ry     beta= 0.50
     Davidson diagonalization with overlap
     ethr =  2.45E-05,  avg # of iterations =  5.3

     total cpu time spent up to now is        9.5 secs

     total energy              =    -111.56898295 Ry
     estimated scf accuracy    <       0.01844041 Ry

     total magnetization       =     5.69 Bohr mag/cell
     absolute magnetization    =     5.83 Bohr mag/cell

     iteration # 13     ecut=    30.00 Ry     beta= 0.50
     Davidson diagonalization with overlap
     ethr =  2.45E-05,  avg # of iterations =  4.5

     total cpu time spent up to now is       10.0 secs

     total energy              =    -111.57622842 Ry
     estimated scf accuracy    <       0.00983723 Ry

     total magnetization       =     5.80 Bohr mag/cell
     absolute magnetization    =     5.94 Bohr mag/cell

     iteration # 14     ecut=    30.00 Ry     beta= 0.50
     Davidson diagonalization with overlap
     ethr =  2.45E-05,  avg # of iterations =  2.0

     total cpu time spent up to now is       11.2 secs

     total energy              =    -111.57658114 Ry
     estimated scf accuracy    <       0.00103730 Ry

     total magnetization       =     5.79 Bohr mag/cell
     absolute magnetization    =     5.94 Bohr mag/cell

     iteration # 15     ecut=    30.00 Ry     beta= 0.50
     Davidson diagonalization with overlap
     ethr =  6.48E-06,  avg # of iterations =  3.9

     total cpu time spent up to now is       11.6 secs

     total energy              =    -111.57729121 Ry
     estimated scf accuracy    <       0.00222959 Ry

     total magnetization       =     5.80 Bohr mag/cell
     absolute magnetization    =     5.94 Bohr mag/cell

     iteration # 16     ecut=    30.00 Ry     beta= 0.50
     Davidson diagonalization with overlap
     ethr =  6.48E-06,  avg # of iterations =  1.4

     total cpu time spent up to now is       11.9 secs

     total energy              =    -111.57692032 Ry
     estimated scf accuracy    <       0.00121635 Ry

     total magnetization       =     5.78 Bohr mag/cell
     absolute magnetization    =     5.91 Bohr mag/cell

     iteration # 17     ecut=    30.00 Ry     beta= 0.50
     Davidson diagonalization with overlap
     ethr =  6.48E-06,  avg # of iterations =  2.0

     total cpu time spent up to now is       12.2 secs

     total energy              =    -111.57717742 Ry
     estimated scf accuracy    <       0.00003727 Ry

     total magnetization       =     5.79 Bohr mag/cell
     absolute magnetization    =     5.92 Bohr mag/cell

     iteration # 18     ecut=    30.00 Ry     beta= 0.50
     Davidson diagonalization with overlap
     ethr =  2.33E-07,  avg # of iterations =  3.3

     total cpu time spent up to now is       12.5 secs

     total energy              =    -111.57720374 Ry
     estimated scf accuracy    <       0.00001267 Ry

     total magnetization       =     5.79 Bohr mag/cell
     absolute magnetization    =     5.92 Bohr mag/cell

     iteration # 19     ecut=    30.00 Ry     beta= 0.50
     Davidson diagonalization with overlap
     ethr =  7.92E-08,  avg # of iterations =  2.6

     total cpu time spent up to now is       12.8 secs

     total energy              =    -111.57721232 Ry
     estimated scf accuracy    <       0.00003247 Ry

     total magnetization       =     5.79 Bohr mag/cell
     absolute magnetization    =     5.93 Bohr mag/cell

     iteration # 20     ecut=    30.00 Ry     beta= 0.50
     Davidson diagonalization with overlap
     ethr =  7.92E-08,  avg # of iterations =  1.0

     total cpu time spent up to now is       13.1 secs

     total energy              =    -111.57719695 Ry
     estimated scf accuracy    <       0.00002947 Ry

     total magnetization       =     5.79 Bohr mag/cell
     absolute magnetization    =     5.93 Bohr mag/cell

     iteration # 21     ecut=    30.00 Ry     beta= 0.50
     Davidson diagonalization with overlap
     ethr =  7.92E-08,  avg # of iterations =  3.0

     total cpu time spent up to now is       13.4 secs

     total energy              =    -111.57720586 Ry
     estimated scf accuracy    <       0.00000115 Ry

     total magnetization       =     5.80 Bohr mag/cell
     absolute magnetization    =     5.93 Bohr mag/cell

     iteration # 22     ecut=    30.00 Ry     beta= 0.50
     Davidson diagonalization with overlap
     ethr =  7.19E-09,  avg # of iterations =  2.9

     total cpu time spent up to now is       13.8 secs

     total energy              =    -111.57720640 Ry
     estimated scf accuracy    <       0.00000093 Ry

     total magnetization       =     5.79 Bohr mag/cell
     absolute magnetization    =     5.93 Bohr mag/cell

     iteration # 23     ecut=    30.00 Ry     beta= 0.50
     Davidson diagonalization with overlap
     ethr =  5.80E-09,  avg # of iterations =  1.3

     total cpu time spent up to now is       14.1 secs

     total energy              =    -111.57720629 Ry
     estimated scf accuracy    <       0.00000036 Ry

     total magnetization       =     5.79 Bohr mag/cell
     absolute magnetization    =     5.93 Bohr mag/cell

     iteration # 24     ecut=    30.00 Ry     beta= 0.50
     Davidson diagonalization with overlap
     ethr =  2.25E-09,  avg # of iterations =  2.4

     Magnetic moment per site  (integrated on atomic sphere of radius R)
     atom   1 (R=0.412)  charge=  6.4757  magn=  2.8937
     atom   2 (R=0.412)  charge=  6.4757  magn=  2.8937

     total cpu time spent up to now is       14.4 secs

     End of self-consistent calculation

 ------ SPIN UP ------------


          k = 0.0000 0.0000 0.0000 (   391 PWs)   bands (ev):

     4.2379   7.6125   9.8926   9.9652   9.9652  10.2308  10.2308  10.6500
    10.6500  11.5935  11.5935  12.2612

          k = 0.0000 0.0000 0.1168 (   397 PWs)   bands (ev):

     4.5955   7.5071   9.8134   9.9094   9.9094  10.1506  10.1506  10.8249
    10.8249  11.1066  11.5630  11.5631

          k = 0.0000 0.0000 0.2337 (   410 PWs)   bands (ev):

     5.5897   6.8408   9.6731   9.8707   9.8902   9.8903   9.9918   9.9918
    11.1530  11.1530  11.4261  11.4261

          k = 0.0000 0.2252 0.0000 (   407 PWs)   bands (ev):

     5.5191   8.2763   9.4300   9.4551   9.9319  10.3414  10.4551  10.5369
    10.5669  10.7698  11.6889  15.4481

          k = 0.0000 0.2252 0.1168 (   412 PWs)   bands (ev):

     5.8291   8.2695   9.2085   9.4925   9.8027  10.2540  10.2891  10.6402
    10.8035  10.8643  11.6241  13.8670

          k = 0.0000 0.2252 0.2337 (   411 PWs)   bands (ev):

     6.6773   7.7388   9.1087   9.4286   9.7180  10.0106  10.3248  10.4769
    11.1157  11.3954  11.4237  12.2848

          k = 0.0000 0.4503 0.0000 (   423 PWs)   bands (ev):

     7.7192   8.1168   8.3051   9.9059   9.9407  10.0028  10.2773  11.6611
    11.7522  11.7690  12.4135  17.8459

          k = 0.0000 0.4503 0.1168 (   417 PWs)   bands (ev):

     7.5987   8.0845   8.6543   9.1724  10.0822  10.3295  11.0359  11.4851
    11.6835  11.8227  12.2225  16.3015

          k = 0.0000 0.4503 0.2337 (   416 PWs)   bands (ev):

     7.6282   7.9093   8.7962   8.9884  10.4713  10.8230  10.9990  11.6069
    11.7334  11.7915  12.4014  14.1234

          k = 0.1950 0.3377 0.0000 (   414 PWs)   bands (ev):

     7.5538   8.6180   8.8259   8.8712   9.7291  10.0354  10.2891  10.8497
    11.5878  11.6262  12.2362  18.7050

          k = 0.1950 0.3377 0.1168 (   415 PWs)   bands (ev):

     7.6604   8.4921   8.9392   9.0083   9.8123   9.9762  10.2054  10.9583
    11.3977  11.6980  12.3255  16.1210

          k = 0.1950 0.3377 0.2337 (   415 PWs)   bands (ev):

     7.9301   8.2476   9.1653   9.2783   9.7034   9.7439  10.3662  10.7969
    11.6293  11.8423  12.5939  13.8743

          k = 0.1950 0.5629 0.0000 (   418 PWs)   bands (ev):

     8.3002   8.4475   8.5389   9.5269   9.6889   9.8332  10.4323  11.5697
    11.5738  11.7981  15.2869  16.5825

          k = 0.1950 0.5629 0.1168 (   415 PWs)   bands (ev):

     8.1265   8.5341   8.9411   9.0601   9.5943  10.1926  10.5486  11.3112
    11.5957  11.8603  15.4830  16.5670

          k = 0.1950 0.5629 0.2337 (   414 PWs)   bands (ev):

     8.1413   8.4146   8.9548   9.2972   9.5921  10.1877  10.7762  10.9214
    11.7127  11.8779  15.9736  16.4268

          k = 0.1950-0.1126 0.0000 (   407 PWs)   bands (ev):

     5.5191   8.2763   9.4300   9.4552   9.9318  10.3414  10.4551  10.5369
    10.5669  10.7698  11.6889  15.4481

          k = 0.1950-0.1126 0.1168 (   412 PWs)   bands (ev):

     5.8291   8.2696   9.2085   9.4925   9.8026  10.2540  10.2891  10.6402
    10.8035  10.8643  11.6241  13.8670

          k = 0.1950-0.1126 0.2337 (   411 PWs)   bands (ev):

     6.6773   7.7388   9.1087   9.4286   9.7180  10.0106  10.3248  10.4769
    11.1157  11.3954  11.4237  12.2848

          k = 0.3900-0.2252 0.0000 (   423 PWs)   bands (ev):

     7.7192   8.1168   8.3051   9.9058   9.9407  10.0028  10.2773  11.6611
    11.7522  11.7690  12.4135  17.8459

          k = 0.3900-0.2252 0.1168 (   417 PWs)   bands (ev):

     7.5987   8.0845   8.6544   9.1724  10.0822  10.3295  11.0358  11.4851
    11.6835  11.8227  12.2225  16.3015

          k = 0.3900-0.2252 0.2337 (   416 PWs)   bands (ev):

     7.6282   7.9093   8.7962   8.9884  10.4713  10.8230  10.9990  11.6069
    11.7334  11.7915  12.4013  14.1233

          k = 0.3900-0.0000 0.0000 (   414 PWs)   bands (ev):

     7.5538   8.6180   8.8259   8.8712   9.7291  10.0354  10.2891  10.8497
    11.5878  11.6261  12.2361  18.7050

          k = 0.3900-0.0000-0.1168 (   415 PWs)   bands (ev):

     7.6604   8.4921   8.9392   9.0083   9.8123   9.9762  10.2054  10.9583
    11.3977  11.6980  12.3254  16.1210

          k = 0.3900-0.0000-0.2337 (   415 PWs)   bands (ev):

     7.9301   8.2476   9.1653   9.2783   9.7034   9.7439  10.3662  10.7969
    11.6293  11.8423  12.5939  13.8743

          k = 0.3900-0.4503 0.0000 (   418 PWs)   bands (ev):

     8.3002   8.4475   8.5390   9.5269   9.6889   9.8332  10.4323  11.5697
    11.5738  11.7981  15.2869  16.5824

          k = 0.3900-0.4503 0.1168 (   415 PWs)   bands (ev):

     8.1265   8.5341   8.9411   9.0601   9.5943  10.1926  10.5486  11.3112
    11.5957  11.8603  15.4830  16.5670

          k = 0.3900-0.4503 0.2337 (   414 PWs)   bands (ev):

     8.1413   8.4146   8.9548   9.2972   9.5921  10.1877  10.7762  10.9214
    11.7127  11.8779  15.9736  16.4267

 ------ SPIN DOWN ----------


          k = 0.0000 0.0000 0.0000 (   391 PWs)   bands (ev):

     4.5710   9.2965  12.4573  12.6413  12.9636  12.9636  13.3120  13.3120
    13.9699  13.9700  15.0916  15.0916

          k = 0.0000 0.0000 0.1168 (   397 PWs)   bands (ev):

     4.9330   8.8178  12.0646  12.5096  12.9111  12.9112  13.2149  13.2149
    14.1691  14.1691  15.0574  15.0574

          k = 0.0000 0.0000 0.2337 (   410 PWs)   bands (ev):

     5.9644   7.4522  11.9159  12.1921  12.8987  12.8988  13.0229  13.0230
    14.5611  14.5611  14.8936  14.8936

          k = 0.0000 0.2252 0.0000 (   407 PWs)   bands (ev):

     5.8748  10.1647  11.3887  12.0927  12.8198  13.4440  13.4806  13.5673
    13.6692  13.9417  15.2216  17.3362

          k = 0.0000 0.2252 0.1168 (   412 PWs)   bands (ev):

     6.2050   9.7449  11.2971  12.1747  12.6489  13.0493  13.4281  13.7748
    14.0025  14.0475  15.1347  16.3451

          k = 0.0000 0.2252 0.2337 (   411 PWs)   bands (ev):

     7.1424   8.4898  11.5626  12.0988  12.4209  12.7586  13.4336  13.5914
    14.4668  14.6087  14.8699  15.3348

          k = 0.0000 0.4503 0.0000 (   423 PWs)   bands (ev):

     8.8456  10.3990  10.5734  11.6006  12.8049  12.9247  13.0573  15.0176
    15.1383  15.1389  15.3038  19.3145

          k = 0.0000 0.4503 0.1168 (   417 PWs)   bands (ev):

     8.9516  10.2008  10.8141  11.5155  12.8293  13.1739  13.2224  14.9011
    15.0108  15.0439  15.2655  17.8371

          k = 0.0000 0.4503 0.2337 (   416 PWs)   bands (ev):

     9.2689   9.7483  11.2031  11.5028  12.9439  13.3865  13.6815  14.3164
    15.0661  15.1109  15.1942  16.0820

          k = 0.1950 0.3377 0.0000 (   414 PWs)   bands (ev):

     8.1236  10.8264  10.9865  11.2905  12.6962  12.8126  13.2837  13.8422
    14.8211  15.1418  15.2998  20.2552

          k = 0.1950 0.3377 0.1168 (   415 PWs)   bands (ev):

     8.3559  10.5483  11.1270  11.3930  12.5687  12.7651  13.2066  14.0208
    14.7746  14.9730  15.4535  17.9765

          k = 0.1950 0.3377 0.2337 (   415 PWs)   bands (ev):

     8.9904   9.8298  11.4780  11.6287  12.2597  12.3885  13.4942  14.0218
    14.8230  15.1877  15.4920  16.1710

          k = 0.1950 0.5629 0.0000 (   418 PWs)   bands (ev):

    10.2792  10.6410  10.7114  11.1775  12.5953  12.6204  13.2510  14.7713
    15.0344  15.0706  17.2968  18.4939

          k = 0.1950 0.5629 0.1168 (   415 PWs)   bands (ev):

    10.1838  10.6685  11.0850  11.1297  12.4117  12.6036  13.4092  14.7193
    14.8029  15.1157  17.3988  18.3954

          k = 0.1950 0.5629 0.2337 (   414 PWs)   bands (ev):

    10.2339  10.4711  11.3933  11.7106  12.0061  12.4124  13.7209  14.1209
    14.9437  15.1381  17.6499  18.0718

          k = 0.1950-0.1126 0.0000 (   407 PWs)   bands (ev):

     5.8748  10.1647  11.3887  12.0926  12.8198  13.4440  13.4805  13.5674
    13.6693  13.9417  15.2216  17.3362

          k = 0.1950-0.1126 0.1168 (   412 PWs)   bands (ev):

     6.2050   9.7449  11.2971  12.1747  12.6489  13.0493  13.4281  13.7748
    14.0025  14.0475  15.1347  16.3451

          k = 0.1950-0.1126 0.2337 (   411 PWs)   bands (ev):

     7.1424   8.4898  11.5626  12.0988  12.4209  12.7586  13.4336  13.5914
    14.4668  14.6087  14.8699  15.3348

          k = 0.3900-0.2252 0.0000 (   423 PWs)   bands (ev):

     8.8456  10.3990  10.5734  11.6005  12.8049  12.9246  13.0573  15.0176
    15.1383  15.1389  15.3038  19.3144

          k = 0.3900-0.2252 0.1168 (   417 PWs)   bands (ev):

     8.9516  10.2008  10.8141  11.5155  12.8293  13.1739  13.2224  14.9012
    15.0108  15.0439  15.2655  17.8370

          k = 0.3900-0.2252 0.2337 (   416 PWs)   bands (ev):

     9.2689   9.7483  11.2031  11.5028  12.9439  13.3864  13.6815  14.3164
    15.0661  15.1109  15.1942  16.0820

          k = 0.3900-0.0000 0.0000 (   414 PWs)   bands (ev):

     8.1236  10.8264  10.9865  11.2905  12.6962  12.8126  13.2837  13.8421
    14.8211  15.1418  15.2999  20.2552

          k = 0.3900-0.0000-0.1168 (   415 PWs)   bands (ev):

     8.3559  10.5483  11.1270  11.3930  12.5687  12.7651  13.2067  14.0208
    14.7746  14.9730  15.4535  17.9765

          k = 0.3900-0.0000-0.2337 (   415 PWs)   bands (ev):

     8.9904   9.8298  11.4780  11.6287  12.2597  12.3884  13.4942  14.0219
    14.8230  15.1877  15.4920  16.1710

          k = 0.3900-0.4503 0.0000 (   418 PWs)   bands (ev):

    10.2792  10.6410  10.7114  11.1775  12.5952  12.6204  13.2510  14.7713
    15.0343  15.0706  17.2968  18.4938

          k = 0.3900-0.4503 0.1168 (   415 PWs)   bands (ev):

    10.1838  10.6685  11.0851  11.1297  12.4117  12.6035  13.4092  14.7193
    14.8029  15.1157  17.3988  18.3954

          k = 0.3900-0.4503 0.2337 (   414 PWs)   bands (ev):

    10.2339  10.4711  11.3933  11.7106  12.0061  12.4124  13.7209  14.1209
    14.9437  15.1381  17.6499  18.0718

     the Fermi energy is    12.7439 ev

!    total energy              =    -111.57720637 Ry
     estimated scf accuracy    <          6.2E-09 Ry
     smearing contrib. (-TS)   =      -0.00014721 Ry
     internal energy E=F+TS    =    -111.57705916 Ry

     The total energy is F=E-TS. E is the sum of the following terms:
     one-electron contribution =      12.56313540 Ry
     hartree contribution      =      13.82175662 Ry
     xc contribution           =     -52.95109399 Ry
     ewald contribution        =     -85.01085718 Ry

     total magnetization       =     5.79 Bohr mag/cell
     absolute magnetization    =     5.93 Bohr mag/cell

     convergence has been achieved in  24 iterations

     Forces acting on atoms (cartesian axes, Ry/au):

     atom    1 type  1   force =    -0.00000000   -0.00000088    0.00000000
     atom    2 type  1   force =     0.00000000    0.00000088    0.00000000
     The non-local contrib.  to forces
     atom    1 type  1   force =    -0.00000000   -0.00000214    0.00000000
     atom    2 type  1   force =     0.00000000    0.00000245    0.00000000
     The ionic contribution  to forces
     atom    1 type  1   force =     0.00000000    0.00000505   -0.00002583
     atom    2 type  1   force =     0.00000000   -0.00000505    0.00002583
     The local contribution  to forces
     atom    1 type  1   force =    -0.00000000   -0.00000374   -0.00000000
     atom    2 type  1   force =    -0.00000000    0.00000359    0.00008263
     The core correction contribution to forces
     atom    1 type  1   force =     0.00000000    0.00000006    0.00000001
     atom    2 type  1   force =    -0.00000000   -0.00000009    0.00001340
     The Hubbard contrib.    to forces
     atom    1 type  1   force =     0.00000000    0.00000000    0.00000000
     atom    2 type  1   force =     0.00000000    0.00000000    0.00000000
     The SCF correction term to forces
     atom    1 type  1   force =    -0.00000000   -0.00000006   -0.00000000
     atom    2 type  1   force =     0.00000000    0.00000003   -0.00000000

     Total force =     0.000001     Total SCF correction =     0.000000


     Computing stress (Cartesian axis) and pressure

          total   stress  (Ry/bohr**3)                   (kbar)     P=       59.49
   0.00037500  -0.00000000   0.00000000           55.16       -0.00        0.00
  -0.00000000   0.00037496   0.00000000           -0.00       55.16        0.00
   0.00000000   0.00000000   0.00046331            0.00        0.00       68.16

     Energy error            =      1.6E-02 Ry
     Gradient error          =      8.8E-07 Ry/Bohr
     Cell gradient error     =      6.8E+01 kbar

     number of scf cycles    =   2
     number of bfgs steps    =   1

     enthalpy           old  =    -111.5617041183 Ry
     enthalpy           new  =    -111.5772063652 Ry

     CASE: enthalpy          _new < enthalpy          _old

     new trust radius        =       0.0438727992 bohr
     new conv_thr            =       0.0000000010 Ry

     new unit-cell volume =    172.08932 a.u.^3 (    25.50101 Ang^3 )
     density =      7.27287 g/cm^3

CELL_PARAMETERS (angstrom)
   2.600863588  -0.000000000   0.000000000
  -1.300431794   2.252407046   0.000000000
   0.000000000   0.000000000   4.353041969

ATOMIC_POSITIONS (angstrom)
Fe            0.0000000000       -0.0000039246        0.0000000000
Fe            0.0000000000        1.5016131233        2.1765194360



     Writing config-only to output data dir /home/gridsan/epan1/labutil/lab3_samples/problem1/Lab3/Fe_hcp_a_2.5_ecut_30_nk_5/pwscf.save/
     NEW-OLD atomic charge density approx. for the potential

     Check: negative core charge=   -0.000009
     extrapolated charge   16.71045, renormalised to   16.00000
     Generating pointlists ...

     total cpu time spent up to now is       15.2 secs

     Self-consistent Calculation

     iteration #  1     ecut=    30.00 Ry     beta= 0.50
     Davidson diagonalization with overlap
     ethr =  1.00E-06,  avg # of iterations =  9.6

     total cpu time spent up to now is       16.1 secs

     total energy              =    -111.38884693 Ry
     estimated scf accuracy    <       0.19017038 Ry

     total magnetization       =     5.77 Bohr mag/cell
     absolute magnetization    =     5.96 Bohr mag/cell

     iteration #  2     ecut=    30.00 Ry     beta= 0.50
     Davidson diagonalization with overlap
     ethr =  1.19E-03,  avg # of iterations =  3.8

     total cpu time spent up to now is       16.5 secs

     total energy              =    -111.56787500 Ry
     estimated scf accuracy    <       0.40210212 Ry

     total magnetization       =     5.53 Bohr mag/cell
     absolute magnetization    =     5.67 Bohr mag/cell

     iteration #  3     ecut=    30.00 Ry     beta= 0.50
     Davidson diagonalization with overlap
     ethr =  1.19E-03,  avg # of iterations =  1.8

     total cpu time spent up to now is       16.7 secs

     total energy              =    -111.59267477 Ry
     estimated scf accuracy    <       0.07594020 Ry

     total magnetization       =     5.75 Bohr mag/cell
     absolute magnetization    =     5.89 Bohr mag/cell

     iteration #  4     ecut=    30.00 Ry     beta= 0.50
     Davidson diagonalization with overlap
     ethr =  4.75E-04,  avg # of iterations =  1.0

     total cpu time spent up to now is       17.0 secs

     total energy              =    -111.59653002 Ry
     estimated scf accuracy    <       0.06550187 Ry

     total magnetization       =     5.75 Bohr mag/cell
     absolute magnetization    =     5.89 Bohr mag/cell

     iteration #  5     ecut=    30.00 Ry     beta= 0.50
     Davidson diagonalization with overlap
     ethr =  4.09E-04,  avg # of iterations =  1.0

     total cpu time spent up to now is       17.2 secs

     total energy              =    -111.59615648 Ry
     estimated scf accuracy    <       0.07396497 Ry

     total magnetization       =     5.73 Bohr mag/cell
     absolute magnetization    =     5.87 Bohr mag/cell

     iteration #  6     ecut=    30.00 Ry     beta= 0.50
     Davidson diagonalization with overlap
     ethr =  4.09E-04,  avg # of iterations =  1.0

     total cpu time spent up to now is       17.5 secs

     total energy              =    -111.58384275 Ry
     estimated scf accuracy    <       0.07060328 Ry

     total magnetization       =     5.73 Bohr mag/cell
     absolute magnetization    =     5.88 Bohr mag/cell

     iteration #  7     ecut=    30.00 Ry     beta= 0.50
     Davidson diagonalization with overlap
     ethr =  4.09E-04,  avg # of iterations =  1.0

     total cpu time spent up to now is       17.7 secs

     total energy              =    -111.58022836 Ry
     estimated scf accuracy    <       0.03281070 Ry

     total magnetization       =     5.80 Bohr mag/cell
     absolute magnetization    =     5.94 Bohr mag/cell

     iteration #  8     ecut=    30.00 Ry     beta= 0.50
     Davidson diagonalization with overlap
     ethr =  2.05E-04,  avg # of iterations =  1.0

     total cpu time spent up to now is       18.0 secs

     total energy              =    -111.58074764 Ry
     estimated scf accuracy    <       0.01560753 Ry

     total magnetization       =     5.81 Bohr mag/cell
     absolute magnetization    =     5.95 Bohr mag/cell

     iteration #  9     ecut=    30.00 Ry     beta= 0.50
     Davidson diagonalization with overlap
     ethr =  9.75E-05,  avg # of iterations =  1.0

     total cpu time spent up to now is       18.2 secs

     total energy              =    -111.58043492 Ry
     estimated scf accuracy    <       0.01498836 Ry

     total magnetization       =     5.81 Bohr mag/cell
     absolute magnetization    =     5.95 Bohr mag/cell

     iteration # 10     ecut=    30.00 Ry     beta= 0.50
     Davidson diagonalization with overlap
     ethr =  9.37E-05,  avg # of iterations =  1.0

     total cpu time spent up to now is       18.5 secs

     total energy              =    -111.58091007 Ry
     estimated scf accuracy    <       0.01225556 Ry

     total magnetization       =     5.81 Bohr mag/cell
     absolute magnetization    =     5.95 Bohr mag/cell

     iteration # 11     ecut=    30.00 Ry     beta= 0.50
     Davidson diagonalization with overlap
     ethr =  7.66E-05,  avg # of iterations =  1.0

     total cpu time spent up to now is       18.7 secs

     total energy              =    -111.58087595 Ry
     estimated scf accuracy    <       0.01361992 Ry

     total magnetization       =     5.81 Bohr mag/cell
     absolute magnetization    =     5.95 Bohr mag/cell

     iteration # 12     ecut=    30.00 Ry     beta= 0.50
     Davidson diagonalization with overlap
     ethr =  7.66E-05,  avg # of iterations =  1.0

     total cpu time spent up to now is       19.0 secs

     total energy              =    -111.57530478 Ry
     estimated scf accuracy    <       0.01291978 Ry

     total magnetization       =     5.81 Bohr mag/cell
     absolute magnetization    =     5.95 Bohr mag/cell

     iteration # 13     ecut=    30.00 Ry     beta= 0.50
     Davidson diagonalization with overlap
     ethr =  7.66E-05,  avg # of iterations =  2.0

     total cpu time spent up to now is       19.3 secs

     total energy              =    -111.57806826 Ry
     estimated scf accuracy    <       0.00025466 Ry

     total magnetization       =     5.81 Bohr mag/cell
     absolute magnetization    =     5.98 Bohr mag/cell

     iteration # 14     ecut=    30.00 Ry     beta= 0.50
     Davidson diagonalization with overlap
     ethr =  1.59E-06,  avg # of iterations =  3.7

     total cpu time spent up to now is       19.6 secs

     total energy              =    -111.57818534 Ry
     estimated scf accuracy    <       0.00011432 Ry

     total magnetization       =     5.81 Bohr mag/cell
     absolute magnetization    =     5.98 Bohr mag/cell

     iteration # 15     ecut=    30.00 Ry     beta= 0.50
     Davidson diagonalization with overlap
     ethr =  7.15E-07,  avg # of iterations =  1.2

     total cpu time spent up to now is       19.9 secs

     total energy              =    -111.57819370 Ry
     estimated scf accuracy    <       0.00006577 Ry

     total magnetization       =     5.81 Bohr mag/cell
     absolute magnetization    =     5.98 Bohr mag/cell

     iteration # 16     ecut=    30.00 Ry     beta= 0.50
     Davidson diagonalization with overlap
     ethr =  4.11E-07,  avg # of iterations =  1.3

     total cpu time spent up to now is       20.2 secs

     total energy              =    -111.57819354 Ry
     estimated scf accuracy    <       0.00006711 Ry

     total magnetization       =     5.81 Bohr mag/cell
     absolute magnetization    =     5.98 Bohr mag/cell

     iteration # 17     ecut=    30.00 Ry     beta= 0.50
     Davidson diagonalization with overlap
     ethr =  4.11E-07,  avg # of iterations =  1.0

     total cpu time spent up to now is       20.4 secs

     total energy              =    -111.57821570 Ry
     estimated scf accuracy    <       0.00004557 Ry

     total magnetization       =     5.81 Bohr mag/cell
     absolute magnetization    =     5.98 Bohr mag/cell

     iteration # 18     ecut=    30.00 Ry     beta= 0.50
     Davidson diagonalization with overlap
     ethr =  2.85E-07,  avg # of iterations =  2.9

     total cpu time spent up to now is       20.8 secs

     total energy              =    -111.57819602 Ry
     estimated scf accuracy    <       0.00014181 Ry

     total magnetization       =     5.81 Bohr mag/cell
     absolute magnetization    =     5.98 Bohr mag/cell

     iteration # 19     ecut=    30.00 Ry     beta= 0.50
     Davidson diagonalization with overlap
     ethr =  2.85E-07,  avg # of iterations =  2.0

     total cpu time spent up to now is       21.1 secs

     total energy              =    -111.57820361 Ry
     estimated scf accuracy    <       0.00002312 Ry

     total magnetization       =     5.81 Bohr mag/cell
     absolute magnetization    =     5.98 Bohr mag/cell

     iteration # 20     ecut=    30.00 Ry     beta= 0.50
     Davidson diagonalization with overlap
     ethr =  1.44E-07,  avg # of iterations =  1.4

     total cpu time spent up to now is       21.3 secs

     total energy              =    -111.57820164 Ry
     estimated scf accuracy    <       0.00000948 Ry

     total magnetization       =     5.81 Bohr mag/cell
     absolute magnetization    =     5.98 Bohr mag/cell

     iteration # 21     ecut=    30.00 Ry     beta= 0.50
     Davidson diagonalization with overlap
     ethr =  5.93E-08,  avg # of iterations =  2.2

     total cpu time spent up to now is       21.6 secs

     total energy              =    -111.57820333 Ry
     estimated scf accuracy    <       0.00000040 Ry

     total magnetization       =     5.81 Bohr mag/cell
     absolute magnetization    =     5.97 Bohr mag/cell

     iteration # 22     ecut=    30.00 Ry     beta= 0.50
     Davidson diagonalization with overlap
     ethr =  2.51E-09,  avg # of iterations =  3.6

     total cpu time spent up to now is       22.0 secs

     total energy              =    -111.57820353 Ry
     estimated scf accuracy    <       0.00000005 Ry

     total magnetization       =     5.81 Bohr mag/cell
     absolute magnetization    =     5.97 Bohr mag/cell

     iteration # 23     ecut=    30.00 Ry     beta= 0.50
     Davidson diagonalization with overlap
     ethr =  2.94E-10,  avg # of iterations =  4.7

     total cpu time spent up to now is       22.4 secs

     total energy              =    -111.57820356 Ry
     estimated scf accuracy    <          4.1E-09 Ry

     total magnetization       =     5.81 Bohr mag/cell
     absolute magnetization    =     5.97 Bohr mag/cell

     iteration # 24     ecut=    30.00 Ry     beta= 0.50
     Davidson diagonalization with overlap
     ethr =  2.56E-11,  avg # of iterations =  5.1

     Magnetic moment per site  (integrated on atomic sphere of radius R)
     atom   1 (R=0.412)  charge=  6.4260  magn=  2.9093
     atom   2 (R=0.412)  charge=  6.4260  magn=  2.9093

     total cpu time spent up to now is       22.8 secs

     End of self-consistent calculation

 ------ SPIN UP ------------


          k = 0.0000 0.0000 0.0000 (   391 PWs)   bands (ev):

     3.7659   7.0782   9.2201   9.2891   9.2891   9.5315   9.5315   9.9176
     9.9176  10.7869  10.7869  11.5534

          k = 0.0000 0.0000 0.1149 (   397 PWs)   bands (ev):

     4.1099   6.9664   9.1483   9.2375   9.2375   9.4582   9.4582  10.0784
    10.0785  10.4084  10.7581  10.7581

          k = 0.0000 0.0000 0.2297 (   410 PWs)   bands (ev):

     5.0698   6.2932   9.0227   9.2147   9.2196   9.2196   9.3127   9.3128
    10.3798  10.3798  10.6311  10.6311

          k = 0.0000 0.2220 0.0000 (   407 PWs)   bands (ev):

     5.0081   7.7148   8.7987   8.8148   9.2531   9.6329   9.7371   9.8207
     9.8513  10.0362  10.8727  14.5573

          k = 0.0000 0.2220 0.1149 (   412 PWs)   bands (ev):

     5.3083   7.6994   8.5871   8.8552   9.1347   9.5561   9.5890   9.9168
    10.0649  10.1185  10.8133  12.9859

          k = 0.0000 0.2220 0.2297 (   411 PWs)   bands (ev):

     6.1318   7.1670   8.4981   8.7918   9.0630   9.3317   9.6244   9.7660
    10.3489  10.6116  10.6301  11.4529

          k = 0.0000 0.4440 0.0000 (   423 PWs)   bands (ev):

     7.1707   7.5663   7.7402   9.2597   9.2620   9.3105   9.5906  10.8706
    10.9287  10.9688  11.6021  16.8837

          k = 0.0000 0.4440 0.1149 (   417 PWs)   bands (ev):

     7.0626   7.5359   8.0617   8.5518   9.3929   9.6413  10.3049  10.6889
    10.8908  11.0134  11.4293  15.3901

          k = 0.0000 0.4440 0.2297 (   416 PWs)   bands (ev):

     7.0958   7.3635   8.2000   8.3749   9.7527  10.1112  10.2399  10.8342
    10.9358  10.9877  11.6298  13.2804

          k = 0.1922 0.3330 0.0000 (   414 PWs)   bands (ev):

     6.9908   8.0333   8.2395   8.2796   9.0619   9.3515   9.5819  10.1122
    10.8053  10.8111  11.4209  17.7069

          k = 0.1922 0.3330 0.1149 (   415 PWs)   bands (ev):

     7.0990   7.9163   8.3409   8.4064   9.1432   9.2965   9.5067  10.2126
    10.6062  10.9052  11.5012  15.1745

          k = 0.1922 0.3330 0.2297 (   415 PWs)   bands (ev):

     7.3694   7.6811   8.5461   8.6525   9.0492   9.0882   9.6563  10.0545
    10.8353  11.0353  11.7650  13.0028

          k = 0.1922 0.5550 0.0000 (   418 PWs)   bands (ev):

     7.7402   7.8836   7.9564   8.9038   9.0254   9.1547   9.7264  10.7568
    10.7871  10.9984  14.4123  15.6175

          k = 0.1922 0.5550 0.1149 (   415 PWs)   bands (ev):

     7.5737   7.9631   8.3357   8.4498   8.9393   9.5089   9.8360  10.5219
    10.8077  11.0549  14.6074  15.6164

          k = 0.1922 0.5550 0.2297 (   414 PWs)   bands (ev):

     7.5867   7.8438   8.3510   8.6656   8.9451   9.5030  10.0480  10.1737
    10.9173  11.0707  15.0955  15.5183

          k = 0.1922-0.1110 0.0000 (   407 PWs)   bands (ev):

     5.0081   7.7148   8.7987   8.8149   9.2531   9.6329   9.7370   9.8207
     9.8513  10.0362  10.8727  14.5573

          k = 0.1922-0.1110 0.1149 (   412 PWs)   bands (ev):

     5.3083   7.6994   8.5871   8.8552   9.1347   9.5561   9.5890   9.9168
    10.0649  10.1185  10.8133  12.9859

          k = 0.1922-0.1110 0.2297 (   411 PWs)   bands (ev):

     6.1318   7.1670   8.4981   8.7918   9.0630   9.3317   9.6244   9.7660
    10.3489  10.6116  10.6301  11.4529

          k = 0.3845-0.2220 0.0000 (   423 PWs)   bands (ev):

     7.1707   7.5663   7.7403   9.2596   9.2620   9.3105   9.5906  10.8705
    10.9287  10.9688  11.6021  16.8836

          k = 0.3845-0.2220 0.1149 (   417 PWs)   bands (ev):

     7.0626   7.5359   8.0617   8.5518   9.3929   9.6413  10.3048  10.6889
    10.8907  11.0134  11.4293  15.3901

          k = 0.3845-0.2220 0.2297 (   416 PWs)   bands (ev):

     7.0957   7.3635   8.2000   8.3749   9.7527  10.1112  10.2399  10.8342
    10.9358  10.9877  11.6297  13.2804

          k = 0.3845-0.0000 0.0000 (   414 PWs)   bands (ev):

     6.9907   8.0334   8.2395   8.2796   9.0619   9.3515   9.5819  10.1122
    10.8053  10.8111  11.4209  17.7069

          k = 0.3845-0.0000-0.1149 (   415 PWs)   bands (ev):

     7.0990   7.9163   8.3409   8.4065   9.1432   9.2965   9.5067  10.2126
    10.6062  10.9052  11.5012  15.1745

          k = 0.3845-0.0000-0.2297 (   415 PWs)   bands (ev):

     7.3694   7.6811   8.5461   8.6525   9.0492   9.0882   9.6563  10.0545
    10.8353  11.0353  11.7650  13.0028

          k = 0.3845-0.4440 0.0000 (   418 PWs)   bands (ev):

     7.7402   7.8836   7.9564   8.9038   9.0255   9.1547   9.7264  10.7568
    10.7871  10.9984  14.4123  15.6175

          k = 0.3845-0.4440 0.1149 (   415 PWs)   bands (ev):

     7.5737   7.9631   8.3357   8.4498   8.9393   9.5089   9.8360  10.5219
    10.8077  11.0549  14.6074  15.6163

          k = 0.3845-0.4440 0.2297 (   414 PWs)   bands (ev):

     7.5867   7.8438   8.3510   8.6656   8.9451   9.5030  10.0480  10.1737
    10.9173  11.0707  15.0955  15.5183

 ------ SPIN DOWN ----------


          k = 0.0000 0.0000 0.0000 (   391 PWs)   bands (ev):

     4.0631   8.7385  11.7071  11.9587  12.3006  12.3006  12.6235  12.6235
    13.2661  13.2661  14.3112  14.3112

          k = 0.0000 0.0000 0.1149 (   397 PWs)   bands (ev):

     4.4112   8.2304  11.3654  11.8359  12.2537  12.2537  12.5346  12.5346
    13.4492  13.4493  14.2773  14.2773

          k = 0.0000 0.0000 0.2297 (   410 PWs)   bands (ev):

     5.4062   6.8565  11.2662  11.5372  12.2433  12.2433  12.3581  12.3581
    13.8121  13.8122  14.1221  14.1221

          k = 0.0000 0.2220 0.0000 (   407 PWs)   bands (ev):

     5.3265   9.5871  10.7544  11.4725  12.1489  12.7255  12.7971  12.8891
    12.9663  13.2186  14.4302  16.4191

          k = 0.0000 0.2220 0.1149 (   412 PWs)   bands (ev):

     5.6462   9.1352  10.6924  11.5502  11.9879  12.3667  12.7507  13.0659
    13.2743  13.3261  14.3475  15.4652

          k = 0.0000 0.2220 0.2297 (   411 PWs)   bands (ev):

     6.5565   7.8756  10.9609  11.4716  11.7773  12.0935  12.7529  12.8970
    13.7201  13.8440  14.0978  14.5206

          k = 0.0000 0.4440 0.0000 (   423 PWs)   bands (ev):

     8.2545   9.8628  10.0351  10.9664  12.1425  12.2293  12.4098  14.2364
    14.3189  14.3469  14.5041  18.3028

          k = 0.0000 0.4440 0.1149 (   417 PWs)   bands (ev):

     8.3744   9.6582  10.2535  10.9098  12.1382  12.4686  12.5642  14.1290
    14.2028  14.2607  14.4662  16.8825

          k = 0.0000 0.4440 0.2297 (   416 PWs)   bands (ev):

     8.7145   9.2018  10.6203  10.9034  12.2385  12.6464  12.9931  13.5855
    14.2614  14.3224  14.3994  15.2117

          k = 0.1922 0.3330 0.0000 (   414 PWs)   bands (ev):

     7.5225  10.2627  10.4021  10.7123  12.0608  12.1326  12.6093  13.0992
    14.0453  14.3508  14.4919  19.2189

          k = 0.1922 0.3330 0.1149 (   415 PWs)   bands (ev):

     7.7543   9.9734  10.5371  10.8095  11.9250  12.0928  12.5375  13.2805
    14.0053  14.1881  14.6362  17.0069

          k = 0.1922 0.3330 0.2297 (   415 PWs)   bands (ev):

     8.3902   9.2384  10.8739  11.0295  11.6178  11.7424  12.8104  13.3068
    14.0363  14.3879  14.6712  15.2988

          k = 0.1922 0.5550 0.0000 (   418 PWs)   bands (ev):

     9.6891  10.0831  10.1842  10.5529  11.9459  11.9890  12.5455  13.9850
    14.2320  14.2814  16.3889  17.5059

          k = 0.1922 0.5550 0.1149 (   415 PWs)   bands (ev):

     9.6293  10.0999  10.5070  10.5313  11.7799  11.9405  12.7065  13.9545
    14.0157  14.3083  16.4871  17.4187

          k = 0.1922 0.5550 0.2297 (   414 PWs)   bands (ev):

     9.6913   9.9132  10.7994  11.0813  11.3881  11.7461  13.0093  13.3927
    14.1495  14.3307  16.7301  17.1254

          k = 0.1922-0.1110 0.0000 (   407 PWs)   bands (ev):

     5.3265   9.5871  10.7544  11.4724  12.1489  12.7255  12.7970  12.8891
    12.9663  13.2186  14.4302  16.4191

          k = 0.1922-0.1110 0.1149 (   412 PWs)   bands (ev):

     5.6462   9.1352  10.6924  11.5502  11.9879  12.3667  12.7507  13.0659
    13.2743  13.3261  14.3475  15.4652

          k = 0.1922-0.1110 0.2297 (   411 PWs)   bands (ev):

     6.5565   7.8756  10.9609  11.4715  11.7772  12.0934  12.7530  12.8970
    13.7202  13.8439  14.0979  14.5206

          k = 0.3845-0.2220 0.0000 (   423 PWs)   bands (ev):

     8.2544   9.8628  10.0351  10.9664  12.1425  12.2293  12.4099  14.2364
    14.3189  14.3469  14.5041  18.3028

          k = 0.3845-0.2220 0.1149 (   417 PWs)   bands (ev):

     8.3744   9.6582  10.2535  10.9098  12.1381  12.4685  12.5642  14.1290
    14.2029  14.2607  14.4662  16.8825

          k = 0.3845-0.2220 0.2297 (   416 PWs)   bands (ev):

     8.7145   9.2018  10.6203  10.9034  12.2385  12.6463  12.9932  13.5855
    14.2614  14.3224  14.3994  15.2117

          k = 0.3845-0.0000 0.0000 (   414 PWs)   bands (ev):

     7.5224  10.2627  10.4021  10.7123  12.0608  12.1326  12.6093  13.0992
    14.0453  14.3508  14.4919  19.2189

          k = 0.3845-0.0000-0.1149 (   415 PWs)   bands (ev):

     7.7543   9.9734  10.5371  10.8095  11.9250  12.0928  12.5375  13.2805
    14.0053  14.1881  14.6362  17.0069

          k = 0.3845-0.0000-0.2297 (   415 PWs)   bands (ev):

     8.3902   9.2384  10.8739  11.0295  11.6178  11.7423  12.8104  13.3068
    14.0363  14.3879  14.6712  15.2988

          k = 0.3845-0.4440 0.0000 (   418 PWs)   bands (ev):

     9.6891  10.0831  10.1842  10.5529  11.9458  11.9891  12.5455  13.9850
    14.2320  14.2814  16.3889  17.5058

          k = 0.3845-0.4440 0.1149 (   415 PWs)   bands (ev):

     9.6293  10.0999  10.5070  10.5313  11.7799  11.9405  12.7065  13.9545
    14.0157  14.3083  16.4871  17.4186

          k = 0.3845-0.4440 0.2297 (   414 PWs)   bands (ev):

     9.6913   9.9132  10.7994  11.0813  11.3880  11.7461  13.0093  13.3927
    14.1495  14.3307  16.7301  17.1254

     the Fermi energy is    12.0750 ev

!    total energy              =    -111.57820356 Ry
     estimated scf accuracy    <          8.6E-10 Ry
     smearing contrib. (-TS)   =      -0.00036397 Ry
     internal energy E=F+TS    =    -111.57783959 Ry

     The total energy is F=E-TS. E is the sum of the following terms:
     one-electron contribution =      10.73852889 Ry
     hartree contribution      =      14.31141535 Ry
     xc contribution           =     -52.89582312 Ry
     ewald contribution        =     -83.73196071 Ry

     total magnetization       =     5.81 Bohr mag/cell
     absolute magnetization    =     5.97 Bohr mag/cell

     convergence has been achieved in  24 iterations

     Forces acting on atoms (cartesian axes, Ry/au):

     atom    1 type  1   force =    -0.00000000   -0.00000110    0.00000000
     atom    2 type  1   force =     0.00000000    0.00000110    0.00000000
     The non-local contrib.  to forces
     atom    1 type  1   force =    -0.00000000   -0.00000285    0.00000000
     atom    2 type  1   force =     0.00000000    0.00000309    0.00000000
     The ionic contribution  to forces
     atom    1 type  1   force =     0.00000000    0.00000387   -0.00002514
     atom    2 type  1   force =     0.00000000   -0.00000387    0.00002514
     The local contribution  to forces
     atom    1 type  1   force =    -0.00000000   -0.00000212    0.00000000
     atom    2 type  1   force =     0.00000000    0.00000210    0.00008494
     The core correction contribution to forces
     atom    1 type  1   force =     0.00000000    0.00000018    0.00000002
     atom    2 type  1   force =    -0.00000000   -0.00000019    0.00001367
     The Hubbard contrib.    to forces
     atom    1 type  1   force =     0.00000000    0.00000000    0.00000000
     atom    2 type  1   force =     0.00000000    0.00000000    0.00000000
     The SCF correction term to forces
     atom    1 type  1   force =     0.00000000   -0.00000007   -0.00000000
     atom    2 type  1   force =    -0.00000000    0.00000007    0.00000000

     Total force =     0.000002     Total SCF correction =     0.000000


     Computing stress (Cartesian axis) and pressure

          total   stress  (Ry/bohr**3)                   (kbar)     P=      -18.76
  -0.00014303  -0.00000000   0.00000000          -21.04       -0.00        0.00
   0.00000000  -0.00014306   0.00000000            0.00      -21.04        0.00
   0.00000000   0.00000000  -0.00009646            0.00        0.00      -14.19

     Energy error            =      1.0E-03 Ry
     Gradient error          =      1.1E-06 Ry/Bohr
     Cell gradient error     =      2.1E+01 kbar

     number of scf cycles    =   3
     number of bfgs steps    =   2

     enthalpy           old  =    -111.5772063652 Ry
     enthalpy           new  =    -111.5782035634 Ry

     CASE: enthalpy          _new < enthalpy          _old

     new trust radius        =       0.0102524469 bohr
     new conv_thr            =       0.0000000010 Ry

     new unit-cell volume =    170.21422 a.u.^3 (    25.22314 Ang^3 )
     density =      7.35299 g/cm^3

CELL_PARAMETERS (angstrom)
   2.590701763  -0.000000000   0.000000000
  -1.295350881   2.243605327   0.000000000
   0.000000000   0.000000000   4.339456632

ATOMIC_POSITIONS (angstrom)
Fe            0.0000000000       -0.0000043273        0.0000000000
Fe            0.0000000000        1.4957456962        2.1697267725



     Writing config-only to output data dir /home/gridsan/epan1/labutil/lab3_samples/problem1/Lab3/Fe_hcp_a_2.5_ecut_30_nk_5/pwscf.save/
     NEW-OLD atomic charge density approx. for the potential

     Check: negative core charge=   -0.000008
     extrapolated charge   15.82376, renormalised to   16.00000
     Generating pointlists ...

     total cpu time spent up to now is       23.3 secs

     Self-consistent Calculation

     iteration #  1     ecut=    30.00 Ry     beta= 0.50
     Davidson diagonalization with overlap
     ethr =  1.00E-06,  avg # of iterations =  6.3

     total cpu time spent up to now is       23.9 secs

     total energy              =    -111.56674947 Ry
     estimated scf accuracy    <       0.01193274 Ry

     total magnetization       =     5.80 Bohr mag/cell
     absolute magnetization    =     5.95 Bohr mag/cell

     iteration #  2     ecut=    30.00 Ry     beta= 0.50
     Davidson diagonalization with overlap
     ethr =  7.46E-05,  avg # of iterations =  3.9

     total cpu time spent up to now is       24.3 secs

     total energy              =    -111.57786373 Ry
     estimated scf accuracy    <       0.02137359 Ry

     total magnetization       =     5.81 Bohr mag/cell
     absolute magnetization    =     5.98 Bohr mag/cell

     iteration #  3     ecut=    30.00 Ry     beta= 0.50
     Davidson diagonalization with overlap
     ethr =  7.46E-05,  avg # of iterations =  1.9

     total cpu time spent up to now is       24.5 secs

     total energy              =    -111.57696809 Ry
     estimated scf accuracy    <       0.00433126 Ry

     total magnetization       =     5.81 Bohr mag/cell
     absolute magnetization    =     5.97 Bohr mag/cell

     iteration #  4     ecut=    30.00 Ry     beta= 0.50
     Davidson diagonalization with overlap
     ethr =  2.71E-05,  avg # of iterations =  2.9

     total cpu time spent up to now is       26.0 secs

     total energy              =    -111.57840094 Ry
     estimated scf accuracy    <       0.00016772 Ry

     total magnetization       =     5.81 Bohr mag/cell
     absolute magnetization    =     5.96 Bohr mag/cell

     iteration #  5     ecut=    30.00 Ry     beta= 0.50
     Davidson diagonalization with overlap
     ethr =  1.05E-06,  avg # of iterations =  3.3

     total cpu time spent up to now is       26.4 secs

     total energy              =    -111.57848904 Ry
     estimated scf accuracy    <       0.00060483 Ry

     total magnetization       =     5.81 Bohr mag/cell
     absolute magnetization    =     5.97 Bohr mag/cell

     iteration #  6     ecut=    30.00 Ry     beta= 0.50
     Davidson diagonalization with overlap
     ethr =  1.05E-06,  avg # of iterations =  1.0

     total cpu time spent up to now is       26.6 secs

     total energy              =    -111.57825276 Ry
     estimated scf accuracy    <       0.00056200 Ry

     total magnetization       =     5.81 Bohr mag/cell
     absolute magnetization    =     5.97 Bohr mag/cell

     iteration #  7     ecut=    30.00 Ry     beta= 0.50
     Davidson diagonalization with overlap
     ethr =  1.05E-06,  avg # of iterations =  2.7

     total cpu time spent up to now is       27.0 secs

     total energy              =    -111.57831758 Ry
     estimated scf accuracy    <       0.00001839 Ry

     total magnetization       =     5.81 Bohr mag/cell
     absolute magnetization    =     5.97 Bohr mag/cell

     iteration #  8     ecut=    30.00 Ry     beta= 0.50
     Davidson diagonalization with overlap
     ethr =  1.15E-07,  avg # of iterations =  3.7

     total cpu time spent up to now is       27.3 secs

     total energy              =    -111.57833206 Ry
     estimated scf accuracy    <       0.00002253 Ry

     total magnetization       =     5.81 Bohr mag/cell
     absolute magnetization    =     5.97 Bohr mag/cell

     iteration #  9     ecut=    30.00 Ry     beta= 0.50
     Davidson diagonalization with overlap
     ethr =  1.15E-07,  avg # of iterations =  1.0

     total cpu time spent up to now is       27.6 secs

     total energy              =    -111.57832885 Ry
     estimated scf accuracy    <       0.00000920 Ry

     total magnetization       =     5.81 Bohr mag/cell
     absolute magnetization    =     5.97 Bohr mag/cell

     iteration # 10     ecut=    30.00 Ry     beta= 0.50
     Davidson diagonalization with overlap
     ethr =  5.75E-08,  avg # of iterations =  1.9

     total cpu time spent up to now is       27.9 secs

     total energy              =    -111.57833004 Ry
     estimated scf accuracy    <       0.00000038 Ry

     total magnetization       =     5.81 Bohr mag/cell
     absolute magnetization    =     5.97 Bohr mag/cell

     iteration # 11     ecut=    30.00 Ry     beta= 0.50
     Davidson diagonalization with overlap
     ethr =  2.35E-09,  avg # of iterations =  4.0

     total cpu time spent up to now is       28.3 secs

     total energy              =    -111.57833042 Ry
     estimated scf accuracy    <       0.00000028 Ry

     total magnetization       =     5.81 Bohr mag/cell
     absolute magnetization    =     5.97 Bohr mag/cell

     iteration # 12     ecut=    30.00 Ry     beta= 0.50
     Davidson diagonalization with overlap
     ethr =  1.78E-09,  avg # of iterations =  1.0

     total cpu time spent up to now is       28.5 secs

     total energy              =    -111.57833037 Ry
     estimated scf accuracy    <       0.00000011 Ry

     total magnetization       =     5.81 Bohr mag/cell
     absolute magnetization    =     5.97 Bohr mag/cell

     iteration # 13     ecut=    30.00 Ry     beta= 0.50
     Davidson diagonalization with overlap
     ethr =  6.62E-10,  avg # of iterations =  3.3

     total cpu time spent up to now is       28.9 secs

     total energy              =    -111.57833041 Ry
     estimated scf accuracy    <       0.00000001 Ry

     total magnetization       =     5.81 Bohr mag/cell
     absolute magnetization    =     5.97 Bohr mag/cell

     iteration # 14     ecut=    30.00 Ry     beta= 0.50
     Davidson diagonalization with overlap
     ethr =  7.10E-11,  avg # of iterations =  3.9

     total cpu time spent up to now is       29.2 secs

     total energy              =    -111.57833041 Ry
     estimated scf accuracy    <       0.00000001 Ry

     total magnetization       =     5.81 Bohr mag/cell
     absolute magnetization    =     5.97 Bohr mag/cell

     iteration # 15     ecut=    30.00 Ry     beta= 0.50
     Davidson diagonalization with overlap
     ethr =  7.10E-11,  avg # of iterations =  2.1

     Magnetic moment per site  (integrated on atomic sphere of radius R)
     atom   1 (R=0.412)  charge=  6.4378  magn=  2.9070
     atom   2 (R=0.412)  charge=  6.4378  magn=  2.9070

[...]
     Davidson diagonalization with overlap
     c_bands:  1 eigenvalues not converged
     c_bands:  1 eigenvalues not converged
     c_bands:  1 eigenvalues not converged
     c_bands:  1 eigenvalues not converged
     c_bands:  1 eigenvalues not converged
     c_bands:  1 eigenvalues not converged
     ethr =  1.00E-06,  avg # of iterations = 15.6

     total cpu time spent up to now is       42.5 secs

     total energy              =    -111.33878759 Ry
     estimated scf accuracy    <       0.64229959 Ry

     total magnetization       =     5.80 Bohr mag/cell
     absolute magnetization    =     5.80 Bohr mag/cell

     iteration #  2     ecut=    30.00 Ry     beta= 0.50
     Davidson diagonalization with overlap
     ethr =  4.01E-03,  avg # of iterations =  2.4

     total cpu time spent up to now is       42.9 secs

     total energy              =    -111.55283882 Ry
     estimated scf accuracy    <       0.10574826 Ry

     total magnetization       =     5.79 Bohr mag/cell
     absolute magnetization    =     5.80 Bohr mag/cell

     iteration #  3     ecut=    30.00 Ry     beta= 0.50
     Davidson diagonalization with overlap
     ethr =  6.61E-04,  avg # of iterations =  1.5

     total cpu time spent up to now is       43.1 secs

     total energy              =    -111.57207695 Ry
     estimated scf accuracy    <       0.00689775 Ry

     total magnetization       =     5.80 Bohr mag/cell
     absolute magnetization    =     5.83 Bohr mag/cell

     iteration #  4     ecut=    30.00 Ry     beta= 0.50
     Davidson diagonalization with overlap
     ethr =  4.31E-05,  avg # of iterations =  3.9

     total cpu time spent up to now is       43.5 secs

     total energy              =    -111.57581899 Ry
     estimated scf accuracy    <       0.01242053 Ry

     total magnetization       =     5.80 Bohr mag/cell
     absolute magnetization    =     5.93 Bohr mag/cell

     iteration #  5     ecut=    30.00 Ry     beta= 0.50
     Davidson diagonalization with overlap
     ethr =  4.31E-05,  avg # of iterations =  2.2

     total cpu time spent up to now is       43.8 secs

     total energy              =    -111.57771222 Ry
     estimated scf accuracy    <       0.01706697 Ry

     total magnetization       =     5.81 Bohr mag/cell
     absolute magnetization    =     5.94 Bohr mag/cell

     iteration #  6     ecut=    30.00 Ry     beta= 0.50
     Davidson diagonalization with overlap
     ethr =  4.31E-05,  avg # of iterations =  2.0

     total cpu time spent up to now is       44.1 secs

     total energy              =    -111.57790197 Ry
     estimated scf accuracy    <       0.00364907 Ry

     total magnetization       =     5.81 Bohr mag/cell
     absolute magnetization    =     5.95 Bohr mag/cell

     iteration #  7     ecut=    30.00 Ry     beta= 0.50
     Davidson diagonalization with overlap
     ethr =  2.28E-05,  avg # of iterations =  1.7

     total cpu time spent up to now is       44.4 secs

     total energy              =    -111.57856763 Ry
     estimated scf accuracy    <       0.00003187 Ry

     total magnetization       =     5.81 Bohr mag/cell
     absolute magnetization    =     5.96 Bohr mag/cell

     iteration #  8     ecut=    30.00 Ry     beta= 0.50
     Davidson diagonalization with overlap
     ethr =  1.99E-07,  avg # of iterations =  4.7

     total cpu time spent up to now is       44.9 secs

     total energy              =    -111.57861706 Ry
     estimated scf accuracy    <       0.00003164 Ry

     total magnetization       =     5.81 Bohr mag/cell
     absolute magnetization    =     5.96 Bohr mag/cell

     iteration #  9     ecut=    30.00 Ry     beta= 0.50
     Davidson diagonalization with overlap
     ethr =  1.98E-07,  avg # of iterations =  1.4

     total cpu time spent up to now is       45.1 secs

     total energy              =    -111.57861695 Ry
     estimated scf accuracy    <       0.00000617 Ry

     total magnetization       =     5.81 Bohr mag/cell
     absolute magnetization    =     5.96 Bohr mag/cell

     iteration # 10     ecut=    30.00 Ry     beta= 0.50
     Davidson diagonalization with overlap
     ethr =  3.85E-08,  avg # of iterations =  3.8

     total cpu time spent up to now is       45.5 secs

     total energy              =    -111.57862005 Ry
     estimated scf accuracy    <       0.00000024 Ry

     total magnetization       =     5.81 Bohr mag/cell
     absolute magnetization    =     5.96 Bohr mag/cell

     iteration # 11     ecut=    30.00 Ry     beta= 0.50
     Davidson diagonalization with overlap
     ethr =  1.51E-09,  avg # of iterations =  7.3

     total cpu time spent up to now is       46.2 secs

     total energy              =    -111.57862057 Ry
     estimated scf accuracy    <       0.00000051 Ry

     total magnetization       =     5.81 Bohr mag/cell
     absolute magnetization    =     5.96 Bohr mag/cell

     iteration # 12     ecut=    30.00 Ry     beta= 0.50
     Davidson diagonalization with overlap
     ethr =  1.51E-09,  avg # of iterations =  2.5

     Magnetic moment per site  (integrated on atomic sphere of radius R)
     atom   1 (R=0.412)  charge=  6.4392  magn=  2.9065
     atom   2 (R=0.412)  charge=  6.4388  magn=  2.9065

     total cpu time spent up to now is       46.5 secs

     End of self-consistent calculation

 ------ SPIN UP ------------


          k = 0.0000 0.0000 0.0000 (   477 PWs)   bands (ev):

     3.8818   7.2050   9.3669   9.4595   9.4596   9.7029   9.7029  10.1060
    10.1061  10.9813  10.9813  11.6909

          k = 0.0000 0.0000 0.1151 (   482 PWs)   bands (ev):

     4.2273   7.0924   9.2943   9.4088   9.4089   9.6298   9.6298  10.2666
    10.2666  10.5541  10.9518  10.9518

          k = 0.0000 0.0000 0.2301 (   476 PWs)   bands (ev):

     5.1908   6.4170   9.1688   9.3623   9.3918   9.3918   9.4846   9.4847
    10.5697  10.5697  10.8232  10.8232

          k = 0.0000 0.2231 0.0000 (   469 PWs)   bands (ev):

     5.1370   7.8543   8.9575   8.9641   9.4135   9.8160   9.9109   9.9860
    10.0338  10.2208  11.0672  14.7512

          k = 0.0000 0.2231 0.1151 (   477 PWs)   bands (ev):

     5.4380   7.8376   8.7344   9.0163   9.2909   9.7212   9.7715  10.1001
    10.2500  10.2959  11.0068  13.1844

          k = 0.0000 0.2231 0.2301 (   473 PWs)   bands (ev):

     6.2631   7.3007   8.6469   8.9461   9.2227   9.4949   9.8071   9.9492
    10.5368  10.7982  10.8213  11.6478

          k = 0.0000 0.4462 0.0000 (   474 PWs)   bands (ev):

     7.3085   7.7023   7.8737   9.4239   9.4385   9.4693   9.7563  11.0772
    11.1217  11.1754  11.8049  17.1268

          k = 0.0000 0.4462 0.1151 (   469 PWs)   bands (ev):

     7.1962   7.6688   8.2019   8.7019   9.5710   9.8081  10.4827  10.8824
    11.0972  11.2182  11.6281  15.6053

          k = 0.0000 0.4462 0.2301 (   475 PWs)   bands (ev):

     7.2265   7.4953   8.3418   8.5174   9.9350  10.2887  10.4276  11.0247
    11.1421  11.1936  11.8198  13.4826

          k = 0.1932 0.3346 0.0000 (   474 PWs)   bands (ev):

     7.1372   8.1722   8.3908   8.4285   9.2266   9.5133   9.7553  10.2832
    10.9998  11.0062  11.6327  17.9291

          k = 0.1932 0.3346 0.1151 (   467 PWs)   bands (ev):

     7.2429   8.0543   8.4912   8.5586   9.3059   9.4568   9.6823  10.3901
    10.7927  11.1071  11.7125  15.3905

          k = 0.1932 0.3346 0.2301 (   464 PWs)   bands (ev):

     7.5088   7.8180   8.6992   8.8072   9.2074   9.2470   9.8345  10.2376
    11.0264  11.2375  11.9741  13.2112

          k = 0.1932 0.5577 0.0000 (   474 PWs)   bands (ev):

     7.8782   8.0258   8.1054   9.0673   9.1906   9.3130   9.8942  10.9417
    10.9798  11.1958  14.6497  15.8803

          k = 0.1932 0.5577 0.1151 (   472 PWs)   bands (ev):

     7.7111   8.1056   8.4874   8.6014   9.0991   9.6783  10.0104  10.7055
    11.0005  11.2523  14.8420  15.8734

          k = 0.1932 0.5577 0.2301 (   476 PWs)   bands (ev):

     7.7238   7.9843   8.4985   8.8162   9.1063   9.6716  10.2301  10.3572
    11.1114  11.2675  15.3257  15.7583

          k = 0.1932-0.1115 0.0000 (   469 PWs)   bands (ev):

     5.1370   7.8543   8.9575   8.9642   9.4134   9.8160   9.9109   9.9860
    10.0338  10.2208  11.0672  14.7512

          k = 0.1932-0.1115 0.1151 (   477 PWs)   bands (ev):

     5.4380   7.8376   8.7344   9.0162   9.2909   9.7212   9.7715  10.1001
    10.2501  10.2959  11.0068  13.1844

          k = 0.1932-0.1115 0.2301 (   473 PWs)   bands (ev):

     6.2631   7.3007   8.6469   8.9461   9.2227   9.4949   9.8071   9.9492
    10.5368  10.7982  10.8213  11.6478

          k = 0.3864-0.2231 0.0000 (   474 PWs)   bands (ev):

     7.3085   7.7024   7.8737   9.4238   9.4385   9.4692   9.7563  11.0772
    11.1217  11.1754  11.8048  17.1266

          k = 0.3864-0.2231 0.1151 (   469 PWs)   bands (ev):

     7.1962   7.6689   8.2019   8.7019   9.5710   9.8080  10.4826  10.8824
    11.0971  11.2182  11.6280  15.6052

          k = 0.3864-0.2231 0.2301 (   475 PWs)   bands (ev):

     7.2265   7.4953   8.3418   8.5174   9.9350  10.2887  10.4276  11.0247
    11.1421  11.1936  11.8197  13.4825

          k = 0.3864-0.0000 0.0000 (   474 PWs)   bands (ev):

     7.1371   8.1722   8.3908   8.4285   9.2266   9.5133   9.7553  10.2832
    10.9998  11.0062  11.6327  17.9291

          k = 0.3864-0.0000-0.1151 (   467 PWs)   bands (ev):

     7.2429   8.0543   8.4912   8.5586   9.3059   9.4568   9.6823  10.3901
    10.7927  11.1070  11.7125  15.3905

          k = 0.3864-0.0000-0.2301 (   464 PWs)   bands (ev):

     7.5088   7.8180   8.6992   8.8072   9.2074   9.2469   9.8345  10.2376
    11.0264  11.2374  11.9740  13.2112

          k = 0.3864-0.4462 0.0000 (   474 PWs)   bands (ev):

     7.8782   8.0259   8.1054   9.0672   9.1907   9.3129   9.8942  10.9417
    10.9797  11.1957  14.6497  15.8802

          k = 0.3864-0.4462 0.1151 (   472 PWs)   bands (ev):

     7.7111   8.1057   8.4874   8.6014   9.0991   9.6782  10.0104  10.7055
    11.0005  11.2523  14.8419  15.8732

          k = 0.3864-0.4462 0.2301 (   476 PWs)   bands (ev):

     7.7238   7.9842   8.4985   8.8163   9.1063   9.6716  10.2301  10.3572
    11.1114  11.2675  15.3256  15.7582

 ------ SPIN DOWN ----------


          k = 0.0000 0.0000 0.0000 (   477 PWs)   bands (ev):

     4.1895   8.8659  11.8560  12.1001  12.4667  12.4668  12.7893  12.7894
    13.4556  13.4557  14.5059  14.5059

          k = 0.0000 0.0000 0.1151 (   482 PWs)   bands (ev):

     4.5392   8.3617  11.5126  11.9764  12.4209  12.4210  12.7009  12.7010
    13.6381  13.6382  14.4712  14.4712

          k = 0.0000 0.0000 0.2301 (   476 PWs)   bands (ev):

     5.5380   6.9910  11.4088  11.6779  12.4116  12.4117  12.5257  12.5258
    14.0021  14.0022  14.3141  14.3142

          k = 0.0000 0.2231 0.0000 (   469 PWs)   bands (ev):

     5.4664   9.7267  10.8930  11.6266  12.3030  12.8862  12.9731  13.0727
    13.1442  13.3985  14.6248  16.6318

          k = 0.0000 0.2231 0.1151 (   477 PWs)   bands (ev):

     5.7869   9.2764  10.8328  11.7055  12.1385  12.5285  12.9312  13.2457
    13.4515  13.5086  14.5406  15.6727

          k = 0.0000 0.2231 0.2301 (   473 PWs)   bands (ev):

     6.6989   8.0189  11.1040  11.6189  11.9340  12.2525  12.9331  13.0772
    13.9065  14.0296  14.2881  14.7162

          k = 0.0000 0.4462 0.0000 (   474 PWs)   bands (ev):

     8.4093   9.9945  10.1633  11.1336  12.2985  12.3861  12.5867  14.4393
    14.5151  14.5496  14.6967  18.5490

          k = 0.0000 0.4462 0.1151 (   469 PWs)   bands (ev):

     8.5239   9.7887  10.3907  11.0627  12.3001  12.6380  12.7427  14.3243
    14.3959  14.4634  14.6651  17.1074

          k = 0.0000 0.4462 0.2301 (   475 PWs)   bands (ev):

     8.8540   9.3351  10.7600  11.0451  12.4134  12.8313  13.1759  13.7737
    14.4524  14.5248  14.6011  15.4184

          k = 0.1932 0.3346 0.0000 (   474 PWs)   bands (ev):

     7.6807  10.3948  10.5531  10.8579  12.2237  12.2878  12.7830  13.2648
    14.2425  14.5383  14.6993  19.4568

          k = 0.1932 0.3346 0.1151 (   467 PWs)   bands (ev):

     7.9109  10.1091  10.6880  10.9562  12.0833  12.2467  12.7127  13.4548
    14.1930  14.3869  14.8410  17.2329

          k = 0.1932 0.3346 0.2301 (   464 PWs)   bands (ev):

     8.5419   9.3823  11.0249  11.1784  11.7715  11.8958  12.9869  13.4897
    14.2236  14.5881  14.8778  15.5094

          k = 0.1932 0.5577 0.0000 (   474 PWs)   bands (ev):

     9.8446  10.2238  10.3175  10.7197  12.1010  12.1526  12.7057  14.1720
    14.4252  14.4644  16.6310  17.7707

          k = 0.1932 0.5577 0.1151 (   472 PWs)   bands (ev):

     9.7725  10.2431  10.6542  10.6869  11.9358  12.1027  12.8756  14.1362
    14.2040  14.5027  16.7278  17.6789

          k = 0.1932 0.5577 0.2301 (   476 PWs)   bands (ev):

     9.8286  10.0537  10.9455  11.2365  11.5419  11.9135  13.1855  13.5710
    14.3420  14.5267  16.9702  17.3736

          k = 0.1932-0.1115 0.0000 (   469 PWs)   bands (ev):

     5.4664   9.7266  10.8931  11.6265  12.3030  12.8862  12.9730  13.0728
    13.1443  13.3985  14.6249  16.6318

          k = 0.1932-0.1115 0.1151 (   477 PWs)   bands (ev):

     5.7868   9.2764  10.8328  11.7054  12.1384  12.5285  12.9313  13.2458
    13.4515  13.5087  14.5407  15.6727

          k = 0.1932-0.1115 0.2301 (   473 PWs)   bands (ev):

     6.6989   8.0188  11.1040  11.6188  11.9339  12.2524  12.9331  13.0772
    13.9065  14.0296  14.2882  14.7161

          k = 0.3864-0.2231 0.0000 (   474 PWs)   bands (ev):

     8.4092   9.9945  10.1633  11.1335  12.2984  12.3860  12.5868  14.4393
    14.5151  14.5496  14.6967  18.5489

          k = 0.3864-0.2231 0.1151 (   469 PWs)   bands (ev):

     8.5238   9.7887  10.3907  11.0626  12.3000  12.6378  12.7428  14.3243
    14.3959  14.4634  14.6652  17.1074

          k = 0.3864-0.2231 0.2301 (   475 PWs)   bands (ev):

     8.8540   9.3351  10.7600  11.0451  12.4133  12.8312  13.1760  13.7738
    14.4524  14.5248  14.6011  15.4183

          k = 0.3864-0.0000 0.0000 (   474 PWs)   bands (ev):

     7.6807  10.3949  10.5531  10.8579  12.2237  12.2878  12.7830  13.2648
    14.2425  14.5383  14.6993  19.4568

          k = 0.3864-0.0000-0.1151 (   467 PWs)   bands (ev):

     7.9109  10.1091  10.6880  10.9561  12.0833  12.2467  12.7127  13.4548
    14.1930  14.3869  14.8410  17.2329

          k = 0.3864-0.0000-0.2301 (   464 PWs)   bands (ev):

     8.5419   9.3823  11.0249  11.1784  11.7715  11.8957  12.9869  13.4898
    14.2236  14.5881  14.8778  15.5094

          k = 0.3864-0.4462 0.0000 (   474 PWs)   bands (ev):

     9.8446  10.2238  10.3175  10.7197  12.1009  12.1527  12.7057  14.1720
    14.4252  14.4644  16.6310  17.7706

          k = 0.3864-0.4462 0.1151 (   472 PWs)   bands (ev):

     9.7725  10.2431  10.6542  10.6868  11.9359  12.1026  12.8756  14.1362
    14.2040  14.5027  16.7278  17.6788

          k = 0.3864-0.4462 0.2301 (   476 PWs)   bands (ev):

     9.8286  10.0537  10.9455  11.2365  11.5419  11.9134  13.1855  13.5711
    14.3420  14.5267  16.9702  17.3735

     the Fermi energy is    12.2334 ev

!    total energy              =    -111.57862067 Ry
     estimated scf accuracy    <          2.9E-10 Ry
     smearing contrib. (-TS)   =      -0.00032535 Ry
     internal energy E=F+TS    =    -111.57829532 Ry

     The total energy is F=E-TS. E is the sum of the following terms:
     one-electron contribution =      11.19463485 Ry
     hartree contribution      =      14.18696822 Ry
     xc contribution           =     -52.90768898 Ry
     ewald contribution        =     -84.05220941 Ry

     total magnetization       =     5.81 Bohr mag/cell
     absolute magnetization    =     5.96 Bohr mag/cell

     convergence has been achieved in  12 iterations

     Forces acting on atoms (cartesian axes, Ry/au):

     atom    1 type  1   force =    -0.00000000   -0.00000484    0.00000000
     atom    2 type  1   force =     0.00000000    0.00000484    0.00000000
     The non-local contrib.  to forces
     atom    1 type  1   force =    -0.00000000   -0.00000775    0.00000000
     atom    2 type  1   force =     0.00000000    0.00000616    0.00000000
     The ionic contribution  to forces
     atom    1 type  1   force =     0.00000000    0.00000025   -0.00002542
     atom    2 type  1   force =    -0.00000000   -0.00000025    0.00002542
     The local contribution  to forces
     atom    1 type  1   force =    -0.00000000    0.00000437   -0.00000000
     atom    2 type  1   force =     0.00000000   -0.00000209    0.00008466
     The core correction contribution to forces
     atom    1 type  1   force =    -0.00000000    0.00000037   -0.00000000
     atom    2 type  1   force =     0.00000000   -0.00000012    0.00001364
     The Hubbard contrib.    to forces
     atom    1 type  1   force =     0.00000000    0.00000000    0.00000000
     atom    2 type  1   force =     0.00000000    0.00000000    0.00000000
     The SCF correction term to forces
     atom    1 type  1   force =     0.00000000   -0.00000236    0.00000000
     atom    2 type  1   force =     0.00000000    0.00000086   -0.00000000

     Total force =     0.000007     Total SCF correction =     0.000003
     SCF correction compared to forces is large: reduce conv_thr to get better values


     Computing stress (Cartesian axis) and pressure

          total   stress  (Ry/bohr**3)                   (kbar)     P=       -7.97
  -0.00004853  -0.00000000   0.00000000           -7.14       -0.00        0.00
   0.00000000  -0.00004858   0.00000000            0.00       -7.15        0.00
   0.00000000   0.00000000  -0.00006535            0.00        0.00       -9.61


     init_run     :      0.80s CPU      1.03s WALL (       2 calls)
     electrons    :     43.09s CPU     40.83s WALL (       8 calls)
     update_pot   :      0.38s CPU      0.42s WALL (       6 calls)
     forces       :      0.77s CPU      0.79s WALL (       8 calls)
     stress       :      2.02s CPU      1.97s WALL (       8 calls)

     Called by init_run:
     wfcinit      :      0.14s CPU      0.22s WALL (       2 calls)
     potinit      :      0.16s CPU      0.16s WALL (       2 calls)
     hinit0       :      0.45s CPU      0.45s WALL (       2 calls)

     Called by electrons:
     c_bands      :     36.07s CPU     34.33s WALL (     113 calls)
     sum_band     :      5.42s CPU      4.84s WALL (     113 calls)
     v_of_rho     :      0.67s CPU      0.73s WALL (     119 calls)
     newd         :      0.57s CPU      0.53s WALL (     119 calls)
     mix_rho      :      0.16s CPU      0.15s WALL (     113 calls)

     Called by c_bands:
     init_us_2    :      0.48s CPU      0.45s WALL (   13176 calls)
     init_us_2:cp :      0.46s CPU      0.43s WALL (   13176 calls)
     cegterg      :     31.66s CPU     28.64s WALL (    6102 calls)

     Called by *egterg:
     cdiaghg      :      6.75s CPU      6.09s WALL (   22701 calls)
     h_psi        :     20.25s CPU     18.39s WALL (   23241 calls)
     s_psi        :      0.60s CPU      0.54s WALL (   23241 calls)
     g_psi        :      0.07s CPU      0.07s WALL (   17031 calls)

     Called by h_psi:
     h_psi:calbec :      1.76s CPU      1.61s WALL (   23241 calls)
     vloc_psi     :     17.89s CPU     16.23s WALL (   23241 calls)
     add_vuspsi   :      0.45s CPU      0.41s WALL (   23241 calls)

     General routines
     calbec       :      2.65s CPU      2.44s WALL (   31503 calls)
     fft          :      0.66s CPU      0.63s WALL (    3289 calls)
     ffts         :      0.14s CPU      0.14s WALL (     464 calls)
     fftw         :     18.95s CPU     17.12s WALL (  488508 calls)
     interpolate  :      0.16s CPU      0.15s WALL (     238 calls)

     Parallel routines

     PWSCF        :     47.92s CPU     47.03s WALL


   This run was terminated on:  10:25:52  31Oct2023            

=------------------------------------------------------------------------------=
   JOB DONE.
=------------------------------------------------------------------------------=
