
     Program PWSCF v.7.2 starts on 31Oct2023 at 10:24:34 

     This program is part of the open-source Quantum ESPRESSO suite
     for quantum simulation of materials; please cite
         "P. Giannozzi et al., J. Phys.:Condens. Matter 21 395502 (2009);
         "P. Giannozzi et al., J. Phys.:Condens. Matter 29 465901 (2017);
         "P. Giannozzi et al., J. Chem. Phys. 152 154105 (2020);
          URL http://www.quantum-espresso.org", 
     in publications or presentations arising from this work. More details at
     http://www.quantum-espresso.org/quote

     Parallel version (MPI), running on     8 processors

     MPI processes distributed on     8 nodes
     186347 MiB available memory on the printing compute node when the environment starts

     Waiting for input...
     Reading input from standard input

     Current dimensions of program PWSCF are:
     Max number of different atomic species (ntypx) = 10
     Max number of k-points (npk) =  40000
     Max angular momentum in pseudopotentials (lmaxx) =  4
     file Fe.pbe-nd-rrkjus.UPF: wavefunction(s)  4S renormalized
     Message from routine find_sym:
     Not a group! Trying with lower acceptance parameter...
     Message from routine find_sym:
     Symmetry operations form a group
     Message from routine setup:
     using ibrav=0 with symmetry is DISCOURAGED, use correct ibrav instead

     R & G space division:  proc/nbgrp/npool/nimage =       8
     Subspace diagonalization in iterative solution of the eigenvalue problem:
     a serial algorithm will be used


     Parallelization info
     --------------------
     sticks:   dense  smooth     PW     G-vecs:    dense   smooth      PW
     Min          45      23      7                 1167      417      77
     Max          46      24      9                 1174      422      80
     Sum         367     187     61                 9369     3357     627

     Using Slab Decomposition



     bravais-lattice index     =            0
     lattice parameter (alat)  =       4.7243  a.u.
     unit-cell volume          =     149.1185 (a.u.)^3
     number of atoms/cell      =            2
     number of atomic types    =            1
     number of electrons       =        16.00
     number of Kohn-Sham states=           12
     kinetic-energy cutoff     =      30.0000  Ry
     charge density cutoff     =     240.0000  Ry
     scf convergence threshold =      1.0E-07
     mixing beta               =       0.5000
     number of iterations used =            8  plain     mixing
     energy convergence thresh.=      1.0E-04
     force convergence thresh. =      1.0E-03
     press convergence thresh. =      5.0E-01
     Exchange-correlation=  SLA  PW   PBE  PBE
                           (   1   4   3   4   0   0   0)
     nstep                     =           50


     celldm(1)=   4.724315  celldm(2)=   0.000000  celldm(3)=   0.000000
     celldm(4)=   0.000000  celldm(5)=   0.000000  celldm(6)=   0.000000

     crystal axes: (cart. coord. in units of alat)
               a(1) = (   1.000000   0.000000   0.000000 )  
               a(2) = (  -0.500000   0.866025   0.000000 )  
               a(3) = (   0.000000   0.000000   1.632993 )  

     reciprocal axes: (cart. coord. in units 2 pi/alat)
               b(1) = (  1.000000  0.577350 -0.000000 )  
               b(2) = (  0.000000  1.154701  0.000000 )  
               b(3) = (  0.000000 -0.000000  0.612372 )  


     PseudoPot. # 1 for Fe read from file:
     /home/gridsan/epan1/labutil/lab3_samples/pseudopotentials/Fe.pbe-nd-rrkjus.UPF
     MD5 check sum: 398036227a04b607635f6f5e8dfd8242
     Pseudo is Ultrasoft + core correction, Zval =  8.0
     Generated by new atomic code, or converted to UPF format
     Using radial grid of  957 points,  6 beta functions with: 
                l(1) =   0
                l(2) =   0
                l(3) =   1
                l(4) =   1
                l(5) =   2
                l(6) =   2
     Q(r) pseudized with 0 coefficients 


     atomic species   valence    mass     pseudopotential
        Fe             8.00    55.84500     Fe( 1.00)

     Starting magnetic structure 
     atomic species   magnetization
        Fe           0.700

      4 Sym. Ops. (no inversion) found



   Cartesian axes

     site n.     atom                  positions (alat units)
         1           Fe  tau(   1) = (   0.0000000   0.0000000   0.0000000  )
         2           Fe  tau(   2) = (  -0.0000000   0.5773520   0.8164960  )

     number of k points=    21  Methfessel-Paxton smearing, width (Ry)=  0.0200
                       cart. coord. in units 2pi/alat
        k(    1) = (   0.0000000   0.0000000   0.0000000), wk =   0.0156250
        k(    2) = (   0.0000000   0.0000000   0.1530931), wk =   0.0312500
        k(    3) = (   0.0000000   0.0000000  -0.3061862), wk =   0.0156250
        k(    4) = (   0.0000000   0.2886751   0.0000000), wk =   0.0312500
        k(    5) = (   0.0000000   0.2886751   0.1530931), wk =   0.0625000
        k(    6) = (   0.0000000   0.2886751  -0.3061862), wk =   0.0312500
        k(    7) = (   0.0000000  -0.5773503   0.0000000), wk =   0.0156250
        k(    8) = (   0.0000000  -0.5773503   0.1530931), wk =   0.0312500
        k(    9) = (   0.0000000  -0.5773503  -0.3061862), wk =   0.0156250
        k(   10) = (   0.2500000   0.4330127   0.0000000), wk =   0.0625000
        k(   11) = (   0.2500000   0.4330127   0.1530931), wk =   0.1250000
        k(   12) = (   0.2500000   0.4330127  -0.3061862), wk =   0.0625000
        k(   13) = (   0.2500000  -0.1443376   0.0000000), wk =   0.0625000
        k(   14) = (   0.2500000  -0.1443376   0.1530931), wk =   0.1250000
        k(   15) = (   0.2500000  -0.1443376  -0.3061862), wk =   0.0625000
        k(   16) = (  -0.5000000   0.2886751   0.0000000), wk =   0.0312500
        k(   17) = (  -0.5000000   0.2886751   0.1530931), wk =   0.0625000
        k(   18) = (  -0.5000000   0.2886751  -0.3061862), wk =   0.0312500
        k(   19) = (   0.5000000  -0.0000000   0.0000000), wk =   0.0312500
        k(   20) = (   0.5000000  -0.0000000  -0.1530931), wk =   0.0625000
        k(   21) = (   0.5000000  -0.0000000   0.3061862), wk =   0.0312500

     Dense  grid:     9369 G-vectors     FFT dimensions: (  24,  24,  40)

     Smooth grid:     3357 G-vectors     FFT dimensions: (  18,  18,  27)

     Estimated max dynamical RAM per process >       7.69 MB

     Estimated total dynamical RAM >      61.49 MB
     Generating pointlists ...
     new r_m :   0.4125 (alat units)  1.9488 (a.u.) for type    1

     Initial potential from superposition of free atoms

     starting charge      15.9987, renormalised to      16.0000
     Starting wfcs are   12 randomized atomic wfcs

     total cpu time spent up to now is        0.5 secs

     Self-consistent Calculation

     iteration #  1     ecut=    30.00 Ry     beta= 0.50
     Davidson diagonalization with overlap
     ethr =  1.00E-02,  avg # of iterations =  3.9

     total cpu time spent up to now is        0.8 secs

     total energy              =    -111.36846470 Ry
     estimated scf accuracy    <       0.48847511 Ry

     total magnetization       =     6.31 Bohr mag/cell
     absolute magnetization    =     6.31 Bohr mag/cell

     iteration #  2     ecut=    30.00 Ry     beta= 0.50
     Davidson diagonalization with overlap
     ethr =  3.05E-03,  avg # of iterations =  2.0

     total cpu time spent up to now is        1.0 secs

     total energy              =    -111.53808110 Ry
     estimated scf accuracy    <       0.05222480 Ry

     total magnetization       =     5.34 Bohr mag/cell
     absolute magnetization    =     5.38 Bohr mag/cell

     iteration #  3     ecut=    30.00 Ry     beta= 0.50
     Davidson diagonalization with overlap
     ethr =  3.26E-04,  avg # of iterations =  1.4

     total cpu time spent up to now is        1.2 secs

     total energy              =    -111.57278082 Ry
     estimated scf accuracy    <       0.01509053 Ry

     total magnetization       =     5.18 Bohr mag/cell
     absolute magnetization    =     5.27 Bohr mag/cell

     iteration #  4     ecut=    30.00 Ry     beta= 0.50
     Davidson diagonalization with overlap
     ethr =  9.43E-05,  avg # of iterations =  1.9

     total cpu time spent up to now is        1.4 secs

     total energy              =    -111.57271409 Ry
     estimated scf accuracy    <       0.01759689 Ry

     total magnetization       =     5.19 Bohr mag/cell
     absolute magnetization    =     5.33 Bohr mag/cell

     iteration #  5     ecut=    30.00 Ry     beta= 0.50
     Davidson diagonalization with overlap
     ethr =  9.43E-05,  avg # of iterations =  1.0

     total cpu time spent up to now is        1.6 secs

     total energy              =    -111.57408696 Ry
     estimated scf accuracy    <       0.00110989 Ry

     total magnetization       =     5.23 Bohr mag/cell
     absolute magnetization    =     5.36 Bohr mag/cell

     iteration #  6     ecut=    30.00 Ry     beta= 0.50
     Davidson diagonalization with overlap
     ethr =  6.94E-06,  avg # of iterations =  2.2

     total cpu time spent up to now is        1.8 secs

     total energy              =    -111.57446711 Ry
     estimated scf accuracy    <       0.00015282 Ry

     total magnetization       =     5.25 Bohr mag/cell
     absolute magnetization    =     5.39 Bohr mag/cell

     iteration #  7     ecut=    30.00 Ry     beta= 0.50
     Davidson diagonalization with overlap
     ethr =  9.55E-07,  avg # of iterations =  3.6

     total cpu time spent up to now is        2.1 secs

     total energy              =    -111.57450298 Ry
     estimated scf accuracy    <       0.00019975 Ry

     total magnetization       =     5.24 Bohr mag/cell
     absolute magnetization    =     5.40 Bohr mag/cell

     iteration #  8     ecut=    30.00 Ry     beta= 0.50
     Davidson diagonalization with overlap
     ethr =  9.55E-07,  avg # of iterations =  2.8

     total cpu time spent up to now is        2.4 secs

     total energy              =    -111.57459662 Ry
     estimated scf accuracy    <       0.00007870 Ry

     total magnetization       =     5.24 Bohr mag/cell
     absolute magnetization    =     5.41 Bohr mag/cell

     iteration #  9     ecut=    30.00 Ry     beta= 0.50
     Davidson diagonalization with overlap
     ethr =  4.92E-07,  avg # of iterations =  1.8

     total cpu time spent up to now is        2.6 secs

     total energy              =    -111.57460992 Ry
     estimated scf accuracy    <       0.00000219 Ry

     total magnetization       =     5.24 Bohr mag/cell
     absolute magnetization    =     5.41 Bohr mag/cell

     iteration # 10     ecut=    30.00 Ry     beta= 0.50
     Davidson diagonalization with overlap
     ethr =  1.37E-08,  avg # of iterations =  7.3

     total cpu time spent up to now is        3.1 secs

     total energy              =    -111.57461533 Ry
     estimated scf accuracy    <       0.00000069 Ry

     total magnetization       =     5.24 Bohr mag/cell
     absolute magnetization    =     5.41 Bohr mag/cell

     iteration # 11     ecut=    30.00 Ry     beta= 0.50
     Davidson diagonalization with overlap
     ethr =  4.29E-09,  avg # of iterations =  2.8

     Magnetic moment per site  (integrated on atomic sphere of radius R)
     atom   1 (R=0.412)  charge=  6.6101  magn=  2.6417
     atom   2 (R=0.412)  charge=  6.6102  magn=  2.6417

     total cpu time spent up to now is        3.3 secs

     End of self-consistent calculation

 ------ SPIN UP ------------


          k = 0.0000 0.0000 0.0000 (   391 PWs)   bands (ev):

     5.4417   9.0150  11.6693  11.6693  11.7207  12.0145  12.0145  12.3988
    12.3988  13.5943  13.5944  14.1648

          k = 0.0000 0.0000 0.1531 (   397 PWs)   bands (ev):

     6.0591   8.8540  11.5607  11.5607  11.5611  11.8508  11.8508  12.5221
    12.7417  12.7417  13.5440  13.5440

          k = 0.0000 0.0000-0.3062 (   422 PWs)   bands (ev):

     7.6396   7.6397  11.4028  11.4030  11.6003  11.6003  11.6004  11.6004
    13.2573  13.2573  13.2575  13.2575

          k = 0.0000 0.2887 0.0000 (   407 PWs)   bands (ev):

     7.4632   9.8332  10.6073  10.9753  11.6687  11.8852  12.0934  12.6861
    12.7588  12.9108  13.7636  18.8521

          k = 0.0000 0.2887 0.1531 (   414 PWs)   bands (ev):

     7.8983   9.8625  10.3878  11.0596  11.4277  11.9896  12.0870  12.6792
    12.9043  13.0248  13.6342  16.2595

          k = 0.0000 0.2887-0.3062 (   420 PWs)   bands (ev):

     8.9600   8.9601  10.7487  10.7488  11.6811  11.6812  12.3004  12.3004
    13.2845  13.2845  14.0571  14.0571

          k = 0.0000-0.5774 0.0000 (   428 PWs)   bands (ev):

     9.2858   9.4326   9.5466  11.4779  11.6867  11.8881  12.2058  13.8341
    13.8354  13.9950  15.9468  18.0292

          k = 0.0000-0.5774 0.1531 (   416 PWs)   bands (ev):

     8.9357   9.3634  10.3551  10.4689  11.7664  12.3373  13.3977  13.5628
    13.8825  13.9762  15.4389  17.5464

          k = 0.0000-0.5774-0.3062 (   420 PWs)   bands (ev):

     9.0518   9.0519  10.3838  10.3839  12.5233  12.5235  13.4668  13.4670
    13.9299  13.9301  16.0551  16.0551

          k = 0.2500 0.4330 0.0000 (   426 PWs)   bands (ev):

     9.8009   9.9142  10.3025  10.3504  11.2288  11.7455  12.1048  13.1335
    13.6374  13.8898  15.7152  22.1595

          k = 0.2500 0.4330 0.1531 (   414 PWs)   bands (ev):

     9.7479   9.8161  10.3724  10.7126  11.4339  11.5646  12.1035  13.0649
    13.3915  14.0201  15.9799  19.5217

          k = 0.2500 0.4330-0.3062 (   424 PWs)   bands (ev):

     9.7173   9.7174  10.8461  10.8462  11.3908  11.3908  12.3512  12.3513
    13.9331  13.9332  17.0314  17.0315

          k = 0.2500-0.1443 0.0000 (   407 PWs)   bands (ev):

     7.4632   9.8332  10.6073  10.9753  11.6687  11.8852  12.0934  12.6861
    12.7588  12.9108  13.7635  18.8521

          k = 0.2500-0.1443 0.1531 (   414 PWs)   bands (ev):

     7.8983   9.8625  10.3878  11.0596  11.4276  11.9896  12.0870  12.6792
    12.9043  13.0248  13.6342  16.2595

          k = 0.2500-0.1443-0.3062 (   420 PWs)   bands (ev):

     8.9600   8.9601  10.7487  10.7488  11.6811  11.6812  12.3004  12.3004
    13.2845  13.2845  14.0571  14.0571

          k =-0.5000 0.2887 0.0000 (   428 PWs)   bands (ev):

     9.2858   9.4326   9.5466  11.4779  11.6867  11.8881  12.2058  13.8341
    13.8354  13.9950  15.9468  18.0292

          k =-0.5000 0.2887 0.1531 (   416 PWs)   bands (ev):

     8.9357   9.3634  10.3551  10.4689  11.7664  12.3373  13.3977  13.5627
    13.8825  13.9762  15.4389  17.5463

          k =-0.5000 0.2887-0.3062 (   420 PWs)   bands (ev):

     9.0518   9.0519  10.3838  10.3839  12.5233  12.5235  13.4669  13.4670
    13.9299  13.9301  16.0551  16.0551

          k = 0.5000-0.0000 0.0000 (   426 PWs)   bands (ev):

     9.8009   9.9142  10.3025  10.3504  11.2288  11.7455  12.1048  13.1335
    13.6374  13.8898  15.7152  22.1595

          k = 0.5000-0.0000-0.1531 (   414 PWs)   bands (ev):

     9.7479   9.8161  10.3724  10.7126  11.4338  11.5646  12.1035  13.0648
    13.3915  14.0201  15.9799  19.5217

          k = 0.5000-0.0000 0.3062 (   424 PWs)   bands (ev):

     9.7173   9.7174  10.8461  10.8462  11.3908  11.3908  12.3512  12.3513
    13.9331  13.9332  17.0314  17.0315

 ------ SPIN DOWN ----------


          k = 0.0000 0.0000 0.0000 (   391 PWs)   bands (ev):

     5.6952  10.4783  14.2300  14.3529  14.3529  14.3563  14.7865  14.7865
    15.5008  15.5008  16.8817  16.8817

          k = 0.0000 0.0000 0.1531 (   397 PWs)   bands (ev):

     6.3181   9.8582  13.6117  13.9898  14.2620  14.2620  14.6023  14.6023
    15.8714  15.8714  16.8196  16.8196

          k = 0.0000 0.0000-0.3062 (   422 PWs)   bands (ev):

     7.9954   7.9955  13.5195  13.5196  14.3184  14.3184  14.3185  14.3185
    16.4743  16.4743  16.4743  16.4743

          k = 0.0000 0.2887 0.0000 (   407 PWs)   bands (ev):

     7.7883  11.6345  12.5369  13.1661  14.1868  14.8303  14.8574  15.4019
    15.5304  15.8167  17.0999  20.5237

          k = 0.0000 0.2887 0.1531 (   414 PWs)   bands (ev):

     8.2987  11.1916  12.4365  13.3222  13.9070  14.5025  14.9169  15.5494
    15.8745  15.9092  16.9072  18.5331

          k = 0.0000 0.2887-0.3062 (   420 PWs)   bands (ev):

     9.6557   9.6558  13.0180  13.0181  13.9612  13.9613  15.1852  15.1852
    16.4114  16.4114  16.9000  16.9001

          k = 0.0000-0.5774 0.0000 (   428 PWs)   bands (ev):

    10.9026  11.2213  11.6702  12.9621  14.2564  14.3585  14.6392  16.9257
    17.1102  17.1874  18.1046  19.7366

          k = 0.0000-0.5774 0.1531 (   416 PWs)   bands (ev):

    10.6638  11.2006  12.3799  12.4532  14.5328  14.6879  15.3195  16.6170
    16.9967  17.0888  17.4056  19.1278

          k = 0.0000-0.5774-0.3062 (   420 PWs)   bands (ev):

    10.8088  10.8088  12.6243  12.6244  15.2723  15.2724  15.5682  15.5682
    17.0368  17.0369  17.6027  17.6028

          k = 0.2500 0.4330 0.0000 (   426 PWs)   bands (ev):

    10.8532  11.9716  12.1857  12.2514  13.9021  14.4176  14.6420  15.9257
    16.8743  16.9410  18.1420  23.2377

          k = 0.2500 0.4330 0.1531 (   414 PWs)   bands (ev):

    11.0368  11.7825  12.3780  12.6383  13.8610  13.9382  14.7368  16.0554
    16.4011  17.0703  18.3569  20.9376

          k = 0.2500 0.4330-0.3062 (   424 PWs)   bands (ev):

    11.4396  11.4397  12.9124  12.9124  13.4917  13.4918  15.2455  15.2455
    16.9593  16.9594  18.9314  18.9314

          k = 0.2500-0.1443 0.0000 (   407 PWs)   bands (ev):

     7.7883  11.6345  12.5369  13.1661  14.1868  14.8303  14.8574  15.4019
    15.5304  15.8167  17.0999  20.5236

          k = 0.2500-0.1443 0.1531 (   414 PWs)   bands (ev):

     8.2987  11.1916  12.4365  13.3222  13.9070  14.5025  14.9169  15.5494
    15.8745  15.9092  16.9072  18.5331

          k = 0.2500-0.1443-0.3062 (   420 PWs)   bands (ev):

     9.6557   9.6558  13.0180  13.0181  13.9612  13.9613  15.1852  15.1852
    16.4114  16.4114  16.9000  16.9001

          k =-0.5000 0.2887 0.0000 (   428 PWs)   bands (ev):

    10.9026  11.2213  11.6702  12.9621  14.2564  14.3585  14.6392  16.9257
    17.1102  17.1874  18.1046  19.7366

          k =-0.5000 0.2887 0.1531 (   416 PWs)   bands (ev):

    10.6638  11.2006  12.3799  12.4532  14.5328  14.6879  15.3194  16.6170
    16.9967  17.0888  17.4056  19.1278

          k =-0.5000 0.2887-0.3062 (   420 PWs)   bands (ev):

    10.8088  10.8088  12.6243  12.6244  15.2723  15.2724  15.5682  15.5682
    17.0368  17.0369  17.6027  17.6027

          k = 0.5000-0.0000 0.0000 (   426 PWs)   bands (ev):

    10.8532  11.9716  12.1857  12.2514  13.9021  14.4176  14.6420  15.9257
    16.8743  16.9410  18.1420  23.2377

          k = 0.5000-0.0000-0.1531 (   414 PWs)   bands (ev):

    11.0368  11.7825  12.3780  12.6383  13.8610  13.9382  14.7368  16.0554
    16.4011  17.0703  18.3569  20.9375

          k = 0.5000-0.0000 0.3062 (   424 PWs)   bands (ev):

    11.4396  11.4397  12.9124  12.9124  13.4917  13.4918  15.2455  15.2455
    16.9593  16.9594  18.9314  18.9314

     the Fermi energy is    14.3888 ev

!    total energy              =    -111.57461564 Ry
     estimated scf accuracy    <       0.00000003 Ry
     smearing contrib. (-TS)   =       0.00120602 Ry
     internal energy E=F+TS    =    -111.57582165 Ry

     The total energy is F=E-TS. E is the sum of the following terms:
     one-electron contribution =      16.46705081 Ry
     hartree contribution      =      12.85293769 Ry
     xc contribution           =     -53.06130390 Ry
     ewald contribution        =     -87.83450626 Ry

     total magnetization       =     5.24 Bohr mag/cell
     absolute magnetization    =     5.41 Bohr mag/cell

     convergence has been achieved in  11 iterations

     Forces acting on atoms (cartesian axes, Ry/au):

     atom    1 type  1   force =     0.00000000   -0.00000127    0.00000000
     atom    2 type  1   force =     0.00000000    0.00000127    0.00000000
     The non-local contrib.  to forces
     atom    1 type  1   force =     0.00000000   -0.00001061    0.00000000
     atom    2 type  1   force =     0.00000000   -0.00001375    0.00000000
     The ionic contribution  to forces
     atom    1 type  1   force =    -0.00000000    0.00000403   -0.00002690
     atom    2 type  1   force =     0.00000000   -0.00000403    0.00002690
     The local contribution  to forces
     atom    1 type  1   force =    -0.00000000    0.00000879   -0.00000000
     atom    2 type  1   force =     0.00000000    0.00002798    0.00007650
     The core correction contribution to forces
     atom    1 type  1   force =    -0.00000000    0.00000146    0.00000000
     atom    2 type  1   force =     0.00000000    0.00000352    0.00001273
     The Hubbard contrib.    to forces
     atom    1 type  1   force =     0.00000000    0.00000000    0.00000000
     atom    2 type  1   force =     0.00000000    0.00000000    0.00000000
     The SCF correction term to forces
     atom    1 type  1   force =    -0.00000000   -0.00000943   -0.00000000
     atom    2 type  1   force =     0.00000000   -0.00001696    0.00000001

     Total force =     0.000002     Total SCF correction =     0.000019
     SCF correction compared to forces is large: reduce conv_thr to get better values


     Computing stress (Cartesian axis) and pressure

          total   stress  (Ry/bohr**3)                   (kbar)     P=      205.83
   0.00097777   0.00000000   0.00000000          143.83        0.00        0.00
   0.00000000   0.00097781   0.00000000            0.00      143.84        0.00
   0.00000000   0.00000000   0.00224207            0.00        0.00      329.82


     BFGS Geometry Optimization
     Energy error            =      0.0E+00 Ry
     Gradient error          =      1.3E-06 Ry/Bohr
     Cell gradient error     =      3.3E+02 kbar

     number of scf cycles    =   1
     number of bfgs steps    =   0

     enthalpy           new  =    -111.5746156378 Ry

     new trust radius        =       0.1368941452 bohr
     new conv_thr            =       0.0000001000 Ry

     new unit-cell volume =    165.26995 a.u.^3 (    24.49048 Ang^3 )
     density =      7.57297 g/cm^3

CELL_PARAMETERS (angstrom)
   2.561110382   0.000000000   0.000000000
  -1.280555191   2.217989216   0.000000000
   0.000000000   0.000000000   4.311313158

ATOMIC_POSITIONS (angstrom)
Fe            0.0000000000       -0.0000006859        0.0000000000
Fe            0.0000000000        1.4786645957        2.1556550452



     Writing config-only to output data dir /home/gridsan/epan1/labutil/lab3_samples/problem1/Lab3/Fe_hcp_a_2.5_ecut_30_nk_4/pwscf.save/
     NEW-OLD atomic charge density approx. for the potential

     Check: negative core charge=   -0.000004
     extrapolated charge   17.56352, renormalised to   16.00000
     Generating pointlists ...

     total cpu time spent up to now is        3.9 secs

     Self-consistent Calculation

     iteration #  1     ecut=    30.00 Ry     beta= 0.50
     Davidson diagonalization with overlap
     ethr =  1.00E-06,  avg # of iterations = 12.2

     total cpu time spent up to now is        4.7 secs

     total energy              =    -110.59968031 Ry
     estimated scf accuracy    <       1.03550044 Ry

     total magnetization       =     3.82 Bohr mag/cell
     absolute magnetization    =     4.10 Bohr mag/cell

     iteration #  2     ecut=    30.00 Ry     beta= 0.50
     Davidson diagonalization with overlap
     ethr =  6.47E-03,  avg # of iterations =  3.3

     total cpu time spent up to now is        5.0 secs

     total energy              =    -111.53683840 Ry
     estimated scf accuracy    <       2.16688808 Ry

     total magnetization       =     4.71 Bohr mag/cell
     absolute magnetization    =     4.90 Bohr mag/cell

     iteration #  3     ecut=    30.00 Ry     beta= 0.50
     Davidson diagonalization with overlap
     ethr =  6.47E-03,  avg # of iterations =  1.7

     total cpu time spent up to now is        5.2 secs

     total energy              =    -111.61204239 Ry
     estimated scf accuracy    <       0.43035960 Ry

     total magnetization       =     5.17 Bohr mag/cell
     absolute magnetization    =     5.35 Bohr mag/cell

     iteration #  4     ecut=    30.00 Ry     beta= 0.50
     Davidson diagonalization with overlap
     ethr =  2.69E-03,  avg # of iterations =  1.1

     total cpu time spent up to now is        5.4 secs

     total energy              =    -111.61383757 Ry
     estimated scf accuracy    <       0.22320620 Ry

     total magnetization       =     5.17 Bohr mag/cell
     absolute magnetization    =     5.35 Bohr mag/cell

     iteration #  5     ecut=    30.00 Ry     beta= 0.50
     Davidson diagonalization with overlap
     ethr =  1.40E-03,  avg # of iterations =  1.1

     total cpu time spent up to now is        5.6 secs

     total energy              =    -111.60431285 Ry
     estimated scf accuracy    <       0.14865277 Ry

     total magnetization       =     5.16 Bohr mag/cell
     absolute magnetization    =     5.37 Bohr mag/cell

     iteration #  6     ecut=    30.00 Ry     beta= 0.50
     Davidson diagonalization with overlap
     ethr =  9.29E-04,  avg # of iterations =  1.0

     total cpu time spent up to now is        5.8 secs

     total energy              =    -111.57788667 Ry
     estimated scf accuracy    <       0.09368315 Ry

     total magnetization       =     5.16 Bohr mag/cell
     absolute magnetization    =     5.38 Bohr mag/cell

     iteration #  7     ecut=    30.00 Ry     beta= 0.50
     Davidson diagonalization with overlap
     ethr =  5.86E-04,  avg # of iterations =  1.4

     total cpu time spent up to now is        6.0 secs

     total energy              =    -111.58497167 Ry
     estimated scf accuracy    <       0.01047186 Ry

     total magnetization       =     5.19 Bohr mag/cell
     absolute magnetization    =     5.43 Bohr mag/cell

     iteration #  8     ecut=    30.00 Ry     beta= 0.50
     Davidson diagonalization with overlap
     ethr =  6.54E-05,  avg # of iterations =  2.5

     total cpu time spent up to now is        6.2 secs

     total energy              =    -111.58617458 Ry
     estimated scf accuracy    <       0.00334275 Ry

     total magnetization       =     5.19 Bohr mag/cell
     absolute magnetization    =     5.44 Bohr mag/cell

     iteration #  9     ecut=    30.00 Ry     beta= 0.50
     Davidson diagonalization with overlap
     ethr =  2.09E-05,  avg # of iterations =  1.8

     total cpu time spent up to now is        6.4 secs

     total energy              =    -111.58616106 Ry
     estimated scf accuracy    <       0.00082083 Ry

     total magnetization       =     5.19 Bohr mag/cell
     absolute magnetization    =     5.45 Bohr mag/cell

     iteration # 10     ecut=    30.00 Ry     beta= 0.50
     Davidson diagonalization with overlap
     ethr =  5.13E-06,  avg # of iterations =  2.7

     total cpu time spent up to now is        6.7 secs

     total energy              =    -111.58637426 Ry
     estimated scf accuracy    <       0.00000548 Ry

     total magnetization       =     5.19 Bohr mag/cell
     absolute magnetization    =     5.45 Bohr mag/cell

     iteration # 11     ecut=    30.00 Ry     beta= 0.50
     Davidson diagonalization with overlap
     ethr =  3.43E-08,  avg # of iterations =  6.4

     total cpu time spent up to now is        7.1 secs

     total energy              =    -111.58639197 Ry
     estimated scf accuracy    <       0.00000360 Ry

     total magnetization       =     5.19 Bohr mag/cell
     absolute magnetization    =     5.45 Bohr mag/cell

     iteration # 12     ecut=    30.00 Ry     beta= 0.50
     Davidson diagonalization with overlap
     ethr =  2.25E-08,  avg # of iterations =  1.6

     total cpu time spent up to now is        7.3 secs

     total energy              =    -111.58639287 Ry
     estimated scf accuracy    <       0.00000083 Ry

     total magnetization       =     5.19 Bohr mag/cell
     absolute magnetization    =     5.45 Bohr mag/cell

     iteration # 13     ecut=    30.00 Ry     beta= 0.50
     Davidson diagonalization with overlap
     ethr =  5.22E-09,  avg # of iterations =  3.3

     total cpu time spent up to now is        7.6 secs

     total energy              =    -111.58639305 Ry
     estimated scf accuracy    <       0.00000031 Ry

     total magnetization       =     5.19 Bohr mag/cell
     absolute magnetization    =     5.46 Bohr mag/cell

     iteration # 14     ecut=    30.00 Ry     beta= 0.50
     Davidson diagonalization with overlap
     ethr =  1.96E-09,  avg # of iterations =  3.5

     Magnetic moment per site  (integrated on atomic sphere of radius R)
     atom   1 (R=0.412)  charge=  6.4827  magn=  2.6459
     atom   2 (R=0.412)  charge=  6.4829  magn=  2.6457

     total cpu time spent up to now is        7.8 secs

     End of self-consistent calculation

 ------ SPIN UP ------------


          k = 0.0000 0.0000 0.0000 (   391 PWs)   bands (ev):

     4.2762   7.7217   9.9878  10.0848  10.0848  10.3423  10.3423  10.7290
    10.7290  11.6410  11.6410  12.1731

          k = 0.0000 0.0000 0.1450 (   397 PWs)   bands (ev):

     4.8229   7.4961   9.8723  10.0143  10.0143  10.2269  10.2269  10.6957
    10.9759  10.9759  11.5917  11.5917

          k = 0.0000 0.0000-0.2899 (   422 PWs)   bands (ev):

     6.2548   6.2550   9.7684   9.7684  10.0460  10.0460  10.0460  10.0460
    11.3635  11.3635  11.3635  11.3635

          k =-0.0000 0.2818 0.0000 (   407 PWs)   bands (ev):

     6.1969   8.5129   9.0944   9.5339   9.9877  10.3037  10.3692  10.9329
    10.9814  11.1467  11.7539  16.4199

          k =-0.0000 0.2818 0.1450 (   414 PWs)   bands (ev):

     6.5962   8.4514   8.9558   9.5691   9.8235  10.3776  10.3985  10.9635
    11.1384  11.1569  11.6585  13.9859

          k =-0.0000 0.2818-0.2899 (   420 PWs)   bands (ev):

     7.5777   7.5778   9.2625   9.2626  10.0754  10.0754  10.6610  10.6610
    11.4053  11.4053  12.0376  12.0376

          k = 0.0000-0.5636 0.0000 (   428 PWs)   bands (ev):

     8.0320   8.0962   8.2121   9.9551   9.9620  10.3969  10.4778  11.7910
    11.9914  12.1050  13.9651  15.8511

          k = 0.0000-0.5636 0.1450 (   416 PWs)   bands (ev):

     7.6884   8.0716   8.8567   9.0189  10.1912  10.6513  11.4675  11.7006
    12.0190  12.0913  13.5869  15.4402

          k = 0.0000-0.5636-0.2899 (   420 PWs)   bands (ev):

     7.7860   7.7861   8.9077   8.9077  10.7881  10.7882  11.6339  11.6339
    12.0571  12.0571  14.1594  14.1595

          k = 0.2440 0.4227 0.0000 (   426 PWs)   bands (ev):

     8.4651   8.5661   8.9402   9.0010   9.6602  10.0855  10.3874  11.2590
    11.5897  11.9904  13.7418  19.7741

          k = 0.2440 0.4227 0.1450 (   414 PWs)   bands (ev):

     8.4140   8.4674   8.9842   9.2875   9.8289   9.9624  10.4143  11.1844
    11.4759  12.0867  13.9652  17.1847

          k = 0.2440 0.4227-0.2899 (   424 PWs)   bands (ev):

     8.3781   8.3782   9.3490   9.3491   9.8398   9.8399  10.6257  10.6257
    11.9874  11.9874  14.9207  14.9207

          k = 0.2440-0.1409 0.0000 (   407 PWs)   bands (ev):

     6.1969   8.5129   9.0944   9.5339   9.9877  10.3037  10.3692  10.9329
    10.9814  11.1467  11.7539  16.4200

          k = 0.2440-0.1409 0.1450 (   414 PWs)   bands (ev):

     6.5962   8.4514   8.9558   9.5692   9.8235  10.3776  10.3985  10.9635
    11.1384  11.1569  11.6585  13.9859

          k = 0.2440-0.1409-0.2899 (   420 PWs)   bands (ev):

     7.5777   7.5778   9.2625   9.2626  10.0754  10.0754  10.6610  10.6610
    11.4053  11.4053  12.0376  12.0376

          k =-0.4881 0.2818 0.0000 (   428 PWs)   bands (ev):

     8.0320   8.0962   8.2121   9.9551   9.9620  10.3969  10.4778  11.7909
    11.9914  12.1050  13.9652  15.8511

          k =-0.4881 0.2818 0.1450 (   416 PWs)   bands (ev):

     7.6884   8.0716   8.8567   9.0189  10.1912  10.6513  11.4675  11.7005
    12.0191  12.0913  13.5869  15.4401

          k =-0.4881 0.2818-0.2899 (   420 PWs)   bands (ev):

     7.7860   7.7861   8.9077   8.9077  10.7881  10.7882  11.6339  11.6340
    12.0571  12.0571  14.1594  14.1595

          k = 0.4881-0.0000 0.0000 (   426 PWs)   bands (ev):

     8.4651   8.5661   8.9402   9.0010   9.6602  10.0855  10.3874  11.2590
    11.5897  11.9904  13.7418  19.7741

          k = 0.4881-0.0000-0.1450 (   414 PWs)   bands (ev):

     8.4140   8.4674   8.9842   9.2875   9.8289   9.9624  10.4143  11.1844
    11.4759  12.0867  13.9652  17.1847

          k = 0.4881-0.0000 0.2899 (   424 PWs)   bands (ev):

     8.3781   8.3782   9.3490   9.3490   9.8399   9.8399  10.6257  10.6257
    11.9874  11.9874  14.9207  14.9208

 ------ SPIN DOWN ----------


          k = 0.0000 0.0000 0.0000 (   391 PWs)   bands (ev):

     4.4304   9.0752  12.2438  12.4042  12.7566  12.7566  13.0895  13.0895
    13.9057  13.9057  14.9876  14.9876

          k = 0.0000 0.0000 0.1450 (   397 PWs)   bands (ev):

     4.9813   8.3214  11.7745  12.2140  12.7075  12.7075  12.9620  12.9620
    14.1706  14.1706  14.9195  14.9195

          k = 0.0000 0.0000-0.2899 (   422 PWs)   bands (ev):

     6.4926   6.4927  11.8230  11.8232  12.7578  12.7578  12.7579  12.7579
    14.6309  14.6309  14.6311  14.6311

          k =-0.0000 0.2818 0.0000 (   407 PWs)   bands (ev):

     6.4179  10.2519  10.9684  11.7112  12.4592  13.1952  13.3548  13.4986
    13.8089  14.0276  15.1400  18.0555

          k =-0.0000 0.2818 0.1450 (   414 PWs)   bands (ev):

     6.8836   9.6455  11.0085  11.8512  12.2390  12.7926  13.3875  13.8304
    14.0395  14.1008  14.9699  16.2727

          k =-0.0000 0.2818-0.2899 (   420 PWs)   bands (ev):

     8.1412   8.1414  11.5359  11.5360  12.3269  12.3271  13.5755  13.5755
    14.5480  14.5481  14.9046  14.9046

          k = 0.0000-0.5636 0.0000 (   428 PWs)   bands (ev):

     9.5364   9.9408  10.3796  11.4414  12.5626  12.8236  12.9222  15.0556
    15.1872  15.1882  15.9756  17.4360

          k = 0.0000-0.5636 0.1450 (   416 PWs)   bands (ev):

     9.3935   9.8856  10.9185  11.0311  12.7753  13.1918  13.4867  14.7514
    15.0996  15.1724  15.3487  16.8868

          k = 0.0000-0.5636-0.2899 (   420 PWs)   bands (ev):

     9.5355   9.5355  11.1416  11.1416  13.4570  13.4570  13.9076  13.9078
    15.1339  15.1342  15.5208  15.5208

          k = 0.2440 0.4227 0.0000 (   426 PWs)   bands (ev):

     9.4132  10.6660  10.8242  10.8923  12.3942  12.8260  12.8565  13.9752
    14.9219  14.9303  16.1136  20.7288

          k = 0.2440 0.4227 0.1450 (   414 PWs)   bands (ev):

     9.6125  10.4624  10.9849  11.1944  12.2922  12.3542  13.0382  14.1921
    14.4711  15.0942  16.2769  18.5328

          k = 0.2440 0.4227-0.2899 (   424 PWs)   bands (ev):

    10.0644  10.0645  11.4009  11.4010  11.9583  11.9584  13.5433  13.5434
    14.9812  14.9813  16.7664  16.7665

          k = 0.2440-0.1409 0.0000 (   407 PWs)   bands (ev):

     6.4179  10.2519  10.9684  11.7112  12.4592  13.1952  13.3548  13.4986
    13.8089  14.0276  15.1400  18.0555

          k = 0.2440-0.1409 0.1450 (   414 PWs)   bands (ev):

     6.8836   9.6455  11.0085  11.8512  12.2390  12.7926  13.3875  13.8304
    14.0395  14.1008  14.9699  16.2727

          k = 0.2440-0.1409-0.2899 (   420 PWs)   bands (ev):

     8.1413   8.1414  11.5359  11.5360  12.3269  12.3271  13.5754  13.5755
    14.5480  14.5481  14.9046  14.9046

          k =-0.4881 0.2818 0.0000 (   428 PWs)   bands (ev):

     9.5364   9.9408  10.3796  11.4414  12.5626  12.8236  12.9222  15.0556
    15.1872  15.1882  15.9756  17.4360

          k =-0.4881 0.2818 0.1450 (   416 PWs)   bands (ev):

     9.3935   9.8856  10.9185  11.0311  12.7753  13.1918  13.4867  14.7514
    15.0996  15.1724  15.3487  16.8867

          k =-0.4881 0.2818-0.2899 (   420 PWs)   bands (ev):

     9.5355   9.5355  11.1416  11.1416  13.4570  13.4570  13.9076  13.9078
    15.1339  15.1342  15.5208  15.5208

          k = 0.4881-0.0000 0.0000 (   426 PWs)   bands (ev):

     9.4132  10.6660  10.8242  10.8923  12.3942  12.8260  12.8565  13.9752
    14.9219  14.9303  16.1136  20.7288

          k = 0.4881-0.0000-0.1450 (   414 PWs)   bands (ev):

     9.6125  10.4624  10.9849  11.1944  12.2922  12.3542  13.0382  14.1921
    14.4711  15.0942  16.2769  18.5328

          k = 0.4881-0.0000 0.2899 (   424 PWs)   bands (ev):

    10.0644  10.0645  11.4009  11.4010  11.9583  11.9584  13.5433  13.5434
    14.9812  14.9813  16.7664  16.7665

     the Fermi energy is    12.7348 ev

!    total energy              =    -111.58639316 Ry
     estimated scf accuracy    <       0.00000003 Ry
     smearing contrib. (-TS)   =      -0.00007004 Ry
     internal energy E=F+TS    =    -111.58632311 Ry

     The total energy is F=E-TS. E is the sum of the following terms:
     one-electron contribution =      12.25177067 Ry
     hartree contribution      =      13.93692797 Ry
     xc contribution           =     -52.91064129 Ry
     ewald contribution        =     -84.86438046 Ry

     total magnetization       =     5.19 Bohr mag/cell
     absolute magnetization    =     5.46 Bohr mag/cell

     convergence has been achieved in  14 iterations

     Forces acting on atoms (cartesian axes, Ry/au):

     atom    1 type  1   force =    -0.00000000    0.00000056    0.00000000
     atom    2 type  1   force =     0.00000000   -0.00000056    0.00000000
     The non-local contrib.  to forces
     atom    1 type  1   force =    -0.00000000    0.00000047    0.00000000
     atom    2 type  1   force =    -0.00000000    0.00000037    0.00000000
     The ionic contribution  to forces
     atom    1 type  1   force =     0.00000000    0.00000608   -0.00002599
     atom    2 type  1   force =     0.00000000   -0.00000608    0.00002599
     The local contribution  to forces
     atom    1 type  1   force =    -0.00000000   -0.00000603    0.00000000
     atom    2 type  1   force =    -0.00000000    0.00000457    0.00008352
     The core correction contribution to forces
     atom    1 type  1   force =     0.00000000   -0.00000010    0.00000002
     atom    2 type  1   force =    -0.00000000   -0.00000015    0.00001360
     The Hubbard contrib.    to forces
     atom    1 type  1   force =     0.00000000    0.00000000    0.00000000
     atom    2 type  1   force =     0.00000000    0.00000000    0.00000000
     The SCF correction term to forces
     atom    1 type  1   force =     0.00000000   -0.00000009   -0.00000000
     atom    2 type  1   force =    -0.00000000    0.00000050    0.00000000

     Total force =     0.000001     Total SCF correction =     0.000001
     SCF correction compared to forces is large: reduce conv_thr to get better values


     Computing stress (Cartesian axis) and pressure

          total   stress  (Ry/bohr**3)                   (kbar)     P=      -22.81
  -0.00040515  -0.00000000   0.00000000          -59.60       -0.00        0.00
  -0.00000000  -0.00040515   0.00000000           -0.00      -59.60        0.00
   0.00000000   0.00000000   0.00034515            0.00        0.00       50.77

     Energy error            =      1.2E-02 Ry
     Gradient error          =      5.6E-07 Ry/Bohr
     Cell gradient error     =      6.0E+01 kbar

     number of scf cycles    =   2
     number of bfgs steps    =   1

     enthalpy           old  =    -111.5746156378 Ry
     enthalpy           new  =    -111.5863931556 Ry

     CASE: enthalpy          _new < enthalpy          _old

     new trust radius        =       0.0319071092 bohr
     new conv_thr            =       0.0000000010 Ry

     new unit-cell volume =    164.36289 a.u.^3 (    24.35607 Ang^3 )
     density =      7.61476 g/cm^3

CELL_PARAMETERS (angstrom)
   2.538370681  -0.000000000   0.000000000
  -1.269185341   2.198296526   0.000000000
   0.000000000   0.000000000   4.364815166

ATOMIC_POSITIONS (angstrom)
Fe            0.0000000000       -0.0000004228        0.0000000000
Fe            0.0000000000        1.4655358334        2.1824060302



     Writing config-only to output data dir /home/gridsan/epan1/labutil/lab3_samples/problem1/Lab3/Fe_hcp_a_2.5_ecut_30_nk_4/pwscf.save/
     NEW-OLD atomic charge density approx. for the potential

     Check: negative core charge=   -0.000004
     extrapolated charge   15.91171, renormalised to   16.00000
     Generating pointlists ...

     total cpu time spent up to now is        8.2 secs

     Self-consistent Calculation

     iteration #  1     ecut=    30.00 Ry     beta= 0.50
     Davidson diagonalization with overlap
     ethr =  1.00E-06,  avg # of iterations =  5.8

     total cpu time spent up to now is        8.6 secs

     total energy              =    -111.58493194 Ry
     estimated scf accuracy    <       0.00318057 Ry

     total magnetization       =     5.19 Bohr mag/cell
     absolute magnetization    =     5.46 Bohr mag/cell

     iteration #  2     ecut=    30.00 Ry     beta= 0.50
     Davidson diagonalization with overlap
     ethr =  1.99E-05,  avg # of iterations =  3.8

     total cpu time spent up to now is        9.4 secs

     total energy              =    -111.58767749 Ry
     estimated scf accuracy    <       0.00563036 Ry

     total magnetization       =     5.20 Bohr mag/cell
     absolute magnetization    =     5.46 Bohr mag/cell

     iteration #  3     ecut=    30.00 Ry     beta= 0.50
     Davidson diagonalization with overlap
     ethr =  1.99E-05,  avg # of iterations =  1.9

     total cpu time spent up to now is        9.7 secs

     total energy              =    -111.58796500 Ry
     estimated scf accuracy    <       0.00194970 Ry

     total magnetization       =     5.20 Bohr mag/cell
     absolute magnetization    =     5.46 Bohr mag/cell

     iteration #  4     ecut=    30.00 Ry     beta= 0.50
     Davidson diagonalization with overlap
     ethr =  1.22E-05,  avg # of iterations =  1.0

     total cpu time spent up to now is        9.9 secs

     total energy              =    -111.58758856 Ry
     estimated scf accuracy    <       0.00077189 Ry

     total magnetization       =     5.20 Bohr mag/cell
     absolute magnetization    =     5.46 Bohr mag/cell

     iteration #  5     ecut=    30.00 Ry     beta= 0.50
     Davidson diagonalization with overlap
     ethr =  4.82E-06,  avg # of iterations =  3.0

     total cpu time spent up to now is       10.1 secs

     total energy              =    -111.58788653 Ry
     estimated scf accuracy    <       0.00012569 Ry

     total magnetization       =     5.19 Bohr mag/cell
     absolute magnetization    =     5.45 Bohr mag/cell

     iteration #  6     ecut=    30.00 Ry     beta= 0.50
     Davidson diagonalization with overlap
     ethr =  7.86E-07,  avg # of iterations =  1.0

     total cpu time spent up to now is       10.3 secs

     total energy              =    -111.58784280 Ry
     estimated scf accuracy    <       0.00008532 Ry

     total magnetization       =     5.19 Bohr mag/cell
     absolute magnetization    =     5.46 Bohr mag/cell

     iteration #  7     ecut=    30.00 Ry     beta= 0.50
     Davidson diagonalization with overlap
     ethr =  5.33E-07,  avg # of iterations =  2.5

     total cpu time spent up to now is       10.6 secs

     total energy              =    -111.58787048 Ry
     estimated scf accuracy    <       0.00000526 Ry

     total magnetization       =     5.19 Bohr mag/cell
     absolute magnetization    =     5.46 Bohr mag/cell

     iteration #  8     ecut=    30.00 Ry     beta= 0.50
     Davidson diagonalization with overlap
     ethr =  3.29E-08,  avg # of iterations =  2.2

     total cpu time spent up to now is       10.8 secs

     total energy              =    -111.58786623 Ry
     estimated scf accuracy    <       0.00000800 Ry

     total magnetization       =     5.19 Bohr mag/cell
     absolute magnetization    =     5.46 Bohr mag/cell

     iteration #  9     ecut=    30.00 Ry     beta= 0.50
     Davidson diagonalization with overlap
     ethr =  3.29E-08,  avg # of iterations =  2.8

     total cpu time spent up to now is       11.1 secs

     total energy              =    -111.58786857 Ry
     estimated scf accuracy    <       0.00000079 Ry

     total magnetization       =     5.19 Bohr mag/cell
     absolute magnetization    =     5.46 Bohr mag/cell

     iteration # 10     ecut=    30.00 Ry     beta= 0.50
     Davidson diagonalization with overlap
     ethr =  4.95E-09,  avg # of iterations =  1.8

     total cpu time spent up to now is       11.3 secs

     total energy              =    -111.58786875 Ry
     estimated scf accuracy    <          1.2E-09 Ry

     total magnetization       =     5.19 Bohr mag/cell
     absolute magnetization    =     5.46 Bohr mag/cell

     iteration # 11     ecut=    30.00 Ry     beta= 0.50
     Davidson diagonalization with overlap
     ethr =  7.70E-12,  avg # of iterations = 12.8

     total cpu time spent up to now is       12.1 secs

     total energy              =    -111.58786879 Ry
     estimated scf accuracy    <          1.9E-09 Ry

     total magnetization       =     5.19 Bohr mag/cell
     absolute magnetization    =     5.46 Bohr mag/cell

     iteration # 12     ecut=    30.00 Ry     beta= 0.50
     Davidson diagonalization with overlap
     ethr =  7.70E-12,  avg # of iterations =  2.4

     Magnetic moment per site  (integrated on atomic sphere of radius R)
     atom   1 (R=0.412)  charge=  6.4911  magn=  2.6468
     atom   2 (R=0.412)  charge=  6.4911  magn=  2.6468

     total cpu time spent up to now is       12.3 secs

     End of self-consistent calculation

 ------ SPIN UP ------------


          k = 0.0000 0.0000 0.0000 (   391 PWs)   bands (ev):

     4.3376   7.7612   9.9667  10.1869  10.1869  10.4259  10.4259  10.8737
    10.8737  11.7215  11.7215  12.0572

          k = 0.0000 0.0000 0.1432 (   397 PWs)   bands (ev):

     4.8702   7.5143   9.8622  10.1314  10.1314  10.3245  10.3245  10.6564
    11.0928  11.0928  11.6693  11.6693

          k = 0.0000 0.0000-0.2864 (   422 PWs)   bands (ev):

     6.2687   6.2688   9.7764   9.7764  10.1630  10.1630  10.1630  10.1630
    11.4504  11.4504  11.4504  11.4504

          k = 0.0000 0.2843 0.0000 (   407 PWs)   bands (ev):

     6.2907   8.5926   9.1238   9.6458  10.0144  10.4324  10.4493  10.9707
    11.1133  11.2666  11.8164  16.3973

          k = 0.0000 0.2843 0.1432 (   414 PWs)   bands (ev):

     6.6765   8.4944   9.0164   9.6540   9.8810  10.4385  10.5453  11.0909
    11.2059  11.2578  11.7277  14.0003

          k = 0.0000 0.2843-0.2864 (   420 PWs)   bands (ev):

     7.6274   7.6275   9.3194   9.3194  10.1560  10.1560  10.8029  10.8029
    11.4962  11.4962  12.0878  12.0878

          k =-0.0000-0.5686 0.0000 (   428 PWs)   bands (ev):

     8.0932   8.1649   8.2566   9.9636  10.1070  10.5228  10.5435  11.8375
    12.1630  12.2635  14.1205  16.0436

          k =-0.0000-0.5686 0.1432 (   416 PWs)   bands (ev):

     7.7542   8.1240   8.8781   9.0797  10.3263  10.7291  11.5374  11.7845
    12.1852  12.2511  13.7308  15.6017

          k =-0.0000-0.5686-0.2864 (   420 PWs)   bands (ev):

     7.8462   7.8462   8.9366   8.9366  10.8949  10.8949  11.7237  11.7237
    12.2200  12.2200  14.2873  14.2873

          k = 0.2462 0.4265 0.0000 (   426 PWs)   bands (ev):

     8.5316   8.6899   9.0378   9.1128   9.7337  10.1579  10.4385  11.3041
    11.6075  12.1126  13.9494  19.9216

          k = 0.2462 0.4265 0.1432 (   414 PWs)   bands (ev):

     8.4801   8.5687   9.0711   9.3853   9.8977  10.0413  10.4896  11.2395
    11.5278  12.2004  14.1597  17.2785

          k = 0.2462 0.4265-0.2864 (   424 PWs)   bands (ev):

     8.4518   8.4518   9.4194   9.4194   9.9250   9.9250  10.7086  10.7086
    12.0772  12.0772  15.0757  15.0757

          k = 0.2462-0.1422 0.0000 (   407 PWs)   bands (ev):

     6.2907   8.5926   9.1238   9.6458  10.0144  10.4324  10.4493  10.9707
    11.1133  11.2666  11.8164  16.3973

          k = 0.2462-0.1422 0.1432 (   414 PWs)   bands (ev):

     6.6765   8.4944   9.0164   9.6540   9.8810  10.4385  10.5452  11.0909
    11.2059  11.2578  11.7277  14.0003

          k = 0.2462-0.1422-0.2864 (   420 PWs)   bands (ev):

     7.6274   7.6275   9.3194   9.3194  10.1560  10.1560  10.8029  10.8029
    11.4962  11.4962  12.0878  12.0878

          k =-0.4924 0.2843 0.0000 (   428 PWs)   bands (ev):

     8.0932   8.1649   8.2566   9.9636  10.1070  10.5228  10.5435  11.8375
    12.1630  12.2635  14.1205  16.0436

          k =-0.4924 0.2843 0.1432 (   416 PWs)   bands (ev):

     7.7542   8.1240   8.8781   9.0797  10.3263  10.7291  11.5374  11.7845
    12.1852  12.2511  13.7308  15.6017

          k =-0.4924 0.2843-0.2864 (   420 PWs)   bands (ev):

     7.8462   7.8462   8.9366   8.9366  10.8949  10.8949  11.7237  11.7237
    12.2200  12.2200  14.2873  14.2873

          k = 0.4924-0.0000 0.0000 (   426 PWs)   bands (ev):

     8.5316   8.6899   9.0378   9.1128   9.7337  10.1579  10.4385  11.3041
    11.6075  12.1126  13.9494  19.9216

          k = 0.4924-0.0000-0.1432 (   414 PWs)   bands (ev):

     8.4801   8.5687   9.0711   9.3853   9.8977  10.0413  10.4896  11.2395
    11.5278  12.2004  14.1597  17.2785

          k = 0.4924-0.0000 0.2864 (   424 PWs)   bands (ev):

     8.4518   8.4518   9.4194   9.4194   9.9250   9.9250  10.7086  10.7086
    12.0772  12.0772  15.0757  15.0757

 ------ SPIN DOWN ----------


          k = 0.0000 0.0000 0.0000 (   391 PWs)   bands (ev):

     4.4948   9.0825  12.1301  12.3455  12.8545  12.8545  13.1630  13.1630
    14.0913  14.0913  15.0998  15.0998

          k = 0.0000 0.0000 0.1432 (   397 PWs)   bands (ev):

     5.0315   8.3091  11.7324  12.1677  12.8198  12.8198  13.0522  13.0522
    14.3263  14.3263  15.0277  15.0277

          k = 0.0000 0.0000-0.2864 (   422 PWs)   bands (ev):

     6.5058   6.5059  11.8002  11.8003  12.8709  12.8709  12.8709  12.8709
    14.7497  14.7497  14.7497  14.7497

          k = 0.0000 0.2843 0.0000 (   407 PWs)   bands (ev):

     6.5180  10.3178  10.9637  11.8131  12.4628  13.2993  13.5032  13.5409
    13.9359  14.1395  15.2300  18.0815

          k = 0.0000 0.2843 0.1432 (   414 PWs)   bands (ev):

     6.9698   9.6680  11.0622  11.9527  12.2463  12.8468  13.5669  13.9588
    14.0972  14.2200  15.0621  16.3188

          k = 0.0000 0.2843-0.2864 (   420 PWs)   bands (ev):

     8.1917   8.1918  11.5873  11.5874  12.3891  12.3891  13.7342  13.7343
    14.6508  14.6508  14.9693  14.9693

          k =-0.0000-0.5686 0.0000 (   428 PWs)   bands (ev):

     9.6331   9.9974  10.4346  11.6126  12.5824  12.8295  13.1071  15.2230
    15.2578  15.3401  16.0840  17.5734

          k =-0.0000-0.5686 0.1432 (   416 PWs)   bands (ev):

     9.4733   9.9425  10.9635  11.1250  12.8239  13.3665  13.5799  14.8561
    15.2565  15.3259  15.4352  17.0013

          k =-0.0000-0.5686-0.2864 (   420 PWs)   bands (ev):

     9.6030   9.6030  11.1742  11.1742  13.5735  13.5735  14.0524  14.0524
    15.2910  15.2910  15.6035  15.6035

          k = 0.2462 0.4265 0.0000 (   426 PWs)   bands (ev):

     9.5539  10.7344  10.9189  11.0121  12.4913  12.8709  12.9292  13.9914
    14.9645  15.0267  16.3061  20.8772

          k = 0.2462 0.4265 0.1432 (   414 PWs)   bands (ev):

     9.7360  10.5332  11.0722  11.2962  12.3713  12.4202  13.1154  14.2603
    14.5206  15.1971  16.4543  18.6459

          k = 0.2462 0.4265-0.2864 (   424 PWs)   bands (ev):

    10.1522  10.1523  11.4722  11.4722  12.0430  12.0430  13.6352  13.6352
    15.0649  15.0649  16.9257  16.9257

          k = 0.2462-0.1422 0.0000 (   407 PWs)   bands (ev):

     6.5180  10.3178  10.9637  11.8131  12.4628  13.2993  13.5032  13.5409
    13.9359  14.1395  15.2300  18.0816

          k = 0.2462-0.1422 0.1432 (   414 PWs)   bands (ev):

     6.9698   9.6680  11.0622  11.9527  12.2463  12.8468  13.5669  13.9587
    14.0972  14.2199  15.0621  16.3188

          k = 0.2462-0.1422-0.2864 (   420 PWs)   bands (ev):

     8.1917   8.1918  11.5873  11.5874  12.3891  12.3891  13.7342  13.7343
    14.6508  14.6508  14.9693  14.9693

          k =-0.4924 0.2843 0.0000 (   428 PWs)   bands (ev):

     9.6331   9.9974  10.4347  11.6126  12.5824  12.8295  13.1071  15.2230
    15.2578  15.3401  16.0840  17.5734

          k =-0.4924 0.2843 0.1432 (   416 PWs)   bands (ev):

     9.4733   9.9425  10.9635  11.1250  12.8239  13.3665  13.5799  14.8561
    15.2565  15.3259  15.4352  17.0013

          k =-0.4924 0.2843-0.2864 (   420 PWs)   bands (ev):

     9.6030   9.6030  11.1742  11.1743  13.5735  13.5735  14.0524  14.0524
    15.2910  15.2910  15.6035  15.6035

          k = 0.4924-0.0000 0.0000 (   426 PWs)   bands (ev):

     9.5539  10.7344  10.9189  11.0121  12.4913  12.8709  12.9292  13.9914
    14.9645  15.0267  16.3061  20.8772

          k = 0.4924-0.0000-0.1432 (   414 PWs)   bands (ev):

     9.7360  10.5332  11.0722  11.2962  12.3713  12.4202  13.1154  14.2603
    14.5207  15.1971  16.4543  18.6459

          k = 0.4924-0.0000 0.2864 (   424 PWs)   bands (ev):

    10.1522  10.1523  11.4722  11.4722  12.0430  12.0430  13.6352  13.6352
    15.0649  15.0649  16.9257  16.9257

     the Fermi energy is    12.7987 ev

!    total energy              =    -111.58786879 Ry
     estimated scf accuracy    <          4.3E-10 Ry
     smearing contrib. (-TS)   =      -0.00003451 Ry
     internal energy E=F+TS    =    -111.58783427 Ry

     The total energy is F=E-TS. E is the sum of the following terms:
     one-electron contribution =      12.43509242 Ry
     hartree contribution      =      13.89677283 Ry
     xc contribution           =     -52.92104228 Ry
     ewald contribution        =     -84.99865723 Ry

     total magnetization       =     5.19 Bohr mag/cell
     absolute magnetization    =     5.46 Bohr mag/cell

     convergence has been achieved in  12 iterations

     Forces acting on atoms (cartesian axes, Ry/au):

     atom    1 type  1   force =    -0.00000000   -0.00000004    0.00000000
     atom    2 type  1   force =     0.00000000    0.00000004    0.00000000
     The non-local contrib.  to forces
     atom    1 type  1   force =     0.00000000    0.00000084    0.00000000
     atom    2 type  1   force =    -0.00000000   -0.00000076    0.00000000
     The ionic contribution  to forces
     atom    1 type  1   force =     0.00000000    0.00000547   -0.00002668
     atom    2 type  1   force =     0.00000000   -0.00000547    0.00002668
     The local contribution  to forces
     atom    1 type  1   force =    -0.00000000   -0.00000614    0.00000000
     atom    2 type  1   force =    -0.00000000    0.00000614    0.00008509
     The core correction contribution to forces
     atom    1 type  1   force =    -0.00000000   -0.00000018    0.00000002
     atom    2 type  1   force =    -0.00000000    0.00000018    0.00001379
     The Hubbard contrib.    to forces
     atom    1 type  1   force =     0.00000000    0.00000000    0.00000000
     atom    2 type  1   force =     0.00000000    0.00000000    0.00000000
     The SCF correction term to forces
     atom    1 type  1   force =    -0.00000000    0.00000001    0.00000000
     atom    2 type  1   force =     0.00000000   -0.00000001   -0.00000000

     Total force =     0.000000     Total SCF correction =     0.000000
     SCF correction compared to forces is large: reduce conv_thr to get better values


     Computing stress (Cartesian axis) and pressure

          total   stress  (Ry/bohr**3)                   (kbar)     P=      -12.78
  -0.00022154  -0.00000000   0.00000000          -32.59       -0.00        0.00
   0.00000000  -0.00022154   0.00000000            0.00      -32.59        0.00
   0.00000000   0.00000000   0.00018246            0.00        0.00       26.84

     Energy error            =      1.5E-03 Ry
     Gradient error          =      4.2E-08 Ry/Bohr
     Cell gradient error     =      3.3E+01 kbar

     number of scf cycles    =   3
     number of bfgs steps    =   2

     enthalpy           old  =    -111.5863931556 Ry
     enthalpy           new  =    -111.5878687868 Ry

     CASE: enthalpy          _new < enthalpy          _old

     new trust radius        =       0.0355474528 bohr
     new conv_thr            =       0.0000000010 Ry

     new unit-cell volume =    163.12642 a.u.^3 (    24.17284 Ang^3 )
     density =      7.67248 g/cm^3

CELL_PARAMETERS (angstrom)
   2.511455646   0.000000000   0.000000000
  -1.255727823   2.174987660   0.000000000
   0.000000000   0.000000000   4.425327299

ATOMIC_POSITIONS (angstrom)
Fe            0.0000000000       -0.0000005286        0.0000000000
Fe            0.0000000000        1.4499966487        2.2126620751



     Writing config-only to output data dir /home/gridsan/epan1/labutil/lab3_samples/problem1/Lab3/Fe_hcp_a_2.5_ecut_30_nk_4/pwscf.save/
     NEW-OLD atomic charge density approx. for the potential

     Check: negative core charge=   -0.000004
     extrapolated charge   15.87873, renormalised to   16.00000
     Generating pointlists ...

     total cpu time spent up to now is       13.6 secs

     Self-consistent Calculation

     iteration #  1     ecut=    30.00 Ry     beta= 0.50
     Davidson diagonalization with overlap
     ethr =  1.00E-06,  avg # of iterations =  6.0

     total cpu time spent up to now is       14.3 secs

     total energy              =    -111.58287043 Ry
     estimated scf accuracy    <       0.00595129 Ry

     total magnetization       =     5.19 Bohr mag/cell
     absolute magnetization    =     5.46 Bohr mag/cell

     iteration #  2     ecut=    30.00 Ry     beta= 0.50
     Davidson diagonalization with overlap
     ethr =  3.72E-05,  avg # of iterations =  3.8

     total cpu time spent up to now is       14.6 secs

     total energy              =    -111.58808428 Ry
     estimated scf accuracy    <       0.00992730 Ry

     total magnetization       =     5.22 Bohr mag/cell
     absolute magnetization    =     5.47 Bohr mag/cell

     iteration #  3     ecut=    30.00 Ry     beta= 0.50
     Davidson diagonalization with overlap
     ethr =  3.72E-05,  avg # of iterations =  1.8

     total cpu time spent up to now is       14.8 secs

     total energy              =    -111.58760270 Ry
     estimated scf accuracy    <       0.00192203 Ry

     total magnetization       =     5.21 Bohr mag/cell
     absolute magnetization    =     5.46 Bohr mag/cell

     iteration #  4     ecut=    30.00 Ry     beta= 0.50
     Davidson diagonalization with overlap
     ethr =  1.20E-05,  avg # of iterations =  3.2

     total cpu time spent up to now is       15.1 secs

     total energy              =    -111.58845350 Ry
     estimated scf accuracy    <       0.00035184 Ry

     total magnetization       =     5.20 Bohr mag/cell
     absolute magnetization    =     5.46 Bohr mag/cell

     iteration #  5     ecut=    30.00 Ry     beta= 0.50
     Davidson diagonalization with overlap
     ethr =  2.20E-06,  avg # of iterations =  1.7

     total cpu time spent up to now is       15.3 secs

     total energy              =    -111.58836797 Ry
     estimated scf accuracy    <       0.00041380 Ry

     total magnetization       =     5.20 Bohr mag/cell
     absolute magnetization    =     5.46 Bohr mag/cell

     iteration #  6     ecut=    30.00 Ry     beta= 0.50
     Davidson diagonalization with overlap
     ethr =  2.20E-06,  avg # of iterations =  1.0

     total cpu time spent up to now is       15.5 secs

     total energy              =    -111.58832641 Ry
     estimated scf accuracy    <       0.00010458 Ry

     total magnetization       =     5.20 Bohr mag/cell
     absolute magnetization    =     5.46 Bohr mag/cell

     iteration #  7     ecut=    30.00 Ry     beta= 0.50
     Davidson diagonalization with overlap
     ethr =  6.54E-07,  avg # of iterations =  3.3

     total cpu time spent up to now is       15.8 secs

     total energy              =    -111.58836676 Ry
     estimated scf accuracy    <       0.00001565 Ry

     total magnetization       =     5.21 Bohr mag/cell
     absolute magnetization    =     5.46 Bohr mag/cell

     iteration #  8     ecut=    30.00 Ry     beta= 0.50
     Davidson diagonalization with overlap
     ethr =  9.78E-08,  avg # of iterations =  1.0

     total cpu time spent up to now is       16.0 secs

     total energy              =    -111.58836308 Ry
     estimated scf accuracy    <       0.00000906 Ry

     total magnetization       =     5.21 Bohr mag/cell
     absolute magnetization    =     5.46 Bohr mag/cell

     iteration #  9     ecut=    30.00 Ry     beta= 0.50
     Davidson diagonalization with overlap
     ethr =  5.66E-08,  avg # of iterations =  2.2

     total cpu time spent up to now is       16.2 secs

     total energy              =    -111.58836500 Ry
     estimated scf accuracy    <       0.00000002 Ry

     total magnetization       =     5.21 Bohr mag/cell
     absolute magnetization    =     5.46 Bohr mag/cell

     iteration # 10     ecut=    30.00 Ry     beta= 0.50
     Davidson diagonalization with overlap
     ethr =  1.31E-10,  avg # of iterations =  8.8

     total cpu time spent up to now is       16.8 secs

     total energy              =    -111.58836519 Ry
     estimated scf accuracy    <       0.00000018 Ry

     total magnetization       =     5.21 Bohr mag/cell
     absolute magnetization    =     5.46 Bohr mag/cell

     iteration # 11     ecut=    30.00 Ry     beta= 0.50
     Davidson diagonalization with overlap
     ethr =  1.31E-10,  avg # of iterations =  2.0

     total cpu time spent up to now is       17.0 secs

     total energy              =    -111.58836516 Ry
     estimated scf accuracy    <       0.00000007 Ry

     total magnetization       =     5.21 Bohr mag/cell
     absolute magnetization    =     5.46 Bohr mag/cell

     iteration # 12     ecut=    30.00 Ry     beta= 0.50
     Davidson diagonalization with overlap
     ethr =  1.31E-10,  avg # of iterations =  3.6

     total cpu time spent up to now is       17.3 secs

     total energy              =    -111.58836518 Ry
     estimated scf accuracy    <          2.6E-09 Ry

     total magnetization       =     5.21 Bohr mag/cell
     absolute magnetization    =     5.46 Bohr mag/cell

     iteration # 13     ecut=    30.00 Ry     beta= 0.50
     Davidson diagonalization with overlap
     ethr =  1.62E-11,  avg # of iterations =  3.9

     Magnetic moment per site  (integrated on atomic sphere of radius R)
     atom   1 (R=0.412)  charge=  6.5034  magn=  2.6515
     atom   2 (R=0.412)  charge=  6.5034  magn=  2.6515

     total cpu time spent up to now is       17.6 secs

     End of self-consistent calculation

 ------ SPIN UP ------------


          k = 0.0000 0.0000 0.0000 (   391 PWs)   bands (ev):

     4.4227   7.8142   9.9548  10.3205  10.3205  10.5394  10.5394  11.0628
    11.0628  11.8407  11.8407  11.9509

          k = 0.0000 0.0000 0.1412 (   397 PWs)   bands (ev):

     4.9399   7.5456   9.8627  10.2799  10.2800  10.4526  10.4526  10.6319
    11.2532  11.2532  11.7862  11.7862

          k = 0.0000 0.0000-0.2825 (   422 PWs)   bands (ev):

     6.3009   6.3010   9.7981   9.7981  10.3116  10.3116  10.3117  10.3117
    11.5779  11.5779  11.5779  11.5779

          k =-0.0000 0.2874 0.0000 (   407 PWs)   bands (ev):

     6.4152   8.6934   9.1724   9.7900  10.0582  10.5284  10.6389  11.0325
    11.2848  11.4253  11.9144  16.4047

          k =-0.0000 0.2874 0.1412 (   414 PWs)   bands (ev):

     6.7859   8.5562   9.1002   9.7504   9.9775  10.5303  10.7349  11.2580
    11.2804  11.4164  11.8331  14.0429

          k =-0.0000 0.2874-0.2825 (   420 PWs)   bands (ev):

     7.7020   7.7021   9.3964   9.3964  10.2677  10.2678  10.9860  10.9860
    11.6249  11.6249  12.1661  12.1661

          k = 0.0000-0.5747 0.0000 (   428 PWs)   bands (ev):

     8.1718   8.2526   8.3245   9.9911  10.2953  10.5957  10.7299  11.9168
    12.3841  12.4711  14.3202  16.2855

          k = 0.0000-0.5747 0.1412 (   416 PWs)   bands (ev):

     7.8440   8.1941   8.9154   9.1635  10.5031  10.8377  11.6407  11.8999
    12.4017  12.4601  13.9203  15.8080

          k = 0.0000-0.5747-0.2825 (   420 PWs)   bands (ev):

     7.9293   7.9293   8.9833   8.9833  11.0397  11.0397  11.8424  11.8424
    12.4324  12.4325  14.4600  14.4600

          k = 0.2489 0.4310 0.0000 (   426 PWs)   bands (ev):

     8.6230   8.8483   9.1651   9.2531   9.8361  10.2650  10.5153  11.3724
    11.6514  12.2718  14.2149  20.0909

          k = 0.2489 0.4310 0.1412 (   414 PWs)   bands (ev):

     8.5720   8.7026   9.1847   9.5098   9.9982  10.1514  10.5954  11.3210
    11.6048  12.3486  14.4125  17.4178

          k = 0.2489 0.4310-0.2825 (   424 PWs)   bands (ev):

     8.5540   8.5540   9.5155   9.5156  10.0416  10.0417  10.8217  10.8217
    12.1953  12.1953  15.2858  15.2858

          k = 0.2489-0.1437 0.0000 (   407 PWs)   bands (ev):

     6.4152   8.6934   9.1724   9.7900  10.0582  10.5284  10.6389  11.0325
    11.2848  11.4253  11.9144  16.4047

          k = 0.2489-0.1437 0.1412 (   414 PWs)   bands (ev):

     6.7860   8.5562   9.1002   9.7504   9.9775  10.5303  10.7349  11.2580
    11.2804  11.4164  11.8331  14.0429

          k = 0.2489-0.1437-0.2825 (   420 PWs)   bands (ev):

     7.7020   7.7021   9.3964   9.3964  10.2677  10.2678  10.9859  10.9860
    11.6249  11.6249  12.1661  12.1661

          k =-0.4977 0.2874 0.0000 (   428 PWs)   bands (ev):

     8.1718   8.2526   8.3245   9.9911  10.2953  10.5957  10.7299  11.9168
    12.3841  12.4711  14.3203  16.2855

          k =-0.4977 0.2874 0.1412 (   416 PWs)   bands (ev):

     7.8440   8.1941   8.9154   9.1635  10.5031  10.8377  11.6407  11.8998
    12.4017  12.4601  13.9203  15.8080

          k =-0.4977 0.2874-0.2825 (   420 PWs)   bands (ev):

     7.9293   7.9293   8.9833   8.9833  11.0397  11.0397  11.8424  11.8425
    12.4325  12.4325  14.4600  14.4600

          k = 0.4977-0.0000 0.0000 (   426 PWs)   bands (ev):

     8.6230   8.8483   9.1651   9.2531   9.8361  10.2650  10.5153  11.3724
    11.6514  12.2718  14.2150  20.0909

          k = 0.4977-0.0000-0.1412 (   414 PWs)   bands (ev):

     8.5720   8.7026   9.1847   9.5098   9.9982  10.1514  10.5954  11.3210
    11.6049  12.3486  14.4125  17.4178

          k = 0.4977-0.0000 0.2825 (   424 PWs)   bands (ev):

     8.5540   8.5540   9.5155   9.5156  10.0417  10.0417  10.8217  10.8217
    12.1953  12.1953  15.2858  15.2859

 ------ SPIN DOWN ----------


          k = 0.0000 0.0000 0.0000 (   391 PWs)   bands (ev):

     4.5855   9.1062  12.0276  12.3006  12.9892  12.9892  13.2713  13.2714
    14.3255  14.3255  15.2537  15.2537

          k = 0.0000 0.0000 0.1412 (   397 PWs)   bands (ev):

     5.1067   8.3137  11.7064  12.1365  12.9674  12.9675  13.1771  13.1771
    14.5309  14.5309  15.1791  15.1791

          k = 0.0000 0.0000-0.2825 (   422 PWs)   bands (ev):

     6.5405   6.5406  11.7944  11.7944  13.0189  13.0189  13.0189  13.0189
    14.9145  14.9145  14.9145  14.9145

          k =-0.0000 0.2874 0.0000 (   407 PWs)   bands (ev):

     6.6521  10.4099  10.9749  11.9517  12.4873  13.4386  13.5369  13.7755
    14.1081  14.2956  15.3578  18.1434

          k =-0.0000 0.2874 0.1412 (   414 PWs)   bands (ev):

     7.0887   9.7133  11.1400  12.0895  12.2742  12.9343  13.7935  14.1318
    14.1879  14.3835  15.1940  16.3967

          k =-0.0000 0.2874-0.2825 (   420 PWs)   bands (ev):

     8.2705   8.2706  11.6607  11.6607  12.4878  12.4878  13.9384  13.9385
    14.7963  14.7963  15.0652  15.0652

          k = 0.0000-0.5747 0.0000 (   428 PWs)   bands (ev):

     9.7577  10.0764  10.5140  11.8343  12.6221  12.8670  13.3398  15.3630
    15.4462  15.5475  16.2357  17.7560

          k = 0.0000-0.5747 0.1412 (   416 PWs)   bands (ev):

     9.5807  10.0217  11.0282  11.2502  12.9116  13.5874  13.7142  14.9956
    15.4713  15.5349  15.5601  17.1578

          k = 0.0000-0.5747-0.2825 (   420 PWs)   bands (ev):

     9.6965   9.6965  11.2297  11.2298  13.7355  13.7355  14.2387  14.2387
    15.5038  15.5038  15.7220  15.7220

          k = 0.2489 0.4310 0.0000 (   426 PWs)   bands (ev):

     9.7375  10.8273  11.0460  11.1685  12.6192  12.9121  13.0708  14.0364
    15.0247  15.1736  16.5606  21.0579

          k = 0.2489 0.4310 0.1412 (   414 PWs)   bands (ev):

     9.8994  10.6315  11.1911  11.4322  12.4821  12.5125  13.2334  14.3591
    14.5983  15.3392  16.6935  18.8091

          k = 0.2489 0.4310-0.2825 (   424 PWs)   bands (ev):

    10.2733  10.2734  11.5729  11.5729  12.1636  12.1636  13.7601  13.7601
    15.1808  15.1808  17.1441  17.1441

          k = 0.2489-0.1437 0.0000 (   407 PWs)   bands (ev):

     6.6521  10.4099  10.9749  11.9517  12.4873  13.4386  13.5370  13.7755
    14.1081  14.2956  15.3578  18.1434

          k = 0.2489-0.1437 0.1412 (   414 PWs)   bands (ev):

     7.0887   9.7133  11.1400  12.0895  12.2742  12.9343  13.7935  14.1318
    14.1879  14.3835  15.1940  16.3967

          k = 0.2489-0.1437-0.2825 (   420 PWs)   bands (ev):

     8.2705   8.2706  11.6607  11.6607  12.4878  12.4878  13.9384  13.9384
    14.7963  14.7963  15.0652  15.0652

          k =-0.4977 0.2874 0.0000 (   428 PWs)   bands (ev):

     9.7577  10.0764  10.5140  11.8343  12.6221  12.8670  13.3398  15.3630
    15.4462  15.5475  16.2357  17.7560

          k =-0.4977 0.2874 0.1412 (   416 PWs)   bands (ev):

     9.5807  10.0217  11.0282  11.2502  12.9116  13.5874  13.7142  14.9955
    15.4713  15.5349  15.5601  17.1578

          k =-0.4977 0.2874-0.2825 (   420 PWs)   bands (ev):

     9.6965   9.6965  11.2297  11.2298  13.7355  13.7355  14.2387  14.2387
    15.5038  15.5038  15.7220  15.7220

          k = 0.4977-0.0000 0.0000 (   426 PWs)   bands (ev):

     9.7375  10.8273  11.0460  11.1685  12.6192  12.9121  13.0708  14.0364
    15.0247  15.1736  16.5606  21.0579

          k = 0.4977-0.0000-0.1412 (   414 PWs)   bands (ev):

     9.8994  10.6315  11.1911  11.4323  12.4821  12.5124  13.2334  14.3591
    14.5983  15.3392  16.6935  18.8091

          k = 0.4977-0.0000 0.2825 (   424 PWs)   bands (ev):

    10.2733  10.2734  11.5729  11.5729  12.1636  12.1636  13.7601  13.7601
    15.1808  15.1808  17.1441  17.1441

     the Fermi energy is    12.8896 ev

!    total energy              =    -111.58836518 Ry
     estimated scf accuracy    <          9.2E-10 Ry
     smearing contrib. (-TS)   =       0.00029404 Ry
     internal energy E=F+TS    =    -111.58865922 Ry

     The total energy is F=E-TS. E is the sum of the following terms:
     one-electron contribution =      12.66716713 Ry
     hartree contribution      =      13.85400817 Ry
     xc contribution           =     -52.93771019 Ry
     ewald contribution        =     -85.17212434 Ry

     total magnetization       =     5.21 Bohr mag/cell
     absolute magnetization    =     5.46 Bohr mag/cell

     convergence has been achieved in  13 iterations

     Forces acting on atoms (cartesian axes, Ry/au):

     atom    1 type  1   force =     0.00000000   -0.00000004    0.00000000
     atom    2 type  1   force =    -0.00000000    0.00000004    0.00000000
     The non-local contrib.  to forces
     atom    1 type  1   force =    -0.00000000    0.00000088    0.00000000
     atom    2 type  1   force =     0.00000000   -0.00000085    0.00000000
     The ionic contribution  to forces
     atom    1 type  1   force =     0.00000000    0.00000513   -0.00002750
     atom    2 type  1   force =     0.00000000   -0.00000513    0.00002750
     The local contribution  to forces
     atom    1 type  1   force =     0.00000000   -0.00000583   -0.00000000
     atom    2 type  1   force =    -0.00000000    0.00000585    0.00008694
     The core correction contribution to forces
     atom    1 type  1   force =    -0.00000000   -0.00000018    0.00000002
     atom    2 type  1   force =    -0.00000000    0.00000018    0.00001400
     The Hubbard contrib.    to forces
     atom    1 type  1   force =     0.00000000    0.00000000    0.00000000
     atom    2 type  1   force =     0.00000000    0.00000000    0.00000000
     The SCF correction term to forces
     atom    1 type  1   force =     0.00000000   -0.00000001    0.00000000
     atom    2 type  1   force =     0.00000000    0.00000001   -0.00000000

     Total force =     0.000000     Total SCF correction =     0.000000
     SCF correction compared to forces is large: reduce conv_thr to get better values


     Computing stress (Cartesian axis) and pressure

          total   stress  (Ry/bohr**3)                   (kbar)     P=        6.53
   0.00006729  -0.00000000   0.00000000            9.90       -0.00        0.00
  -0.00000000   0.00006729   0.00000000           -0.00        9.90        0.00
   0.00000000   0.00000000  -0.00000151            0.00        0.00       -0.22

     Energy error            =      5.0E-04 Ry
     Gradient error          =      4.1E-08 Ry/Bohr
     Cell gradient error     =      9.9E+00 kbar

     number of scf cycles    =   4
     number of bfgs steps    =   3

     enthalpy           old  =    -111.5878687868 Ry
     enthalpy           new  =    -111.5883651797 Ry

     CASE: enthalpy          _new < enthalpy          _old

     new trust radius        =       0.0053359622 bohr
     new conv_thr            =       0.0000000010 Ry

     new unit-cell volume =    163.58271 a.u.^3 (    24.24046 Ang^3 )
     density =      7.65108 g/cm^3

CELL_PARAMETERS (angstrom)
   2.516701861  -0.000000000   0.000000000
  -1.258350931   2.179530746   0.000000000
   0.000000000   0.000000000   4.419224023

ATOMIC_POSITIONS (angstrom)
Fe            0.0000000000       -0.0000005298        0.0000000000
Fe            0.0000000000        1.4530253829        2.2096104396



     Writing config-only to output data dir /home/gridsan/epan1/labutil/lab3_samples/problem1/Lab3/Fe_hcp_a_2.5_ecut_30_nk_4/pwscf.save/
     NEW-OLD atomic charge density approx. for the potential

     Check: negative core charge=   -0.000004
     extrapolated charge   16.04463, renormalised to   16.00000
     Generating pointlists ...

     total cpu time spent up to now is       18.4 secs

     Self-consistent Calculation

     iteration #  1     ecut=    30.00 Ry     beta= 0.50
     Davidson diagonalization with overlap
     ethr =  1.00E-06,  avg # of iterations =  4.0

     total cpu time spent up to now is       18.7 secs

     total energy              =    -111.58767779 Ry
     estimated scf accuracy    <       0.00073908 Ry

     total magnetization       =     5.21 Bohr mag/cell
     absolute magnetization    =     5.46 Bohr mag/cell

     iteration #  2     ecut=    30.00 Ry     beta= 0.50
     Davidson diagonalization with overlap
     ethr =  4.62E-06,  avg # of iterations =  3.7

     total cpu time spent up to now is       19.0 secs

     total energy              =    -111.58835428 Ry
     estimated scf accuracy    <       0.00131437 Ry

     total magnetization       =     5.20 Bohr mag/cell
     absolute magnetization    =     5.46 Bohr mag/cell

     iteration #  3     ecut=    30.00 Ry     beta= 0.50
     Davidson diagonalization with overlap
     ethr =  4.62E-06,  avg # of iterations =  1.8

     total cpu time spent up to now is       19.2 secs

     total energy              =    -111.58833791 Ry
     estimated scf accuracy    <       0.00026111 Ry

     total magnetization       =     5.20 Bohr mag/cell
     absolute magnetization    =     5.46 Bohr mag/cell

     iteration #  4     ecut=    30.00 Ry     beta= 0.50
     Davidson diagonalization with overlap
     ethr =  1.63E-06,  avg # of iterations =  2.3

     total cpu time spent up to now is       19.5 secs

     total energy              =    -111.58837432 Ry
     estimated scf accuracy    <       0.00002433 Ry

     total magnetization       =     5.20 Bohr mag/cell
     absolute magnetization    =     5.46 Bohr mag/cell

     iteration #  5     ecut=    30.00 Ry     beta= 0.50
     Davidson diagonalization with overlap
     ethr =  1.52E-07,  avg # of iterations =  3.8

     total cpu time spent up to now is       19.8 secs

     total energy              =    -111.58839275 Ry
     estimated scf accuracy    <       0.00003861 Ry

     total magnetization       =     5.20 Bohr mag/cell
     absolute magnetization    =     5.46 Bohr mag/cell

     iteration #  6     ecut=    30.00 Ry     beta= 0.50
     Davidson diagonalization with overlap
     ethr =  1.52E-07,  avg # of iterations =  1.0

     total cpu time spent up to now is       20.0 secs

     total energy              =    -111.58838294 Ry
     estimated scf accuracy    <       0.00002596 Ry

     total magnetization       =     5.20 Bohr mag/cell
     absolute magnetization    =     5.46 Bohr mag/cell

     iteration #  7     ecut=    30.00 Ry     beta= 0.50
     Davidson diagonalization with overlap
     ethr =  1.52E-07,  avg # of iterations =  1.8

     total cpu time spent up to now is       20.2 secs

     total energy              =    -111.58838507 Ry
     estimated scf accuracy    <       0.00000189 Ry

     total magnetization       =     5.20 Bohr mag/cell
     absolute magnetization    =     5.46 Bohr mag/cell

     iteration #  8     ecut=    30.00 Ry     beta= 0.50
     Davidson diagonalization with overlap
     ethr =  1.18E-08,  avg # of iterations =  3.5

     total cpu time spent up to now is       20.5 secs

     total energy              =    -111.58838612 Ry
     estimated scf accuracy    <       0.00000007 Ry

     total magnetization       =     5.20 Bohr mag/cell
     absolute magnetization    =     5.46 Bohr mag/cell

     iteration #  9     ecut=    30.00 Ry     beta= 0.50
     Davidson diagonalization with overlap
     ethr =  4.51E-10,  avg # of iterations =  4.3

     total cpu time spent up to now is       20.8 secs

     total energy              =    -111.58838603 Ry
     estimated scf accuracy    <       0.00000097 Ry

     total magnetization       =     5.20 Bohr mag/cell
     absolute magnetization    =     5.46 Bohr mag/cell

     iteration # 10     ecut=    30.00 Ry     beta= 0.50
     Davidson diagonalization with overlap
     ethr =  4.51E-10,  avg # of iterations =  2.6

     total cpu time spent up to now is       21.1 secs

     total energy              =    -111.58838591 Ry
     estimated scf accuracy    <       0.00000035 Ry

     total magnetization       =     5.20 Bohr mag/cell
     absolute magnetization    =     5.46 Bohr mag/cell

     iteration # 11     ecut=    30.00 Ry     beta= 0.50
     Davidson diagonalization with overlap
     ethr =  4.51E-10,  avg # of iterations =  3.5

     Magnetic moment per site  (integrated on atomic sphere of radius R)
     atom   1 (R=0.412)  charge=  6.4995  magn=  2.6506
     atom   2 (R=0.412)  charge=  6.4995  magn=  2.6506

     total cpu time spent up to now is       21.4 secs

     End of self-consistent calculation

 ------ SPIN UP ------------


          k = 0.0000 0.0000 0.0000 (   391 PWs)   bands (ev):

     4.3919   7.7864   9.9322  10.2756  10.2756  10.4966  10.4966  11.0071
    11.0071  11.7926  11.7926  11.9397

          k = 0.0000 0.0000 0.1414 (   397 PWs)   bands (ev):

     4.9106   7.5204   9.8387  10.2331  10.2331  10.4081  10.4081  10.6100
    11.2009  11.2009  11.7386  11.7386

          k = 0.0000 0.0000-0.2829 (   422 PWs)   bands (ev):

     6.2755   6.2756   9.7713   9.7713  10.2647  10.2647  10.2647  10.2647
    11.5293  11.5293  11.5293  11.5293

          k = 0.0000 0.2868 0.0000 (   407 PWs)   bands (ev):

     6.3766   8.6575   9.1426   9.7453  10.0270  10.4875  10.5844  10.9961
    11.2318  11.3736  11.8691  16.3681

          k = 0.0000 0.2868 0.1414 (   414 PWs)   bands (ev):

     6.7492   8.5254   9.0658   9.7135   9.9380  10.4905  10.6802  11.2056
    11.2413  11.3647  11.7871  14.0030

          k = 0.0000 0.2868-0.2829 (   420 PWs)   bands (ev):

     7.6697   7.6697   9.3623   9.3624  10.2261  10.2261  10.9318  10.9318
    11.5765  11.5765  12.1242  12.1242

[...]
        k(   14) = (   0.2483618  -0.1433916   0.1413886), wk =   0.1250000
        k(   15) = (   0.2483618  -0.1433916  -0.2827773), wk =   0.0625000
        k(   16) = (  -0.4967236   0.2867832   0.0000000), wk =   0.0312500
        k(   17) = (  -0.4967236   0.2867832   0.1413886), wk =   0.0625000
        k(   18) = (  -0.4967236   0.2867832  -0.2827773), wk =   0.0312500
        k(   19) = (   0.4967236  -0.0000000   0.0000000), wk =   0.0312500
        k(   20) = (   0.4967236  -0.0000000  -0.1413886), wk =   0.0625000
        k(   21) = (   0.4967236  -0.0000000   0.2827773), wk =   0.0312500

     Dense  grid:    10271 G-vectors     FFT dimensions: (  24,  24,  45)

     Smooth grid:     3635 G-vectors     FFT dimensions: (  18,  18,  30)

     Estimated max dynamical RAM per process >       8.22 MB

     Estimated total dynamical RAM >      65.80 MB
     Generating pointlists ...

     Initial potential from superposition of free atoms

     starting charge      15.9987, renormalised to      16.0000
     Starting wfcs are   12 randomized atomic wfcs

     total cpu time spent up to now is       25.1 secs

     Self-consistent Calculation

     iteration #  1     ecut=    30.00 Ry     beta= 0.50
     Davidson diagonalization with overlap
     c_bands:  1 eigenvalues not converged
     c_bands:  1 eigenvalues not converged
     c_bands:  1 eigenvalues not converged
     c_bands:  1 eigenvalues not converged
     c_bands:  1 eigenvalues not converged
     c_bands:  1 eigenvalues not converged
     c_bands:  1 eigenvalues not converged
     ethr =  1.00E-06,  avg # of iterations = 15.6

     total cpu time spent up to now is       26.0 secs

     total energy              =    -111.31978100 Ry
     estimated scf accuracy    <       0.69938749 Ry

     total magnetization       =     4.77 Bohr mag/cell
     absolute magnetization    =     4.77 Bohr mag/cell

     iteration #  2     ecut=    30.00 Ry     beta= 0.50
     Davidson diagonalization with overlap
     ethr =  4.37E-03,  avg # of iterations =  2.4

     total cpu time spent up to now is       26.3 secs

     total energy              =    -111.55667877 Ry
     estimated scf accuracy    <       0.15610431 Ry

     total magnetization       =     5.19 Bohr mag/cell
     absolute magnetization    =     5.23 Bohr mag/cell

     iteration #  3     ecut=    30.00 Ry     beta= 0.50
     Davidson diagonalization with overlap
     ethr =  9.76E-04,  avg # of iterations =  1.4

     total cpu time spent up to now is       26.5 secs

     total energy              =    -111.58024352 Ry
     estimated scf accuracy    <       0.01105057 Ry

     total magnetization       =     5.23 Bohr mag/cell
     absolute magnetization    =     5.29 Bohr mag/cell

     iteration #  4     ecut=    30.00 Ry     beta= 0.50
     Davidson diagonalization with overlap
     ethr =  6.91E-05,  avg # of iterations =  3.0

     total cpu time spent up to now is       26.8 secs

     total energy              =    -111.58550418 Ry
     estimated scf accuracy    <       0.00429349 Ry

     total magnetization       =     5.23 Bohr mag/cell
     absolute magnetization    =     5.37 Bohr mag/cell

     iteration #  5     ecut=    30.00 Ry     beta= 0.50
     Davidson diagonalization with overlap
     ethr =  2.68E-05,  avg # of iterations =  2.6

     total cpu time spent up to now is       27.0 secs

     total energy              =    -111.58927913 Ry
     estimated scf accuracy    <       0.00723252 Ry

     total magnetization       =     5.20 Bohr mag/cell
     absolute magnetization    =     5.46 Bohr mag/cell

     iteration #  6     ecut=    30.00 Ry     beta= 0.50
     Davidson diagonalization with overlap
     ethr =  2.68E-05,  avg # of iterations =  1.0

     total cpu time spent up to now is       27.3 secs

     total energy              =    -111.58825582 Ry
     estimated scf accuracy    <       0.00381616 Ry

     total magnetization       =     5.20 Bohr mag/cell
     absolute magnetization    =     5.46 Bohr mag/cell

     iteration #  7     ecut=    30.00 Ry     beta= 0.50
     Davidson diagonalization with overlap
     ethr =  2.39E-05,  avg # of iterations =  1.3

     total cpu time spent up to now is       27.5 secs

     total energy              =    -111.58835982 Ry
     estimated scf accuracy    <       0.00044218 Ry

     total magnetization       =     5.20 Bohr mag/cell
     absolute magnetization    =     5.45 Bohr mag/cell

     iteration #  8     ecut=    30.00 Ry     beta= 0.50
     Davidson diagonalization with overlap
     ethr =  2.76E-06,  avg # of iterations =  3.2

     total cpu time spent up to now is       27.7 secs

     total energy              =    -111.58857466 Ry
     estimated scf accuracy    <       0.00004718 Ry

     total magnetization       =     5.20 Bohr mag/cell
     absolute magnetization    =     5.46 Bohr mag/cell

     iteration #  9     ecut=    30.00 Ry     beta= 0.50
     Davidson diagonalization with overlap
     ethr =  2.95E-07,  avg # of iterations =  2.6

     total cpu time spent up to now is       28.0 secs

     total energy              =    -111.58855837 Ry
     estimated scf accuracy    <       0.00004962 Ry

     total magnetization       =     5.20 Bohr mag/cell
     absolute magnetization    =     5.46 Bohr mag/cell

     iteration # 10     ecut=    30.00 Ry     beta= 0.50
     Davidson diagonalization with overlap
     ethr =  2.95E-07,  avg # of iterations =  2.1

     total cpu time spent up to now is       28.2 secs

     total energy              =    -111.58856914 Ry
     estimated scf accuracy    <       0.00000023 Ry

     total magnetization       =     5.20 Bohr mag/cell
     absolute magnetization    =     5.46 Bohr mag/cell

     iteration # 11     ecut=    30.00 Ry     beta= 0.50
     Davidson diagonalization with overlap
     ethr =  1.45E-09,  avg # of iterations = 11.0

     total cpu time spent up to now is       28.9 secs

     total energy              =    -111.58857161 Ry
     estimated scf accuracy    <       0.00000063 Ry

     total magnetization       =     5.20 Bohr mag/cell
     absolute magnetization    =     5.46 Bohr mag/cell

     iteration # 12     ecut=    30.00 Ry     beta= 0.50
     Davidson diagonalization with overlap
     ethr =  1.45E-09,  avg # of iterations =  3.0

     total cpu time spent up to now is       29.2 secs

     total energy              =    -111.58857172 Ry
     estimated scf accuracy    <          7.7E-09 Ry

     total magnetization       =     5.20 Bohr mag/cell
     absolute magnetization    =     5.46 Bohr mag/cell

     iteration # 13     ecut=    30.00 Ry     beta= 0.50
     Davidson diagonalization with overlap
     ethr =  4.81E-11,  avg # of iterations =  5.7

     total cpu time spent up to now is       29.6 secs

     total energy              =    -111.58857173 Ry
     estimated scf accuracy    <       0.00000002 Ry

     total magnetization       =     5.20 Bohr mag/cell
     absolute magnetization    =     5.46 Bohr mag/cell

     iteration # 14     ecut=    30.00 Ry     beta= 0.50
     Davidson diagonalization with overlap
     ethr =  4.81E-11,  avg # of iterations =  3.3

     Magnetic moment per site  (integrated on atomic sphere of radius R)
     atom   1 (R=0.412)  charge=  6.4999  magn=  2.6506
     atom   2 (R=0.412)  charge=  6.4992  magn=  2.6506

     total cpu time spent up to now is       29.9 secs

     End of self-consistent calculation

 ------ SPIN UP ------------


          k = 0.0000 0.0000 0.0000 (   417 PWs)   bands (ev):

     4.3904   7.7830   9.9272  10.2722  10.2722  10.4929  10.4929  11.0044
    11.0044  11.7885  11.7885  11.9340

          k = 0.0000 0.0000 0.1414 (   441 PWs)   bands (ev):

     4.9088   7.5169   9.8334  10.2299  10.2299  10.4040  10.4040  10.6055
    11.1971  11.1971  11.7345  11.7346

          k = 0.0000 0.0000-0.2828 (   434 PWs)   bands (ev):

     6.2728   6.2729   9.7674   9.7675  10.2616  10.2616  10.2617  10.2617
    11.5257  11.5257  11.5257  11.5257

          k = 0.0000 0.2868 0.0000 (   459 PWs)   bands (ev):

     6.3754   8.6542   9.1385   9.7422  10.0222  10.4836  10.5814  10.9913
    11.2279  11.3698  11.8647  16.3625

          k = 0.0000 0.2868 0.1414 (   456 PWs)   bands (ev):

     6.7476   8.5220   9.0624   9.7095   9.9344  10.4864  10.6773  11.2021
    11.2368  11.3609  11.7827  13.9980

          k = 0.0000 0.2868-0.2828 (   450 PWs)   bands (ev):

     7.6672   7.6673   9.3587   9.3587  10.2226  10.2227  10.9288  10.9289
    11.5725  11.5725  12.1198  12.1198

          k =-0.0000-0.5736 0.0000 (   452 PWs)   bands (ev):

     8.1376   8.2163   8.2908   9.9574  10.2391  10.5548  10.6759  11.8697
    12.3178  12.4061  14.2565  16.2124

          k =-0.0000-0.5736 0.1414 (   460 PWs)   bands (ev):

     7.8084   8.1606   8.8836   9.1250  10.4477  10.7922  11.5913  11.8502
    12.3355  12.3947  13.8604  15.7416

          k =-0.0000-0.5736-0.2828 (   476 PWs)   bands (ev):

     7.8940   7.8940   8.9495   8.9496  10.9868  10.9868  11.7925  11.7925
    12.3668  12.3668  14.4021  14.4021

          k = 0.2484 0.4302 0.0000 (   452 PWs)   bands (ev):

     8.5855   8.8013   9.1214   9.2078   9.7931  10.2196  10.4738  11.3298
    11.6095  12.2145  14.1403  20.0250

          k = 0.2484 0.4302 0.1414 (   456 PWs)   bands (ev):

     8.5344   8.6587   9.1427   9.4655   9.9547  10.1065  10.5496  11.2757
    11.5604  12.2925  14.3393  17.3570

          k = 0.2484 0.4302-0.2828 (   452 PWs)   bands (ev):

     8.5149   8.5150   9.4748   9.4749   9.9967   9.9967  10.7742  10.7742
    12.1439  12.1439  15.2179  15.2180

          k = 0.2484-0.1434 0.0000 (   459 PWs)   bands (ev):

     6.3754   8.6542   9.1385   9.7422  10.0222  10.4835  10.5814  10.9913
    11.2279  11.3698  11.8647  16.3625

          k = 0.2484-0.1434 0.1414 (   456 PWs)   bands (ev):

     6.7476   8.5220   9.0624   9.7095   9.9343  10.4864  10.6773  11.2021
    11.2368  11.3609  11.7827  13.9980

          k = 0.2484-0.1434-0.2828 (   450 PWs)   bands (ev):

     7.6672   7.6673   9.3587   9.3587  10.2226  10.2227  10.9288  10.9289
    11.5725  11.5725  12.1198  12.1199

          k =-0.4967 0.2868 0.0000 (   452 PWs)   bands (ev):

     8.1376   8.2163   8.2908   9.9574  10.2391  10.5548  10.6759  11.8697
    12.3178  12.4061  14.2565  16.2124

          k =-0.4967 0.2868 0.1414 (   460 PWs)   bands (ev):

     7.8084   8.1606   8.8836   9.1250  10.4477  10.7922  11.5913  11.8502
    12.3355  12.3948  13.8605  15.7416

          k =-0.4967 0.2868-0.2828 (   476 PWs)   bands (ev):

     7.8940   7.8940   8.9495   8.9496  10.9868  10.9868  11.7925  11.7925
    12.3668  12.3668  14.4021  14.4021

          k = 0.4967-0.0000 0.0000 (   452 PWs)   bands (ev):

     8.5855   8.8013   9.1214   9.2078   9.7931  10.2196  10.4738  11.3298
    11.6095  12.2145  14.1403  20.0250

          k = 0.4967-0.0000-0.1414 (   456 PWs)   bands (ev):

     8.5344   8.6587   9.1427   9.4655   9.9547  10.1065  10.5496  11.2757
    11.5604  12.2925  14.3393  17.3570

          k = 0.4967-0.0000 0.2828 (   452 PWs)   bands (ev):

     8.5149   8.5150   9.4748   9.4749   9.9967   9.9967  10.7742  10.7742
    12.1439  12.1439  15.2180  15.2180

 ------ SPIN DOWN ----------


          k = 0.0000 0.0000 0.0000 (   417 PWs)   bands (ev):

     4.5509   9.0774  12.0081  12.2757  12.9401  12.9401  13.2247  13.2247
    14.2612  14.2612  15.1968  15.1968

          k = 0.0000 0.0000 0.1414 (   441 PWs)   bands (ev):

     5.0732   8.2862  11.6797  12.1098  12.9168  12.9168  13.1279  13.1279
    14.4686  14.4686  15.1226  15.1226

          k = 0.0000 0.0000-0.2828 (   434 PWs)   bands (ev):

     6.5102   6.5103  11.7664  11.7664  12.9684  12.9684  12.9684  12.9684
    14.8573  14.8573  14.8573  14.8573

          k = 0.0000 0.2868 0.0000 (   459 PWs)   bands (ev):

     6.6092  10.3706  10.9455  11.9039  12.4528  13.3882  13.4981  13.7119
    14.0500  14.2394  15.3040  18.0920

          k = 0.0000 0.2868 0.1414 (   456 PWs)   bands (ev):

     7.0472   9.6796  11.1028  12.0422  12.2398  12.8905  13.7308  14.0744
    14.1415  14.3265  15.1397  16.3462

          k = 0.0000 0.2868-0.2828 (   450 PWs)   bands (ev):

     8.2331   8.2332  11.6232  11.6232  12.4438  12.4438  13.8780  13.8780
    14.7412  14.7412  15.0161  15.0161

          k =-0.0000-0.5736 0.0000 (   452 PWs)   bands (ev):

     9.7157  10.0415  10.4792  11.7749  12.5873  12.8294  13.2777  15.3123
    15.3784  15.4814  16.1756  17.6891

          k =-0.0000-0.5736 0.1414 (   460 PWs)   bands (ev):

     9.5422   9.9865  10.9931  11.2059  12.8676  13.5259  13.6624  14.9416
    15.4039  15.4683  15.5052  17.0957

          k =-0.0000-0.5736-0.2828 (   476 PWs)   bands (ev):

     9.6593   9.6593  11.1941  11.1942  13.6799  13.6800  14.1802  14.1802
    15.4369  15.4369  15.6678  15.6678

          k = 0.2484 0.4302 0.0000 (   452 PWs)   bands (ev):

     9.6855  10.7900  11.0021  11.1206  12.5733  12.8744  13.0212  13.9954
    14.9806  15.1167  16.4858  20.9879

          k = 0.2484 0.4302 0.1414 (   456 PWs)   bands (ev):

     9.8502  10.5930  11.1481  11.3858  12.4372  12.4701  13.1851  14.3112
    14.5527  15.2827  16.6201  18.7431

          k = 0.2484 0.4302-0.2828 (   452 PWs)   bands (ev):

    10.2309  10.2310  11.5313  11.5313  12.1179  12.1180  13.7110  13.7110
    15.1287  15.1287  17.0732  17.0732

          k = 0.2484-0.1434 0.0000 (   459 PWs)   bands (ev):

     6.6092  10.3706  10.9455  11.9039  12.4528  13.3882  13.4982  13.7119
    14.0500  14.2394  15.3040  18.0920

          k = 0.2484-0.1434 0.1414 (   456 PWs)   bands (ev):

     7.0472   9.6796  11.1028  12.0422  12.2398  12.8905  13.7308  14.0744
    14.1415  14.3265  15.1397  16.3462

          k = 0.2484-0.1434-0.2828 (   450 PWs)   bands (ev):

     8.2331   8.2332  11.6232  11.6232  12.4438  12.4438  13.8780  13.8780
    14.7412  14.7412  15.0161  15.0161

          k =-0.4967 0.2868 0.0000 (   452 PWs)   bands (ev):

     9.7157  10.0415  10.4792  11.7749  12.5873  12.8294  13.2777  15.3123
    15.3784  15.4814  16.1756  17.6891

          k =-0.4967 0.2868 0.1414 (   460 PWs)   bands (ev):

     9.5422   9.9865  10.9931  11.2059  12.8676  13.5259  13.6624  14.9416
    15.4039  15.4683  15.5052  17.0957

          k =-0.4967 0.2868-0.2828 (   476 PWs)   bands (ev):

     9.6593   9.6593  11.1941  11.1942  13.6800  13.6800  14.1802  14.1802
    15.4368  15.4369  15.6678  15.6678

          k = 0.4967-0.0000 0.0000 (   452 PWs)   bands (ev):

     9.6855  10.7900  11.0021  11.1206  12.5733  12.8744  13.0212  13.9954
    14.9806  15.1167  16.4858  20.9879

          k = 0.4967-0.0000-0.1414 (   456 PWs)   bands (ev):

     9.8502  10.5930  11.1481  11.3858  12.4372  12.4701  13.1851  14.3112
    14.5527  15.2827  16.6201  18.7432

          k = 0.4967-0.0000 0.2828 (   452 PWs)   bands (ev):

    10.2309  10.2310  11.5313  11.5313  12.1179  12.1180  13.7110  13.7110
    15.1287  15.1287  17.0732  17.0732

     the Fermi energy is    12.8463 ev

!    total energy              =    -111.58857174 Ry
     estimated scf accuracy    <          7.8E-10 Ry
     smearing contrib. (-TS)   =       0.00022018 Ry
     internal energy E=F+TS    =    -111.58879191 Ry

     The total energy is F=E-TS. E is the sum of the following terms:
     one-electron contribution =      12.56052418 Ry
     hartree contribution      =      13.87779884 Ry
     xc contribution           =     -52.93111213 Ry
     ewald contribution        =     -85.09600279 Ry

     total magnetization       =     5.20 Bohr mag/cell
     absolute magnetization    =     5.46 Bohr mag/cell

     convergence has been achieved in  14 iterations

     Forces acting on atoms (cartesian axes, Ry/au):

     atom    1 type  1   force =    -0.00000000   -0.00000017    0.00000000
     atom    2 type  1   force =     0.00000000    0.00000017    0.00000000
     The non-local contrib.  to forces
     atom    1 type  1   force =     0.00000000    0.00000095    0.00000000
     atom    2 type  1   force =    -0.00000000   -0.00000104    0.00000000
     The ionic contribution  to forces
     atom    1 type  1   force =     0.00000000    0.00000486   -0.00002736
     atom    2 type  1   force =    -0.00000000   -0.00000486    0.00002736
     The local contribution  to forces
     atom    1 type  1   force =    -0.00000000   -0.00000549   -0.00000000
     atom    2 type  1   force =     0.00000000    0.00000603    0.00008677
     The core correction contribution to forces
     atom    1 type  1   force =     0.00000000   -0.00000018   -0.00000000
     atom    2 type  1   force =    -0.00000000    0.00000027    0.00001398
     The Hubbard contrib.    to forces
     atom    1 type  1   force =     0.00000000    0.00000000    0.00000000
     atom    2 type  1   force =     0.00000000    0.00000000    0.00000000
     The SCF correction term to forces
     atom    1 type  1   force =     0.00000000    0.00000012    0.00000000
     atom    2 type  1   force =     0.00000000    0.00000021   -0.00000000

     Total force =     0.000000     Total SCF correction =     0.000000
     SCF correction compared to forces is large: reduce conv_thr to get better values


     Computing stress (Cartesian axis) and pressure

          total   stress  (Ry/bohr**3)                   (kbar)     P=       -5.86
  -0.00002991  -0.00000000   0.00000000           -4.40       -0.00        0.00
  -0.00000000  -0.00002992   0.00000000           -0.00       -4.40        0.00
   0.00000000   0.00000000  -0.00005968            0.00        0.00       -8.78


     init_run     :      0.61s CPU      0.71s WALL (       2 calls)
     electrons    :     26.03s CPU     25.40s WALL (       7 calls)
     update_pot   :      0.47s CPU      0.48s WALL (       5 calls)
     forces       :      0.51s CPU      0.54s WALL (       7 calls)
     stress       :      1.22s CPU      1.19s WALL (       7 calls)

     Called by init_run:
     wfcinit      :      0.09s CPU      0.10s WALL (       2 calls)
     potinit      :      0.15s CPU      0.16s WALL (       2 calls)
     hinit0       :      0.35s CPU      0.37s WALL (       2 calls)

     Called by electrons:
     c_bands      :     21.70s CPU     20.97s WALL (      83 calls)
     sum_band     :      3.20s CPU      3.02s WALL (      83 calls)
     v_of_rho     :      0.52s CPU      0.59s WALL (      89 calls)
     newd         :      0.45s CPU      0.47s WALL (      89 calls)
     mix_rho      :      0.10s CPU      0.15s WALL (      83 calls)

     Called by c_bands:
     init_us_2    :      0.29s CPU      0.26s WALL (    7644 calls)
     init_us_2:cp :      0.28s CPU      0.25s WALL (    7644 calls)
     cegterg      :     19.40s CPU     17.91s WALL (    3488 calls)

     Called by *egterg:
     cdiaghg      :      4.28s CPU      3.93s WALL (   14359 calls)
     h_psi        :     12.27s CPU     11.20s WALL (   14695 calls)
     s_psi        :      0.37s CPU      0.33s WALL (   14695 calls)
     g_psi        :      0.05s CPU      0.05s WALL (   11123 calls)

     Called by h_psi:
     h_psi:calbec :      1.03s CPU      0.95s WALL (   14695 calls)
     vloc_psi     :     10.85s CPU      9.83s WALL (   14695 calls)
     add_vuspsi   :      0.29s CPU      0.26s WALL (   14695 calls)

     General routines
     calbec       :      1.39s CPU      1.28s WALL (   19651 calls)
     fft          :      0.43s CPU      0.44s WALL (    2498 calls)
     ffts         :      0.12s CPU      0.11s WALL (     344 calls)
     fftw         :     11.27s CPU     10.18s WALL (  298246 calls)
     interpolate  :      0.14s CPU      0.13s WALL (     178 calls)

     Parallel routines

     PWSCF        :     29.31s CPU     30.19s WALL


   This run was terminated on:  10:25: 4  31Oct2023            

=------------------------------------------------------------------------------=
   JOB DONE.
=------------------------------------------------------------------------------=
