
     Program PWSCF v.7.2 starts on 18Oct2023 at  5:25:28 

     This program is part of the open-source Quantum ESPRESSO suite
     for quantum simulation of materials; please cite
         "P. Giannozzi et al., J. Phys.:Condens. Matter 21 395502 (2009);
         "P. Giannozzi et al., J. Phys.:Condens. Matter 29 465901 (2017);
         "P. Giannozzi et al., J. Chem. Phys. 152 154105 (2020);
          URL http://www.quantum-espresso.org", 
     in publications or presentations arising from this work. More details at
     http://www.quantum-espresso.org/quote

     Parallel version (MPI), running on     1 processors

     MPI processes distributed on     1 nodes
     42865 MiB available memory on the printing compute node when the environment starts

     Waiting for input...
     Reading input from standard input
Warning: card &CELL ignored
Warning: card / ignored

     Current dimensions of program PWSCF are:
     Max number of different atomic species (ntypx) = 10
     Max number of k-points (npk) =  40000
     Max angular momentum in pseudopotentials (lmaxx) =  4
     file Ge.pz-dn-rrkjus_psl.0.2.2.UPF: wavefunction(s)  3D renormalized
     Message from routine setup:
     using ibrav=0 with symmetry is DISCOURAGED, use correct ibrav instead

     Subspace diagonalization in iterative solution of the eigenvalue problem:
     a serial algorithm will be used


     G-vector sticks info
     --------------------
     sticks:   dense  smooth     PW     G-vecs:    dense   smooth      PW
     Sum         367     367    121                 4645     4645     893

     Using Slab Decomposition



     bravais-lattice index     =            0
     lattice parameter (alat)  =       6.6812  a.u.
     unit-cell volume          =     210.8855 (a.u.)^3
     number of atoms/cell      =            2
     number of atomic types    =            1
     number of electrons       =        28.00
     number of Kohn-Sham states=           14
     kinetic-energy cutoff     =      30.0000  Ry
     charge density cutoff     =     120.0000  Ry
     scf convergence threshold =      1.0E-07
     mixing beta               =       0.5000
     number of iterations used =            8  plain     mixing
     Exchange-correlation= LDA
                           (   1   1   0   0   0   0   0)

     celldm(1)=   6.681191  celldm(2)=   0.000000  celldm(3)=   0.000000
     celldm(4)=   0.000000  celldm(5)=   0.000000  celldm(6)=   0.000000

     crystal axes: (cart. coord. in units of alat)
               a(1) = (   0.000000   0.707107   0.707107 )  
               a(2) = (   0.707107   0.000000   0.707107 )  
               a(3) = (   0.707107   0.707107   0.000000 )  

     reciprocal axes: (cart. coord. in units 2 pi/alat)
               b(1) = ( -0.707107  0.707107  0.707107 )  
               b(2) = (  0.707107 -0.707107  0.707107 )  
               b(3) = (  0.707107  0.707107 -0.707107 )  


     PseudoPot. # 1 for Ge read from file:
     ../Ge.pz-dn-rrkjus_psl.0.2.2.UPF
     MD5 check sum: 9948ad5293734715c8cf6021b6c26e6d
     Pseudo is Ultrasoft + core correction, Zval = 14.0
     Generated using "atomic" code by A. Dal Corso  v.5.0.2 svn rev. 9415
     Using radial grid of 1207 points,  6 beta functions with: 
                l(1) =   0
                l(2) =   0
                l(3) =   1
                l(4) =   1
                l(5) =   2
                l(6) =   2
     Q(r) pseudized with 0 coefficients 


     atomic species   valence    mass     pseudopotential
        Ge            14.00    72.63000     Ge( 1.00)

      2 Sym. Ops. (no inversion) found



   Cartesian axes

     site n.     atom                  positions (alat units)
         1           Ge  tau(   1) = (   0.0000000   0.0000000   0.0000000  )
         2           Ge  tau(   2) = (   0.3889087   0.3889087   0.3535534  )

     number of k points=   205

     Number of k-points >= 100: set verbosity='high' to print them.

     Dense  grid:     4645 G-vectors     FFT dimensions: (  24,  24,  24)

     Estimated max dynamical RAM per process >      44.07 MB

     Check: negative core charge=   -0.000274

     Initial potential from superposition of free atoms

     starting charge      27.9988, renormalised to      28.0000
     Starting wfcs are   18 randomized atomic wfcs

     total cpu time spent up to now is        4.4 secs

     Self-consistent Calculation

     iteration #  1     ecut=    30.00 Ry     beta= 0.50
     Davidson diagonalization with overlap
     ethr =  1.00E-02,  avg # of iterations =  2.0

     Threshold (ethr) on eigenvalues was too large:
     Diagonalizing with lowered threshold

     Davidson diagonalization with overlap
     ethr =  2.03E-04,  avg # of iterations =  1.9

     total cpu time spent up to now is       17.0 secs

     total energy              =    -421.60797032 Ry
     estimated scf accuracy    <       0.05848468 Ry

     iteration #  2     ecut=    30.00 Ry     beta= 0.50
     Davidson diagonalization with overlap
     ethr =  2.09E-04,  avg # of iterations =  1.3

     total cpu time spent up to now is       23.1 secs

     total energy              =    -421.60614260 Ry
     estimated scf accuracy    <       0.00922557 Ry

     iteration #  3     ecut=    30.00 Ry     beta= 0.50
     Davidson diagonalization with overlap
     ethr =  3.29E-05,  avg # of iterations =  2.1

     total cpu time spent up to now is       30.0 secs

     total energy              =    -421.60714100 Ry
     estimated scf accuracy    <       0.00010023 Ry

     iteration #  4     ecut=    30.00 Ry     beta= 0.50
     Davidson diagonalization with overlap
     ethr =  3.58E-07,  avg # of iterations =  4.0

     total cpu time spent up to now is       39.3 secs

     total energy              =    -421.60717791 Ry
     estimated scf accuracy    <       0.00001524 Ry

     iteration #  5     ecut=    30.00 Ry     beta= 0.50
     Davidson diagonalization with overlap
     ethr =  5.44E-08,  avg # of iterations =  2.1

     total cpu time spent up to now is       46.1 secs

     total energy              =    -421.60717981 Ry
     estimated scf accuracy    <       0.00000094 Ry

     iteration #  6     ecut=    30.00 Ry     beta= 0.50
     Davidson diagonalization with overlap
     ethr =  3.36E-09,  avg # of iterations =  2.4

     total cpu time spent up to now is       54.0 secs

     End of self-consistent calculation

     Number of k-points >= 100: set verbosity='high' to print the bands.

     highest occupied level (ev):    15.2068

!    total energy              =    -421.60718002 Ry
     estimated scf accuracy    <       0.00000005 Ry

     The total energy is the sum of the following terms:
     one-electron contribution =    -233.27690074 Ry
     hartree contribution      =     146.91690366 Ry
     xc contribution           =    -112.19846139 Ry
     ewald contribution        =    -223.04872154 Ry

     convergence has been achieved in   6 iterations

     Forces acting on atoms (cartesian axes, Ry/au):

     atom    1 type  1   force =     0.12067606    0.12067606   -0.05014799
     atom    2 type  1   force =    -0.12067606   -0.12067606    0.05014799
     The non-local contrib.  to forces
     atom    1 type  1   force =    -0.05942195   -0.05942195    0.01799768
     atom    2 type  1   force =     0.05941589    0.05941589   -0.01799978
     The ionic contribution  to forces
     atom    1 type  1   force =     1.85235716    1.85235716   -0.84315844
     atom    2 type  1   force =    -1.85235716   -1.85235716    0.84315844
     The local contribution  to forces
     atom    1 type  1   force =    -1.66349596   -1.66349596    0.77114254
     atom    2 type  1   force =     1.66350929    1.66350929   -0.77114231
     The core correction contribution to forces
     atom    1 type  1   force =    -0.00852859   -0.00852859    0.00414439
     atom    2 type  1   force =     0.00852221    0.00852221   -0.00414218
     The Hubbard contrib.    to forces
     atom    1 type  1   force =     0.00000000    0.00000000    0.00000000
     atom    2 type  1   force =     0.00000000    0.00000000    0.00000000
     The SCF correction term to forces
     atom    1 type  1   force =    -0.00024425   -0.00024425   -0.00027572
     atom    2 type  1   force =     0.00022406    0.00022406    0.00027226

     Total force =     0.251556     Total SCF correction =     0.000608


     Computing stress (Cartesian axis) and pressure

          total   stress  (Ry/bohr**3)                   (kbar)     P=      369.61
   0.00243036   0.00026721  -0.00130315          357.52       39.31     -191.70
   0.00026721   0.00243036  -0.00130315           39.31      357.52     -191.70
  -0.00130315  -0.00130315   0.00267699         -191.70     -191.70      393.80


     init_run     :      4.97s CPU      3.65s WALL (       1 calls)
     electrons    :     70.61s CPU     49.62s WALL (       1 calls)
     forces       :      0.69s CPU      0.49s WALL (       1 calls)
     stress       :      9.14s CPU      6.61s WALL (       1 calls)

     Called by init_run:
     wfcinit      :      4.55s CPU      3.19s WALL (       1 calls)
     potinit      :      0.00s CPU      0.01s WALL (       1 calls)
     hinit0       :      0.39s CPU      0.40s WALL (       1 calls)

     Called by electrons:
     c_bands      :     59.75s CPU     41.77s WALL (       7 calls)
     sum_band     :     10.56s CPU      7.59s WALL (       7 calls)
     v_of_rho     :      0.06s CPU      0.06s WALL (       7 calls)
     newd         :      0.16s CPU      0.12s WALL (       7 calls)
     mix_rho      :      0.03s CPU      0.03s WALL (       7 calls)

     Called by c_bands:
     init_us_2    :      2.98s CPU      2.15s WALL (    3485 calls)
     init_us_2:cp :      2.94s CPU      2.11s WALL (    3485 calls)
     cegterg      :     54.06s CPU     37.48s WALL (    1435 calls)

     Called by *egterg:
     cdiaghg      :      3.95s CPU      2.78s WALL (    4467 calls)
     h_psi        :     48.31s CPU     33.40s WALL (    4877 calls)
     s_psi        :      1.03s CPU      0.71s WALL (    4877 calls)
     g_psi        :      0.37s CPU      0.25s WALL (    3237 calls)

     Called by h_psi:
     h_psi:calbec :      1.10s CPU      0.81s WALL (    4877 calls)
     vloc_psi     :     45.86s CPU     31.57s WALL (    4877 calls)
     add_vuspsi   :      0.96s CPU      0.68s WALL (    4877 calls)

     General routines
     calbec       :      1.61s CPU      1.15s WALL (    7337 calls)
     fft          :      0.18s CPU      0.18s WALL (      37 calls)
     ffts         :      0.01s CPU      0.01s WALL (       7 calls)
     fftw         :     47.34s CPU     32.67s WALL (  126248 calls)

     Parallel routines

     PWSCF        :   1m25.57s CPU   1m 1.19s WALL


   This run was terminated on:   5:26:29  18Oct2023            

=------------------------------------------------------------------------------=
   JOB DONE.
=------------------------------------------------------------------------------=
