
     Program PWSCF v.7.2 starts on  3Nov2023 at 11: 7:12 

     This program is part of the open-source Quantum ESPRESSO suite
     for quantum simulation of materials; please cite
         "P. Giannozzi et al., J. Phys.:Condens. Matter 21 395502 (2009);
         "P. Giannozzi et al., J. Phys.:Condens. Matter 29 465901 (2017);
         "P. Giannozzi et al., J. Chem. Phys. 152 154105 (2020);
          URL http://www.quantum-espresso.org", 
     in publications or presentations arising from this work. More details at
     http://www.quantum-espresso.org/quote

     Parallel version (MPI), running on     8 processors

     MPI processes distributed on     8 nodes
     185434 MiB available memory on the printing compute node when the environment starts

     Waiting for input...
     Reading input from standard input

     Current dimensions of program PWSCF are:
     Max number of different atomic species (ntypx) = 10
     Max number of k-points (npk) =  40000
     Max angular momentum in pseudopotentials (lmaxx) =  4
     Message from routine setup:
     using ibrav=0 with symmetry is DISCOURAGED, use correct ibrav instead

     R & G space division:  proc/nbgrp/npool/nimage =       8
     Subspace diagonalization in iterative solution of the eigenvalue problem:
     a serial algorithm will be used


     Parallelization info
     --------------------
     sticks:   dense  smooth     PW     G-vecs:    dense   smooth      PW
     Min          79      39     13                 1301      461      90
     Max          80      40     14                 1303      463      91
     Sum         637     313    109                10417     3695     725

     Using Slab Decomposition



     bravais-lattice index     =            0
     lattice parameter (alat)  =       5.3450  a.u.
     unit-cell volume          =     107.9734 (a.u.)^3
     number of atoms/cell      =            1
     number of atomic types    =            1
     number of electrons       =        11.00
     number of Kohn-Sham states=           10
     kinetic-energy cutoff     =      40.0000  Ry
     charge density cutoff     =     320.0000  Ry
     scf convergence threshold =      1.0E-07
     mixing beta               =       0.5000
     number of iterations used =            8  plain     mixing
     energy convergence thresh.=      1.0E-04
     force convergence thresh. =      1.0E-03
     press convergence thresh. =      5.0E-01
     Exchange-correlation=  SLA  PZ   NOGX NOGC
                           (   1   1   0   0   0   0   0)
     nstep                     =           50


     celldm(1)=   5.344953  celldm(2)=   0.000000  celldm(3)=   0.000000
     celldm(4)=   0.000000  celldm(5)=   0.000000  celldm(6)=   0.000000

     crystal axes: (cart. coord. in units of alat)
               a(1) = (   0.000000   0.707107   0.707107 )  
               a(2) = (   0.707107   0.000000   0.707107 )  
               a(3) = (   0.707107   0.707107   0.000000 )  

     reciprocal axes: (cart. coord. in units 2 pi/alat)
               b(1) = ( -0.707107  0.707107  0.707107 )  
               b(2) = (  0.707107 -0.707107  0.707107 )  
               b(3) = (  0.707107  0.707107 -0.707107 )  


     PseudoPot. # 1 for Au read from file:
     /home/gridsan/epan1/labutil/lab3_samples/pseudopotentials/Au.pz-d-rrkjus.UPF
     MD5 check sum: 424ffd4ac9c90487cbadcd287136c95b
     Pseudo is Ultrasoft, Zval = 11.0
     Generated by new atomic code, or converted to UPF format
     Using radial grid of 1279 points,  3 beta functions with: 
                l(1) =   2
                l(2) =   2
                l(3) =   1
     Q(r) pseudized with 0 coefficients 


     atomic species   valence    mass     pseudopotential
        Au            11.00   196.96657     Au( 1.00)

     Starting magnetic structure 
     atomic species   magnetization
        Au           0.700

     48 Sym. Ops., with inversion, found



   Cartesian axes

     site n.     atom                  positions (alat units)
         1           Au  tau(   1) = (   0.0000000   0.0000000   0.0000000  )

     number of k points=    35  Methfessel-Paxton smearing, width (Ry)=  0.0200
                       cart. coord. in units 2pi/alat
        k(    1) = (   0.0000000   0.0000000   0.0000000), wk =   0.0013717
        k(    2) = (   0.0785674   0.0785674  -0.0785674), wk =   0.0109739
        k(    3) = (   0.1571348   0.1571348  -0.1571348), wk =   0.0109739
        k(    4) = (   0.2357023   0.2357023  -0.2357023), wk =   0.0109739
        k(    5) = (   0.3142697   0.3142697  -0.3142697), wk =   0.0109739
        k(    6) = (   0.1571348   0.0000000   0.0000000), wk =   0.0082305
        k(    7) = (   0.2357023   0.0785674  -0.0785674), wk =   0.0329218
        k(    8) = (   0.3142697   0.1571348  -0.1571348), wk =   0.0329218
        k(    9) = (   0.3928371   0.2357023  -0.2357023), wk =   0.0329218
        k(   10) = (  -0.2357023  -0.3928371   0.3928371), wk =   0.0329218
        k(   11) = (  -0.1571348  -0.3142697   0.3142697), wk =   0.0329218
        k(   12) = (  -0.0785674  -0.2357023   0.2357023), wk =   0.0329218
        k(   13) = (  -0.0000000  -0.1571348   0.1571348), wk =   0.0164609
        k(   14) = (   0.3142697   0.0000000   0.0000000), wk =   0.0082305
        k(   15) = (   0.3928371   0.0785674  -0.0785674), wk =   0.0329218
        k(   16) = (   0.4714045   0.1571348  -0.1571348), wk =   0.0329218
        k(   17) = (  -0.1571348  -0.4714045   0.4714045), wk =   0.0329218
        k(   18) = (  -0.0785674  -0.3928371   0.3928371), wk =   0.0329218
        k(   19) = (   0.0000000  -0.3142697   0.3142697), wk =   0.0164609
        k(   20) = (   0.4714045   0.0000000   0.0000000), wk =   0.0082305
        k(   21) = (   0.5499719   0.0785674  -0.0785674), wk =   0.0329218
        k(   22) = (  -0.0785674  -0.5499719   0.5499719), wk =   0.0329218
        k(   23) = (  -0.0000000  -0.4714045   0.4714045), wk =   0.0164609
        k(   24) = (   0.6285394   0.0000000   0.0000000), wk =   0.0082305
        k(   25) = (   0.0000000  -0.6285394   0.6285394), wk =   0.0164609
        k(   26) = (   0.3142697   0.1571348   0.0000000), wk =   0.0329218
        k(   27) = (   0.3928371   0.2357023  -0.0785674), wk =   0.0658436
        k(   28) = (  -0.2357023  -0.3928371   0.5499719), wk =   0.0658436
        k(   29) = (   0.4714045   0.1571348   0.0000000), wk =   0.0329218
        k(   30) = (  -0.1571348  -0.4714045   0.6285394), wk =   0.0658436
        k(   31) = (  -0.0785674  -0.3928371   0.5499719), wk =   0.0658436
        k(   32) = (   0.0000000  -0.3142697   0.4714045), wk =   0.0329218
        k(   33) = (  -0.0785674  -0.5499719   0.7071068), wk =   0.0329218
        k(   34) = (  -0.0000000  -0.4714045   0.6285394), wk =   0.0329218
        k(   35) = (  -0.0785674  -0.3928371   0.7071068), wk =   0.0329218

     Dense  grid:    10417 G-vectors     FFT dimensions: (  32,  32,  32)

     Smooth grid:     3695 G-vectors     FFT dimensions: (  24,  24,  24)

     Estimated max dynamical RAM per process >       5.26 MB

     Estimated total dynamical RAM >      42.04 MB
     Generating pointlists ...
     new r_m :   0.4125 (alat units)  2.2048 (a.u.) for type    1

     Initial potential from superposition of free atoms

     starting charge      10.9999, renormalised to      11.0000
     Starting wfcs are    9 randomized atomic wfcs +    1 random wfcs

     total cpu time spent up to now is        0.5 secs

     Self-consistent Calculation

     iteration #  1     ecut=    40.00 Ry     beta= 0.50
     Davidson diagonalization with overlap
     ethr =  1.00E-02,  avg # of iterations =  5.6

     total cpu time spent up to now is        0.9 secs

     total energy              =     -66.49763363 Ry
     estimated scf accuracy    <       0.45960024 Ry

     total magnetization       =     1.22 Bohr mag/cell
     absolute magnetization    =     1.28 Bohr mag/cell

     iteration #  2     ecut=    40.00 Ry     beta= 0.50
     Davidson diagonalization with overlap
     ethr =  4.18E-03,  avg # of iterations =  1.4

     total cpu time spent up to now is        1.2 secs

     total energy              =     -66.76750435 Ry
     estimated scf accuracy    <       0.13620847 Ry

     total magnetization       =     0.47 Bohr mag/cell
     absolute magnetization    =     0.55 Bohr mag/cell

     iteration #  3     ecut=    40.00 Ry     beta= 0.50
     Davidson diagonalization with overlap
     ethr =  1.24E-03,  avg # of iterations =  1.1

     total cpu time spent up to now is        1.4 secs

     total energy              =     -66.85575112 Ry
     estimated scf accuracy    <       0.04584093 Ry

     total magnetization       =     0.22 Bohr mag/cell
     absolute magnetization    =     0.33 Bohr mag/cell

     iteration #  4     ecut=    40.00 Ry     beta= 0.50
     Davidson diagonalization with overlap
     ethr =  4.17E-04,  avg # of iterations =  1.6

     total cpu time spent up to now is        1.7 secs

     total energy              =     -66.87345677 Ry
     estimated scf accuracy    <       0.00422975 Ry

     total magnetization       =    -0.01 Bohr mag/cell
     absolute magnetization    =     0.03 Bohr mag/cell

     iteration #  5     ecut=    40.00 Ry     beta= 0.50
     Davidson diagonalization with overlap
     ethr =  3.85E-05,  avg # of iterations =  2.3

     total cpu time spent up to now is        2.0 secs

     total energy              =     -66.87470285 Ry
     estimated scf accuracy    <       0.00033254 Ry

     total magnetization       =    -0.00 Bohr mag/cell
     absolute magnetization    =     0.03 Bohr mag/cell

     iteration #  6     ecut=    40.00 Ry     beta= 0.50
     Davidson diagonalization with overlap
     ethr =  3.02E-06,  avg # of iterations =  2.0

     total cpu time spent up to now is        2.3 secs

     total energy              =     -66.87478242 Ry
     estimated scf accuracy    <       0.00000801 Ry

     total magnetization       =     0.00 Bohr mag/cell
     absolute magnetization    =     0.01 Bohr mag/cell

     iteration #  7     ecut=    40.00 Ry     beta= 0.50
     Davidson diagonalization with overlap
     ethr =  7.28E-08,  avg # of iterations =  1.5

     total cpu time spent up to now is        2.5 secs

     total energy              =     -66.87478671 Ry
     estimated scf accuracy    <       0.00000171 Ry

     total magnetization       =    -0.00 Bohr mag/cell
     absolute magnetization    =     0.00 Bohr mag/cell

     iteration #  8     ecut=    40.00 Ry     beta= 0.50
     Davidson diagonalization with overlap
     ethr =  1.56E-08,  avg # of iterations =  1.7

     Magnetic moment per site  (integrated on atomic sphere of radius R)
     atom   1 (R=0.413)  charge=  9.2984  magn=  0.0000

     total cpu time spent up to now is        2.8 secs

     End of self-consistent calculation

 ------ SPIN UP ------------


          k = 0.0000 0.0000 0.0000 (   459 PWs)   bands (ev):

     6.3997  12.0178  12.0178  12.0178  13.7130  13.7130  33.5489  37.4070
    37.4070  37.4070

          k = 0.0786 0.0786-0.0786 (   471 PWs)   bands (ev):

     6.8531  11.8775  12.1700  12.1700  13.6551  13.6551  33.7631  34.7243
    37.7393  37.7394

          k = 0.1571 0.1571-0.1571 (   477 PWs)   bands (ev):

     8.0105  11.7652  12.3437  12.3437  13.7819  13.7819  29.9172  34.5515
    38.0929  38.0930

          k = 0.2357 0.2357-0.2357 (   468 PWs)   bands (ev):

     8.9546  12.1830  12.1830  12.7486  14.4058  14.4058  25.2918  33.5631
    37.0180  37.0180

          k = 0.3143 0.3143-0.3143 (   470 PWs)   bands (ev):

     9.1142  11.9962  11.9962  14.9795  14.9795  15.1264  21.2487  32.7262
    35.7393  35.7393

          k = 0.1571 0.0000 0.0000 (   479 PWs)   bands (ev):

     7.0068  11.7023  12.3060  12.3060  13.3754  13.8547  34.1634  35.5277
    36.4240  36.4240

          k = 0.2357 0.0786-0.0786 (   470 PWs)   bands (ev):

     7.9607  11.4228  12.4873  12.5851  13.3252  14.0500  31.6937  34.7472
    35.4999  37.6545

          k = 0.3143 0.1571-0.1571 (   461 PWs)   bands (ev):

     9.1064  11.6579  12.1396  12.5534  14.3042  14.5705  27.0167  34.0754
    34.6493  36.5798

          k = 0.3928 0.2357-0.2357 (   458 PWs)   bands (ev):

     9.4377  11.8235  12.3398  12.9604  15.0504  16.0849  22.5535  32.9892
    34.2091  34.8176

          k =-0.2357-0.3928 0.3928 (   459 PWs)   bands (ev):

     9.4538  11.7607  12.2328  13.6675  14.9506  17.4785  20.4899  32.3408
    33.9040  34.9311

          k =-0.1571-0.3143 0.3143 (   459 PWs)   bands (ev):

     9.4356  11.9386  12.3376  12.7041  14.2583  15.8145  24.0292  32.3298
    34.3838  37.0602

          k =-0.0786-0.2357 0.2357 (   464 PWs)   bands (ev):

     8.7995  11.5569  12.3028  12.5758  13.4427  14.6733  28.5637  32.8838
    36.0619  38.8979

          k =-0.0000-0.1571 0.1571 (   473 PWs)   bands (ev):

     7.5650  11.6297  12.3788  12.4087  13.3359  13.9525  32.6157  33.7168
    36.5846  39.4346

          k = 0.3143 0.0000 0.0000 (   464 PWs)   bands (ev):

     8.5764  10.9704  12.7800  13.1266  13.1266  14.2251  33.4858  33.4858
    34.2421  35.5476

          k = 0.3928 0.0786-0.0786 (   457 PWs)   bands (ev):

     9.5071  10.7225  12.3943  13.3708  14.3452  14.6506  29.0329  32.1229
    33.0523  35.1717

          k = 0.4714 0.1571-0.1571 (   455 PWs)   bands (ev):

     9.9561  11.1049  12.1701  13.1909  15.1232  16.6037  24.3333  30.8690
    31.6949  34.9286

          k =-0.1571-0.4714 0.4714 (   461 PWs)   bands (ev):

    10.1092  11.3287  12.4770  12.9821  14.9908  19.6658  20.4993  29.1133
    32.5953  34.5803

          k =-0.0786-0.3928 0.3928 (   456 PWs)   bands (ev):

    10.3267  11.4877  12.1511  12.9188  14.2564  17.7412  23.5312  28.2142
    34.6541  34.7853

          k = 0.0000-0.3143 0.3143 (   463 PWs)   bands (ev):

    10.0185  11.3274  11.9591  12.9884  13.4152  16.0425  27.0578  29.1399
    35.3289  37.6869

          k = 0.4714 0.0000 0.0000 (   452 PWs)   bands (ev):

     9.6077  10.2301  13.7788  14.2895  14.2895  14.6681  29.6541  30.1786
    30.1786  34.2040

          k = 0.5500 0.0786-0.0786 (   460 PWs)   bands (ev):

     9.7379  10.1439  13.6505  14.2907  15.1606  16.6528  25.7686  28.3256
    29.3471  35.2758

          k =-0.0786-0.5500 0.5500 (   460 PWs)   bands (ev):

     9.9708  10.5971  13.0493  13.9994  15.1142  19.9781  22.2787  26.1853
    30.0589  35.5003

          k =-0.0000-0.4714 0.4714 (   456 PWs)   bands (ev):

    10.3783  11.2512  12.2202  13.5819  14.5761  19.6357  23.8047  24.5482
    32.1170  35.1574

          k = 0.6285 0.0000 0.0000 (   452 PWs)   bands (ev):

     9.4224   9.7883  14.9713  15.2758  15.2758  16.9855  24.3147  27.9730
    27.9730  34.5793

          k = 0.0000-0.6285 0.6285 (   460 PWs)   bands (ev):

     9.5579   9.9204  14.5123  14.7667  15.3308  19.1537  22.7801  26.5534
    28.2494  35.4919

          k = 0.3143 0.1571 0.0000 (   466 PWs)   bands (ev):

     9.0148  11.1167  12.2342  13.1329  13.3527  14.7087  29.9542  31.7413
    35.4302  37.3231

          k = 0.3928 0.2357-0.0786 (   460 PWs)   bands (ev):

     9.9496  11.4079  11.7636  13.0446  14.1964  16.0207  25.8530  30.5133
    33.4197  37.1531

          k =-0.2357-0.3928 0.5500 (   458 PWs)   bands (ev):

    10.0365  11.4233  12.4563  12.8430  14.8596  18.1596  21.6961  30.5122
    31.8606  36.0044

          k = 0.4714 0.1571 0.0000 (   464 PWs)   bands (ev):

    10.0622  10.5079  12.3393  14.2151  14.2798  16.0913  27.1840  28.9960
    30.8720  37.0885

          k =-0.1571-0.4714 0.6285 (   463 PWs)   bands (ev):

    10.3141  10.8537  12.1304  13.8148  14.9745  18.5312  23.5902  27.8321
    29.4567  37.2530

          k =-0.0786-0.3928 0.5500 (   461 PWs)   bands (ev):

    10.6163  11.0931  11.9884  13.4501  14.8856  20.1856  21.9747  26.5990
    30.1107  37.2669

          k = 0.0000-0.3143 0.4714 (   462 PWs)   bands (ev):

    10.9545  11.2361  11.2748  13.5189  14.3029  17.8770  25.1505  26.5131
    31.7661  37.8306

          k =-0.0786-0.5500 0.7071 (   463 PWs)   bands (ev):

     9.8318  10.1321  13.5397  14.5668  15.2739  18.8622  23.7911  26.9979
    27.6594  37.0003

          k =-0.0000-0.4714 0.6285 (   456 PWs)   bands (ev):

    10.1766  10.6402  12.7425  13.9727  15.2660  21.7424  21.7942  25.0605
    28.3028  37.6558

          k =-0.0786-0.3928 0.7071 (   459 PWs)   bands (ev):

    10.6104  11.1449  11.7352  13.6584  15.2685  20.7969  23.7640  24.6321
    27.6731  40.5292

 ------ SPIN DOWN ----------


          k = 0.0000 0.0000 0.0000 (   459 PWs)   bands (ev):

     6.4002  12.0183  12.0183  12.0183  13.7136  13.7136  33.5493  37.4075
    37.4075  37.4075

          k = 0.0786 0.0786-0.0786 (   471 PWs)   bands (ev):

     6.8536  11.8781  12.1706  12.1706  13.6556  13.6556  33.7635  34.7248
    37.7398  37.7398

          k = 0.1571 0.1571-0.1571 (   477 PWs)   bands (ev):

     8.0110  11.7657  12.3442  12.3442  13.7825  13.7825  29.9177  34.5520
    38.0935  38.0935

          k = 0.2357 0.2357-0.2357 (   468 PWs)   bands (ev):

     8.9550  12.1835  12.1835  12.7491  14.4063  14.4063  25.2923  33.5635
    37.0185  37.0185

          k = 0.3143 0.3143-0.3143 (   470 PWs)   bands (ev):

     9.1147  11.9968  11.9968  14.9800  14.9800  15.1269  21.2493  32.7267
    35.7397  35.7397

          k = 0.1571 0.0000 0.0000 (   479 PWs)   bands (ev):

     7.0073  11.7028  12.3066  12.3066  13.3760  13.8553  34.1638  35.5282
    36.4244  36.4244

          k = 0.2357 0.0786-0.0786 (   470 PWs)   bands (ev):

     7.9612  11.4233  12.4879  12.5856  13.3257  14.0506  31.6941  34.7477
    35.5004  37.6552

          k = 0.3143 0.1571-0.1571 (   461 PWs)   bands (ev):

     9.1069  11.6584  12.1402  12.5539  14.3048  14.5710  27.0172  34.0759
    34.6498  36.5802

          k = 0.3928 0.2357-0.2357 (   458 PWs)   bands (ev):

     9.4382  11.8240  12.3404  12.9609  15.0510  16.0854  22.5540  32.9896
    34.2096  34.8181

          k =-0.2357-0.3928 0.3928 (   459 PWs)   bands (ev):

     9.4543  11.7612  12.2334  13.6680  14.9512  17.4790  20.4904  32.3413
    33.9044  34.9315

          k =-0.1571-0.3143 0.3143 (   459 PWs)   bands (ev):

     9.4361  11.9391  12.3381  12.7046  14.2588  15.8150  24.0297  32.3303
    34.3843  37.0607

          k =-0.0786-0.2357 0.2357 (   464 PWs)   bands (ev):

     8.8000  11.5575  12.3033  12.5764  13.4433  14.6738  28.5642  32.8842
    36.0623  38.8984

          k =-0.0000-0.1571 0.1571 (   473 PWs)   bands (ev):

     7.5654  11.6303  12.3793  12.4093  13.3364  13.9530  32.6162  33.7172
    36.5851  39.4349

          k = 0.3143 0.0000 0.0000 (   464 PWs)   bands (ev):

     8.5769  10.9710  12.7805  13.1271  13.1271  14.2256  33.4863  33.4863
    34.2426  35.5480

          k = 0.3928 0.0786-0.0786 (   457 PWs)   bands (ev):

     9.5076  10.7230  12.3949  13.3713  14.3458  14.6512  29.0334  32.1234
    33.0528  35.1722

          k = 0.4714 0.1571-0.1571 (   455 PWs)   bands (ev):

     9.9566  11.1054  12.1706  13.1914  15.1237  16.6042  24.3338  30.8695
    31.6954  34.9291

          k =-0.1571-0.4714 0.4714 (   461 PWs)   bands (ev):

    10.1097  11.3292  12.4775  12.9827  14.9913  19.6663  20.4998  29.1138
    32.5958  34.5807

          k =-0.0786-0.3928 0.3928 (   456 PWs)   bands (ev):

    10.3273  11.4882  12.1516  12.9193  14.2569  17.7417  23.5317  28.2146
    34.6545  34.7858

          k = 0.0000-0.3143 0.3143 (   463 PWs)   bands (ev):

    10.0190  11.3280  11.9596  12.9890  13.4158  16.0430  27.0583  29.1404
    35.3293  37.6874

          k = 0.4714 0.0000 0.0000 (   452 PWs)   bands (ev):

     9.6082  10.2306  13.7793  14.2901  14.2901  14.6686  29.6546  30.1791
    30.1791  34.2044

          k = 0.5500 0.0786-0.0786 (   460 PWs)   bands (ev):

     9.7384  10.1444  13.6510  14.2912  15.1612  16.6533  25.7691  28.3261
    29.3476  35.2763

          k =-0.0786-0.5500 0.5500 (   460 PWs)   bands (ev):

     9.9714  10.5977  13.0498  13.9999  15.1148  19.9786  22.2792  26.1858
    30.0594  35.5008

          k =-0.0000-0.4714 0.4714 (   456 PWs)   bands (ev):

    10.3789  11.2517  12.2208  13.5824  14.5767  19.6362  23.8052  24.5487
    32.1175  35.1579

          k = 0.6285 0.0000 0.0000 (   452 PWs)   bands (ev):

     9.4230   9.7888  14.9719  15.2763  15.2763  16.9859  24.3152  27.9735
    27.9735  34.5798

          k = 0.0000-0.6285 0.6285 (   460 PWs)   bands (ev):

     9.5584   9.9210  14.5129  14.7673  15.3314  19.1541  22.7806  26.5539
    28.2499  35.4923

          k = 0.3143 0.1571 0.0000 (   466 PWs)   bands (ev):

     9.0153  11.1173  12.2348  13.1334  13.3532  14.7092  29.9546  31.7418
    35.4306  37.3236

          k = 0.3928 0.2357-0.0786 (   460 PWs)   bands (ev):

     9.9501  11.4084  11.7642  13.0451  14.1969  16.0212  25.8535  30.5138
    33.4201  37.1536

          k =-0.2357-0.3928 0.5500 (   458 PWs)   bands (ev):

    10.0370  11.4238  12.4568  12.8436  14.8602  18.1601  21.6966  30.5127
    31.8611  36.0049

          k = 0.4714 0.1571 0.0000 (   464 PWs)   bands (ev):

    10.0627  10.5084  12.3398  14.2156  14.2804  16.0919  27.1844  28.9965
    30.8725  37.0889

          k =-0.1571-0.4714 0.6285 (   463 PWs)   bands (ev):

    10.3146  10.8543  12.1309  13.8153  14.9751  18.5317  23.5907  27.8326
    29.4572  37.2534

          k =-0.0786-0.3928 0.5500 (   461 PWs)   bands (ev):

    10.6168  11.0936  11.9890  13.4506  14.8862  20.1861  21.9752  26.5995
    30.1112  37.2673

          k = 0.0000-0.3143 0.4714 (   462 PWs)   bands (ev):

    10.9550  11.2366  11.2753  13.5194  14.3035  17.8775  25.1510  26.5136
    31.7666  37.8310

          k =-0.0786-0.5500 0.7071 (   463 PWs)   bands (ev):

     9.8323  10.1326  13.5402  14.5673  15.2745  18.8627  23.7916  26.9984
    27.6599  37.0008

          k =-0.0000-0.4714 0.6285 (   456 PWs)   bands (ev):

    10.1772  10.6408  12.7430  13.9732  15.2666  21.7429  21.7947  25.0609
    28.3032  37.6563

          k =-0.0786-0.3928 0.7071 (   459 PWs)   bands (ev):

    10.6110  11.1454  11.7357  13.6590  15.2691  20.7974  23.7645  24.6326
    27.6736  40.5297

     the Fermi energy is    16.8754 ev

!    total energy              =     -66.87478708 Ry
     estimated scf accuracy    <       0.00000003 Ry
     smearing contrib. (-TS)   =       0.00008760 Ry
     internal energy E=F+TS    =     -66.87487469 Ry

     The total energy is F=E-TS. E is the sum of the following terms:
     one-electron contribution =      10.17666862 Ry
     hartree contribution      =       6.83668756 Ry
     xc contribution           =     -10.49554399 Ry
     ewald contribution        =     -73.39268687 Ry

     total magnetization       =     0.00 Bohr mag/cell
     absolute magnetization    =     0.00 Bohr mag/cell

     convergence has been achieved in   8 iterations

     Forces acting on atoms (cartesian axes, Ry/au):

     atom    1 type  1   force =     0.00000000    0.00000000    0.00000000
     The non-local contrib.  to forces
     atom    1 type  1   force =    -0.00000000   -0.00000000    0.00000000
     The ionic contribution  to forces
     atom    1 type  1   force =    -0.00000000   -0.00000000   -0.00000000
     The local contribution  to forces
     atom    1 type  1   force =     0.00000000    0.00000000    0.00000000
     The core correction contribution to forces
     atom    1 type  1   force =     0.00000000    0.00000000    0.00000000
     The Hubbard contrib.    to forces
     atom    1 type  1   force =     0.00000000    0.00000000    0.00000000
     The SCF correction term to forces
     atom    1 type  1   force =     0.00000000    0.00000000    0.00000000

     Total force =     0.000000     Total SCF correction =     0.000000


     Computing stress (Cartesian axis) and pressure

          total   stress  (Ry/bohr**3)                   (kbar)     P=       76.63
   0.00052095   0.00000000   0.00000000           76.63        0.00        0.00
   0.00000000   0.00052095   0.00000000            0.00       76.63        0.00
   0.00000000   0.00000000   0.00052095            0.00        0.00       76.63


     BFGS Geometry Optimization
     Energy error            =      0.0E+00 Ry
     Gradient error          =      0.0E+00 Ry/Bohr
     Cell gradient error     =      7.7E+01 kbar

     number of scf cycles    =   1
     number of bfgs steps    =   0

     enthalpy           new  =     -66.8747870815 Ry

     new trust radius        =       0.0270657595 bohr
     new conv_thr            =       0.0000001000 Ry

     new unit-cell volume =    112.24715 a.u.^3 (    16.63331 Ang^3 )
     density =     19.66359 g/cm^3

CELL_PARAMETERS (angstrom)
   0.000000000   2.026047253   2.026047253
   2.026047253   0.000000000   2.026047253
   2.026047253   2.026047253   0.000000000

ATOMIC_POSITIONS (angstrom)
Au            0.0000000000        0.0000000000        0.0000000000



     Writing config-only to output data dir /home/gridsan/epan1/labutil/lab3_samples/problem3/Lab3/Au_a_4.0_ecut_40_nk_9/pwscf.save/
     NEW-OLD atomic charge density approx. for the potential
     extrapolated charge   11.41882, renormalised to   11.00000
     Generating pointlists ...

     total cpu time spent up to now is        3.1 secs

     Self-consistent Calculation

     iteration #  1     ecut=    40.00 Ry     beta= 0.50
     Davidson diagonalization with overlap
     ethr =  1.00E-06,  avg # of iterations =  3.5

     total cpu time spent up to now is        3.5 secs

     total energy              =     -66.84615597 Ry
     estimated scf accuracy    <       0.02524538 Ry

     total magnetization       =     0.00 Bohr mag/cell
     absolute magnetization    =     0.00 Bohr mag/cell

     iteration #  2     ecut=    40.00 Ry     beta= 0.50
     Davidson diagonalization with overlap
     ethr =  2.30E-04,  avg # of iterations =  2.0

     total cpu time spent up to now is        3.8 secs

     WARNING: integrated charge=    10.99969557, expected=    11.00000000

     total energy              =     -66.87797387 Ry
     estimated scf accuracy    <       0.03031092 Ry

     total magnetization       =    -0.00 Bohr mag/cell
     absolute magnetization    =     0.00 Bohr mag/cell

     iteration #  3     ecut=    40.00 Ry     beta= 0.50
     Davidson diagonalization with overlap
     ethr =  2.30E-04,  avg # of iterations =  1.0

     total cpu time spent up to now is        4.1 secs

     WARNING: integrated charge=    11.00000910, expected=    11.00000000

     total energy              =     -66.87584166 Ry
     estimated scf accuracy    <       0.00661409 Ry

     total magnetization       =    -0.00 Bohr mag/cell
     absolute magnetization    =     0.00 Bohr mag/cell

     iteration #  4     ecut=    40.00 Ry     beta= 0.50
     Davidson diagonalization with overlap
     ethr =  6.01E-05,  avg # of iterations =  1.0

     total cpu time spent up to now is        4.3 secs

     WARNING: integrated charge=    11.00007116, expected=    11.00000000

     total energy              =     -66.87580138 Ry
     estimated scf accuracy    <       0.00139385 Ry

     total magnetization       =     0.00 Bohr mag/cell
     absolute magnetization    =     0.00 Bohr mag/cell

     iteration #  5     ecut=    40.00 Ry     beta= 0.50
     Davidson diagonalization with overlap
     ethr =  1.27E-05,  avg # of iterations =  1.0

     total cpu time spent up to now is        4.6 secs

     WARNING: integrated charge=    11.00009650, expected=    11.00000000

     total energy              =     -66.87560372 Ry
     estimated scf accuracy    <       0.00036741 Ry

     total magnetization       =     0.00 Bohr mag/cell
     absolute magnetization    =     0.00 Bohr mag/cell

     iteration #  6     ecut=    40.00 Ry     beta= 0.50
     Davidson diagonalization with overlap
     ethr =  3.34E-06,  avg # of iterations =  2.1

     total cpu time spent up to now is        4.9 secs

     WARNING: integrated charge=    11.00000774, expected=    11.00000000

     total energy              =     -66.87572962 Ry
     estimated scf accuracy    <       0.00011077 Ry

     total magnetization       =    -0.00 Bohr mag/cell
     absolute magnetization    =     0.00 Bohr mag/cell

     iteration #  7     ecut=    40.00 Ry     beta= 0.50
     Davidson diagonalization with overlap
     ethr =  1.01E-06,  avg # of iterations =  1.0

     total cpu time spent up to now is        5.2 secs

     WARNING: integrated charge=    10.99998902, expected=    11.00000000

     total energy              =     -66.87573605 Ry
     estimated scf accuracy    <       0.00000848 Ry

     total magnetization       =    -0.00 Bohr mag/cell
     absolute magnetization    =     0.00 Bohr mag/cell

     iteration #  8     ecut=    40.00 Ry     beta= 0.50
     Davidson diagonalization with overlap
     ethr =  7.71E-08,  avg # of iterations =  2.0

     Magnetic moment per site  (integrated on atomic sphere of radius R)
     atom   1 (R=0.413)  charge=  9.2483  magn= -0.0000

     total cpu time spent up to now is        5.5 secs

     End of self-consistent calculation

 ------ SPIN UP ------------


          k = 0.0000 0.0000 0.0000 (   459 PWs)   bands (ev):

     5.8947  11.3098  11.3098  11.3098  12.8944  12.8944  32.5311  36.1457
    36.1457  36.1457

          k = 0.0776 0.0776-0.0776 (   471 PWs)   bands (ev):

     6.3322  11.1801  11.4531  11.4531  12.8415  12.8415  32.6311  33.5690
    36.4290  36.4290

          k = 0.1551 0.1551-0.1551 (   477 PWs)   bands (ev):

     7.4548  11.0796  11.6166  11.6166  12.9625  12.9625  28.6837  33.4583
    36.6610  36.6610

          k = 0.2327 0.2327-0.2327 (   468 PWs)   bands (ev):

     8.3879  11.4669  11.4669  12.0281  13.5457  13.5457  24.1060  32.5155
    35.5919  35.5919

          k = 0.3102 0.3102-0.3102 (   470 PWs)   bands (ev):

     8.5559  11.2922  11.2922  14.0794  14.0794  14.3645  20.1080  31.7203
    34.3867  34.3867

          k = 0.1551 0.0000 0.0000 (   479 PWs)   bands (ev):

     6.4805  11.0157  11.5809  11.5809  12.5818  13.0271  33.0835  34.3258
    35.1010  35.1010

          k = 0.2327 0.0776-0.0776 (   470 PWs)   bands (ev):

     7.4040  10.7555  11.7529  11.8433  12.5378  13.2109  30.4437  33.5966
    34.1403  36.3965

          k = 0.3102 0.1551-0.1551 (   461 PWs)   bands (ev):

     8.5261  10.9813  11.4292  11.8143  13.4628  13.6980  25.8087  32.9618
    33.2914  35.1493

          k = 0.3878 0.2327-0.2327 (   458 PWs)   bands (ev):

     8.8632  11.1335  11.6148  12.2229  14.1450  15.1832  21.4176  31.8952
    32.8803  33.4658

          k =-0.2327-0.3878 0.3878 (   459 PWs)   bands (ev):

     8.8817  11.0744  11.5148  12.8926  14.0529  16.5784  19.3539  31.1714
    32.6961  33.5870

          k =-0.1551-0.3102 0.3102 (   459 PWs)   bands (ev):

     8.8561  11.2397  11.6129  11.9841  13.4090  14.8902  22.8679  31.0912
    33.2208  35.6327

          k =-0.0776-0.2327 0.2327 (   464 PWs)   bands (ev):

     8.2212  10.8839  11.5826  11.8352  12.6473  13.7983  27.3385  31.6076
    34.8503  37.6439

          k =-0.0000-0.1551 0.1551 (   473 PWs)   bands (ev):

     7.0203  10.9493  11.6504  11.6774  12.5455  13.1205  31.3912  32.4842
    35.3667  38.0852

          k = 0.3102 0.0000 0.0000 (   464 PWs)   bands (ev):

     8.0032  10.3307  12.0310  12.3518  12.3518  13.3736  32.1716  32.1716
    33.0332  34.3174

          k = 0.3878 0.0776-0.0776 (   457 PWs)   bands (ev):

     8.9162  10.0981  11.6702  12.5806  13.5042  13.7718  27.7930  30.8453
    31.7484  33.8446

          k = 0.4653 0.1551-0.1551 (   455 PWs)   bands (ev):

     9.3640  10.4640  11.4603  12.4129  14.2124  15.6656  23.1962  29.5888
    30.4357  33.6520

          k =-0.1551-0.4653 0.4653 (   461 PWs)   bands (ev):

     9.5107  10.6760  11.7579  12.2183  14.0904  18.6610  19.4149  27.8648
    31.3035  33.3639

          k =-0.0776-0.3878 0.3878 (   456 PWs)   bands (ev):

     9.7122  10.8228  11.4547  12.1593  13.4073  16.7461  22.3906  26.9837
    33.4087  33.4745

          k = 0.0000-0.3102 0.3102 (   463 PWs)   bands (ev):

     9.4022  10.6685  11.2666  12.2243  12.6212  15.0955  25.8630  27.8688
    34.1556  36.2127

          k = 0.4653 0.0000 0.0000 (   452 PWs)   bands (ev):

     9.0318   9.6343  13.0016  13.4402  13.4402  13.7872  28.3111  28.9715
    28.9715  32.9272

          k = 0.5429 0.0776-0.0776 (   460 PWs)   bands (ev):

     9.1669   9.5532  12.8627  13.4398  14.2475  15.7310  24.5796  27.1087
    28.1754  33.9394

          k =-0.0776-0.5429 0.5429 (   460 PWs)   bands (ev):

     9.3896   9.9842  12.2952  13.1693  14.2053  18.9319  21.2131  24.9807
    28.8553  34.1672

          k =-0.0000-0.4653 0.4653 (   456 PWs)   bands (ev):

     9.7716  10.6053  11.5127  12.7805  13.7051  18.5994  22.6846  23.3705
    30.8285  33.8864

          k = 0.6205 0.0000 0.0000 (   452 PWs)   bands (ev):

     8.8716   9.2174  14.0698  14.3566  14.3566  16.1463  23.0674  26.8639
    26.8639  33.2446

          k = 0.0000-0.6205 0.6205 (   460 PWs)   bands (ev):

     9.0016   9.3422  13.6667  13.8815  14.4070  18.2297  21.5660  25.4373
    27.1264  34.1275

          k = 0.3102 0.1551-0.0000 (   466 PWs)   bands (ev):

     8.4275  10.4689  11.5184  12.3575  12.5657  13.8308  28.7162  30.4373
    34.1755  36.0945

          k = 0.3878 0.2327-0.0776 (   460 PWs)   bands (ev):

     9.3453  10.7460  11.0783  12.2771  13.3552  15.0820  24.6719  29.2403
    32.1791  35.8184

          k =-0.2327-0.3878 0.5429 (   458 PWs)   bands (ev):

     9.4379  10.7619  11.7394  12.0911  13.9696  17.1754  20.5918  29.2376
    30.6316  34.7562

          k = 0.4653 0.1551 0.0000 (   464 PWs)   bands (ev):

     9.4656   9.8961  11.6201  13.3760  13.4309  15.1577  25.9805  27.7770
    29.6065  35.7239

          k =-0.1551-0.4653 0.6205 (   463 PWs)   bands (ev):

     9.7122  10.2266  11.4246  13.0000  14.0768  17.5189  22.4803  26.6075
    28.2354  35.9268

          k =-0.0776-0.3878 0.5429 (   461 PWs)   bands (ev):

     9.9967  10.4537  11.2948  12.6580  13.9939  19.1196  20.9003  25.3956
    28.8706  35.9691

          k = 0.0000-0.3102 0.4653 (   462 PWs)   bands (ev):

    10.3087  10.5896  10.6194  12.7244  13.4515  16.8732  23.9863  25.3199
    30.4961  36.5155

          k =-0.0776-0.5429 0.6980 (   463 PWs)   bands (ev):

     9.2609   9.5415  12.7546  13.6995  14.3548  17.8840  22.6110  25.8723
    26.4898  35.6237

          k =-0.0000-0.4653 0.6205 (   456 PWs)   bands (ev):

     9.5875  10.0231  12.0052  13.1458  14.3473  20.6608  20.7064  23.9112
    27.1156  36.2846

          k =-0.0776-0.3878 0.6980 (   459 PWs)   bands (ev):

    10.0015  10.4970  11.0533  12.8538  14.3497  19.7119  22.6311  23.5213
    26.4663  39.1400

 ------ SPIN DOWN ----------


          k = 0.0000 0.0000 0.0000 (   459 PWs)   bands (ev):

     5.8947  11.3098  11.3098  11.3098  12.8944  12.8944  32.5311  36.1457
    36.1457  36.1457

          k = 0.0776 0.0776-0.0776 (   471 PWs)   bands (ev):

     6.3322  11.1801  11.4531  11.4531  12.8415  12.8415  32.6311  33.5690
    36.4290  36.4290

          k = 0.1551 0.1551-0.1551 (   477 PWs)   bands (ev):

     7.4548  11.0796  11.6166  11.6166  12.9625  12.9625  28.6837  33.4583
    36.6610  36.6610

          k = 0.2327 0.2327-0.2327 (   468 PWs)   bands (ev):

     8.3879  11.4669  11.4669  12.0281  13.5457  13.5457  24.1060  32.5155
    35.5919  35.5919

          k = 0.3102 0.3102-0.3102 (   470 PWs)   bands (ev):

     8.5559  11.2922  11.2922  14.0794  14.0794  14.3645  20.1080  31.7203
    34.3867  34.3867

          k = 0.1551 0.0000 0.0000 (   479 PWs)   bands (ev):

     6.4805  11.0157  11.5809  11.5809  12.5818  13.0271  33.0835  34.3258
    35.1010  35.1010

          k = 0.2327 0.0776-0.0776 (   470 PWs)   bands (ev):

     7.4040  10.7555  11.7529  11.8433  12.5378  13.2109  30.4437  33.5966
    34.1403  36.3965

          k = 0.3102 0.1551-0.1551 (   461 PWs)   bands (ev):

     8.5261  10.9813  11.4292  11.8143  13.4628  13.6980  25.8087  32.9618
    33.2914  35.1493

          k = 0.3878 0.2327-0.2327 (   458 PWs)   bands (ev):

     8.8632  11.1335  11.6148  12.2229  14.1450  15.1832  21.4176  31.8952
    32.8803  33.4658

          k =-0.2327-0.3878 0.3878 (   459 PWs)   bands (ev):

     8.8817  11.0744  11.5148  12.8926  14.0529  16.5784  19.3539  31.1714
    32.6961  33.5870

          k =-0.1551-0.3102 0.3102 (   459 PWs)   bands (ev):

     8.8561  11.2397  11.6129  11.9841  13.4090  14.8902  22.8679  31.0912
    33.2208  35.6327

          k =-0.0776-0.2327 0.2327 (   464 PWs)   bands (ev):

     8.2212  10.8839  11.5826  11.8352  12.6473  13.7983  27.3385  31.6076
    34.8503  37.6439

          k =-0.0000-0.1551 0.1551 (   473 PWs)   bands (ev):

     7.0203  10.9493  11.6504  11.6774  12.5455  13.1205  31.3912  32.4842
    35.3667  38.0851

          k = 0.3102 0.0000 0.0000 (   464 PWs)   bands (ev):

     8.0032  10.3307  12.0310  12.3518  12.3518  13.3736  32.1716  32.1716
    33.0332  34.3174

          k = 0.3878 0.0776-0.0776 (   457 PWs)   bands (ev):

     8.9162  10.0981  11.6702  12.5806  13.5042  13.7718  27.7930  30.8453
    31.7484  33.8446

          k = 0.4653 0.1551-0.1551 (   455 PWs)   bands (ev):

     9.3640  10.4640  11.4603  12.4129  14.2124  15.6656  23.1962  29.5888
    30.4357  33.6520

          k =-0.1551-0.4653 0.4653 (   461 PWs)   bands (ev):

     9.5107  10.6760  11.7579  12.2183  14.0904  18.6610  19.4149  27.8648
    31.3035  33.3639

          k =-0.0776-0.3878 0.3878 (   456 PWs)   bands (ev):

     9.7122  10.8228  11.4547  12.1593  13.4073  16.7461  22.3906  26.9837
    33.4087  33.4745

          k = 0.0000-0.3102 0.3102 (   463 PWs)   bands (ev):

     9.4022  10.6685  11.2666  12.2243  12.6212  15.0955  25.8630  27.8688
    34.1556  36.2127

          k = 0.4653 0.0000 0.0000 (   452 PWs)   bands (ev):

     9.0318   9.6343  13.0016  13.4402  13.4402  13.7872  28.3111  28.9715
    28.9715  32.9272

          k = 0.5429 0.0776-0.0776 (   460 PWs)   bands (ev):

     9.1669   9.5532  12.8627  13.4398  14.2475  15.7310  24.5796  27.1087
    28.1754  33.9394

          k =-0.0776-0.5429 0.5429 (   460 PWs)   bands (ev):

     9.3896   9.9842  12.2952  13.1693  14.2053  18.9319  21.2131  24.9807
    28.8553  34.1672

          k =-0.0000-0.4653 0.4653 (   456 PWs)   bands (ev):

     9.7716  10.6053  11.5127  12.7805  13.7051  18.5994  22.6846  23.3705
    30.8285  33.8864

          k = 0.6205 0.0000 0.0000 (   452 PWs)   bands (ev):

     8.8716   9.2174  14.0698  14.3566  14.3566  16.1463  23.0674  26.8639
    26.8639  33.2446

          k = 0.0000-0.6205 0.6205 (   460 PWs)   bands (ev):

     9.0016   9.3422  13.6667  13.8815  14.4070  18.2297  21.5660  25.4373
    27.1264  34.1275

          k = 0.3102 0.1551-0.0000 (   466 PWs)   bands (ev):

     8.4275  10.4689  11.5184  12.3575  12.5657  13.8308  28.7162  30.4373
    34.1755  36.0945

          k = 0.3878 0.2327-0.0776 (   460 PWs)   bands (ev):

     9.3453  10.7460  11.0783  12.2771  13.3552  15.0820  24.6719  29.2403
    32.1791  35.8184

          k =-0.2327-0.3878 0.5429 (   458 PWs)   bands (ev):

     9.4379  10.7619  11.7394  12.0911  13.9696  17.1754  20.5918  29.2376
    30.6316  34.7562

          k = 0.4653 0.1551 0.0000 (   464 PWs)   bands (ev):

     9.4656   9.8961  11.6201  13.3760  13.4309  15.1577  25.9805  27.7770
    29.6065  35.7239

          k =-0.1551-0.4653 0.6205 (   463 PWs)   bands (ev):

     9.7122  10.2266  11.4246  13.0000  14.0768  17.5189  22.4803  26.6075
    28.2354  35.9268

          k =-0.0776-0.3878 0.5429 (   461 PWs)   bands (ev):

     9.9967  10.4537  11.2948  12.6580  13.9939  19.1196  20.9003  25.3956
    28.8706  35.9691

          k = 0.0000-0.3102 0.4653 (   462 PWs)   bands (ev):

    10.3087  10.5896  10.6194  12.7244  13.4515  16.8732  23.9863  25.3199
    30.4961  36.5155

          k =-0.0776-0.5429 0.6980 (   463 PWs)   bands (ev):

     9.2609   9.5415  12.7546  13.6995  14.3548  17.8840  22.6110  25.8723
    26.4898  35.6237

          k =-0.0000-0.4653 0.6205 (   456 PWs)   bands (ev):

     9.5875  10.0231  12.0052  13.1458  14.3473  20.6608  20.7064  23.9112
    27.1156  36.2846

          k =-0.0776-0.3878 0.6980 (   459 PWs)   bands (ev):

    10.0015  10.4970  11.0533  12.8538  14.3497  19.7119  22.6311  23.5213
    26.4663  39.1400

     the Fermi energy is    15.9792 ev

!    total energy              =     -66.87573802 Ry
     estimated scf accuracy    <       0.00000005 Ry
     smearing contrib. (-TS)   =       0.00014216 Ry
     internal energy E=F+TS    =     -66.87588018 Ry

     The total energy is F=E-TS. E is the sum of the following terms:
     one-electron contribution =       8.86017239 Ry
     hartree contribution      =       7.17391302 Ry
     xc contribution           =     -10.46082921 Ry
     ewald contribution        =     -72.44913639 Ry

     total magnetization       =    -0.00 Bohr mag/cell
     absolute magnetization    =     0.00 Bohr mag/cell

     convergence has been achieved in   8 iterations

     Forces acting on atoms (cartesian axes, Ry/au):

     atom    1 type  1   force =     0.00000000    0.00000000    0.00000000
     The non-local contrib.  to forces
     atom    1 type  1   force =     0.00000000    0.00000000    0.00000000
     The ionic contribution  to forces
     atom    1 type  1   force =    -0.00000000   -0.00000000   -0.00000000
     The local contribution  to forces
     atom    1 type  1   force =     0.00000000    0.00000000    0.00000000
     The core correction contribution to forces
     atom    1 type  1   force =     0.00000000    0.00000000    0.00000000
     The Hubbard contrib.    to forces
     atom    1 type  1   force =     0.00000000    0.00000000    0.00000000
     The SCF correction term to forces
     atom    1 type  1   force =     0.00000000    0.00000000    0.00000000

     Total force =     0.000000     Total SCF correction =     0.000000


     Computing stress (Cartesian axis) and pressure

          total   stress  (Ry/bohr**3)                   (kbar)     P=       -4.46
  -0.00003033   0.00000000   0.00000000           -4.46        0.00        0.00
   0.00000000  -0.00003033   0.00000000            0.00       -4.46        0.00
   0.00000000   0.00000000  -0.00003033            0.00        0.00       -4.46

     Energy error            =      9.5E-04 Ry
     Gradient error          =      0.0E+00 Ry/Bohr
     Cell gradient error     =      4.5E+00 kbar

     number of scf cycles    =   2
     number of bfgs steps    =   1

     enthalpy           old  =     -66.8747870815 Ry
     enthalpy           new  =     -66.8757380200 Ry

     CASE: enthalpy          _new < enthalpy          _old

     new trust radius        =       0.0015356785 bohr
     new conv_thr            =       0.0000000010 Ry

     new unit-cell volume =    112.00327 a.u.^3 (    16.59717 Ang^3 )
     density =     19.70641 g/cm^3

CELL_PARAMETERS (angstrom)
   0.000000000   2.024578894   2.024578894
   2.024578894   0.000000000   2.024578894
   2.024578894   2.024578894   0.000000000

ATOMIC_POSITIONS (angstrom)
Au            0.0000000000        0.0000000000        0.0000000000



     Writing config-only to output data dir /home/gridsan/epan1/labutil/lab3_samples/problem3/Lab3/Au_a_4.0_ecut_40_nk_9/pwscf.save/
     NEW-OLD atomic charge density approx. for the potential
     extrapolated charge   10.97605, renormalised to   11.00000
     Generating pointlists ...

     total cpu time spent up to now is        5.7 secs

     Self-consistent Calculation

     iteration #  1     ecut=    40.00 Ry     beta= 0.50
     Davidson diagonalization with overlap
     ethr =  1.00E-06,  avg # of iterations =  2.0

     total cpu time spent up to now is        6.1 secs

     total energy              =     -66.87565301 Ry
     estimated scf accuracy    <       0.00007903 Ry

     total magnetization       =     0.00 Bohr mag/cell
     absolute magnetization    =     0.00 Bohr mag/cell

     iteration #  2     ecut=    40.00 Ry     beta= 0.50
     Davidson diagonalization with overlap
     ethr =  7.18E-07,  avg # of iterations =  2.0

     total cpu time spent up to now is        6.4 secs

     total energy              =     -66.87574703 Ry
     estimated scf accuracy    <       0.00009420 Ry

     total magnetization       =     0.00 Bohr mag/cell
     absolute magnetization    =     0.00 Bohr mag/cell

     iteration #  3     ecut=    40.00 Ry     beta= 0.50
     Davidson diagonalization with overlap
     ethr =  7.18E-07,  avg # of iterations =  1.0

     total cpu time spent up to now is        6.7 secs

     total energy              =     -66.87574583 Ry
     estimated scf accuracy    <       0.00002029 Ry

     total magnetization       =     0.00 Bohr mag/cell
     absolute magnetization    =     0.00 Bohr mag/cell

     iteration #  4     ecut=    40.00 Ry     beta= 0.50
     Davidson diagonalization with overlap
     ethr =  1.84E-07,  avg # of iterations =  1.0

     total cpu time spent up to now is        6.9 secs

     total energy              =     -66.87574625 Ry
     estimated scf accuracy    <       0.00000474 Ry

     total magnetization       =     0.00 Bohr mag/cell
     absolute magnetization    =     0.00 Bohr mag/cell

     iteration #  5     ecut=    40.00 Ry     beta= 0.50
     Davidson diagonalization with overlap
     ethr =  4.31E-08,  avg # of iterations =  1.0

     total cpu time spent up to now is        7.2 secs

     total energy              =     -66.87574485 Ry
     estimated scf accuracy    <       0.00000297 Ry

     total magnetization       =     0.00 Bohr mag/cell
     absolute magnetization    =     0.00 Bohr mag/cell

     iteration #  6     ecut=    40.00 Ry     beta= 0.50
     Davidson diagonalization with overlap
     ethr =  2.70E-08,  avg # of iterations =  1.4

     total cpu time spent up to now is        7.4 secs

     total energy              =     -66.87574527 Ry
     estimated scf accuracy    <       0.00000006 Ry

     total magnetization       =     0.00 Bohr mag/cell
     absolute magnetization    =     0.00 Bohr mag/cell

     iteration #  7     ecut=    40.00 Ry     beta= 0.50
     Davidson diagonalization with overlap
     ethr =  5.57E-10,  avg # of iterations =  1.1

     total cpu time spent up to now is        8.1 secs

     total energy              =     -66.87574526 Ry
     estimated scf accuracy    <       0.00000003 Ry

     total magnetization       =    -0.00 Bohr mag/cell
     absolute magnetization    =     0.00 Bohr mag/cell

     iteration #  8     ecut=    40.00 Ry     beta= 0.50
     Davidson diagonalization with overlap
     ethr =  3.07E-10,  avg # of iterations =  2.0

     Magnetic moment per site  (integrated on atomic sphere of radius R)
     atom   1 (R=0.413)  charge=  9.2509  magn=  0.0000

     total cpu time spent up to now is        8.4 secs

     End of self-consistent calculation

 ------ SPIN UP ------------


          k = 0.0000 0.0000 0.0000 (   459 PWs)   bands (ev):

     5.9224  11.3495  11.3495  11.3495  12.9402  12.9402  32.5871  36.2154
    36.2154  36.2154

          k = 0.0776 0.0776-0.0776 (   471 PWs)   bands (ev):

     6.3608  11.2192  11.4932  11.4932  12.8870  12.8870  32.6941  33.6324
    36.5015  36.5015

          k = 0.1552 0.1552-0.1552 (   477 PWs)   bands (ev):

     7.4854  11.1180  11.6574  11.6574  13.0084  13.0084  28.7519  33.5185
    36.7402  36.7402

          k = 0.2328 0.2328-0.2328 (   468 PWs)   bands (ev):

     8.4194  11.5071  11.5071  12.0681  13.5938  13.5938  24.1715  32.5731
    35.6706  35.6706

          k = 0.3105 0.3105-0.3105 (   470 PWs)   bands (ev):

     8.5870  11.3317  11.3317  14.1297  14.1297  14.4064  20.1710  31.7757
    34.4614  34.4614

          k = 0.1552 0.0000 0.0000 (   479 PWs)   bands (ev):

     6.5094  11.0542  11.6216  11.6216  12.6263  13.0734  33.1430  34.3923
    35.1741  35.1741

          k = 0.2328 0.0776-0.0776 (   470 PWs)   bands (ev):

     7.4346  10.7929  11.7941  11.8849  12.5819  13.2579  30.5128  33.6601
    34.2154  36.4658

          k = 0.3105 0.1552-0.1552 (   461 PWs)   bands (ev):

     8.5581  11.0191  11.4690  11.8557  13.5097  13.7468  25.8754  33.0232
    33.3663  35.2285

          k = 0.3881 0.2328-0.2328 (   458 PWs)   bands (ev):

     8.8952  11.1722  11.6555  12.2639  14.1956  15.2332  21.4802  31.9557
    32.9536  33.5402

          k =-0.2328-0.3881 0.3881 (   459 PWs)   bands (ev):

     8.9136  11.1129  11.5551  12.9358  14.1030  16.6280  19.4167  31.2366
    32.7621  33.6612

          k =-0.1552-0.3105 0.3105 (   459 PWs)   bands (ev):

     8.8883  11.2789  11.6535  12.0241  13.4565  14.9417  22.9319  31.1599
    33.2846  35.7115

          k =-0.0776-0.2328 0.2328 (   464 PWs)   bands (ev):

     8.2530  10.9216  11.6230  11.8767  12.6918  13.8472  27.4061  31.6782
    34.9169  37.7131

          k =-0.0000-0.1552 0.1552 (   473 PWs)   bands (ev):

     7.0502  10.9874  11.6912  11.7184  12.5898  13.1670  31.4590  32.5525
    35.4337  38.1594

          k = 0.3105 0.0000 0.0000 (   464 PWs)   bands (ev):

     8.0347  10.3666  12.0729  12.3952  12.3952  13.4212  32.2441  32.2441
    33.1005  34.3853

          k = 0.3881 0.0776-0.0776 (   457 PWs)   bands (ev):

     8.9489  10.1331  11.7107  12.6249  13.5511  13.8209  27.8615  30.9157
    31.8207  33.9176

          k = 0.4657 0.1552-0.1552 (   455 PWs)   bands (ev):

     9.3970  10.4998  11.5000  12.4565  14.2633  15.7177  23.2589  29.6596
    30.5051  33.7224

          k =-0.1552-0.4657 0.4657 (   461 PWs)   bands (ev):

     9.5441  10.7125  11.7980  12.2610  14.1407  18.7167  19.4746  27.9337
    31.3748  33.4310

          k =-0.0776-0.3881 0.3881 (   456 PWs)   bands (ev):

     9.7465  10.8601  11.4935  12.2018  13.4548  16.8013  22.4535  27.0515
    33.4846  33.5396

          k = 0.0000-0.3105 0.3105 (   463 PWs)   bands (ev):

     9.4363  10.7054  11.3053  12.2671  12.6656  15.1482  25.9290  27.9389
    34.2203  36.2941

          k = 0.4657 0.0000 0.0000 (   452 PWs)   bands (ev):

     9.0638   9.6678  13.0447  13.4877  13.4877  13.8365  28.3852  29.0380
    29.0380  32.9977

          k = 0.5433 0.0776-0.0776 (   460 PWs)   bands (ev):

     9.1988   9.5864  12.9066  13.4874  14.2985  15.7821  24.6452  27.1757
    28.2399  34.0133

          k =-0.0776-0.5433 0.5433 (   460 PWs)   bands (ev):

     9.4222  10.0185  12.3372  13.2157  14.2561  18.9897  21.2719  25.0471
    28.9216  34.2409

          k = 0.0000-0.4657 0.4657 (   456 PWs)   bands (ev):

     9.8056  10.6414  11.5523  12.8254  13.7538  18.6567  22.7464  23.4355
    30.8995  33.9566

          k = 0.6209 0.0000 0.0000 (   452 PWs)   bands (ev):

     8.9024   9.2495  14.1202  14.4080  14.4080  16.1924  23.1363  26.9250
    26.9250  33.3184

          k = 0.0000-0.6209 0.6209 (   460 PWs)   bands (ev):

     9.0327   9.3746  13.7139  13.9310  14.4586  18.2804  21.6331  25.4988
    27.1882  34.2029

          k = 0.3105 0.1552-0.0000 (   466 PWs)   bands (ev):

     8.4599  10.5052  11.5585  12.4009  12.6097  13.8799  28.7846  30.5092
    34.2448  36.1623

          k = 0.3881 0.2328-0.0776 (   460 PWs)   bands (ev):

     9.3788  10.7829  11.1168  12.3201  13.4022  15.1342  24.7371  29.3106
    32.2477  35.8919

          k =-0.2328-0.3881 0.5433 (   458 PWs)   bands (ev):

     9.4713  10.7990  11.7794  12.1332  14.0193  17.2299  20.6527  29.3079
    30.6995  34.8249

          k = 0.4657 0.1552 0.0000 (   464 PWs)   bands (ev):

     9.4988   9.9304  11.6603  13.4229  13.4784  15.2096  26.0469  27.8442
    29.6764  35.7992

          k =-0.1552-0.4657 0.6209 (   463 PWs)   bands (ev):

     9.7459  10.2617  11.4640  13.0456  14.1270  17.5749  22.5415  26.6750
    28.3028  36.0000

          k =-0.0776-0.3881 0.5433 (   461 PWs)   bands (ev):

    10.0314  10.4895  11.3335  12.7023  14.0438  19.1786  20.9595  25.4620
    28.9390  36.0407

          k = 0.0000-0.3105 0.4657 (   462 PWs)   bands (ev):

    10.3447  10.6258  10.6561  12.7688  13.4991  16.9289  24.0505  25.3857
    30.5663  36.5880

          k =-0.0776-0.5433 0.6985 (   463 PWs)   bands (ev):

     9.2929   9.5746  12.7984  13.7480  14.4062  17.9380  22.6762  25.9343
    26.5543  35.6997

          k =-0.0000-0.4657 0.6209 (   456 PWs)   bands (ev):

     9.6206  10.0576  12.0464  13.1920  14.3986  20.7235  20.7634  23.9745
    27.1810  36.3604

          k =-0.0776-0.3881 0.6985 (   459 PWs)   bands (ev):

    10.0356  10.5332  11.0914  12.8988  14.4011  19.7719  22.6935  23.5825
    26.5329  39.2167

 ------ SPIN DOWN ----------


          k = 0.0000 0.0000 0.0000 (   459 PWs)   bands (ev):

     5.9224  11.3495  11.3495  11.3495  12.9402  12.9402  32.5871  36.2154
    36.2154  36.2154

          k = 0.0776 0.0776-0.0776 (   471 PWs)   bands (ev):

     6.3608  11.2192  11.4932  11.4932  12.8870  12.8870  32.6941  33.6324
    36.5015  36.5015

          k = 0.1552 0.1552-0.1552 (   477 PWs)   bands (ev):

     7.4854  11.1180  11.6574  11.6574  13.0084  13.0084  28.7519  33.5185
    36.7402  36.7402

          k = 0.2328 0.2328-0.2328 (   468 PWs)   bands (ev):

     8.4194  11.5071  11.5071  12.0681  13.5938  13.5938  24.1715  32.5731
    35.6706  35.6706

          k = 0.3105 0.3105-0.3105 (   470 PWs)   bands (ev):

     8.5870  11.3317  11.3317  14.1297  14.1297  14.4064  20.1710  31.7757
    34.4614  34.4614

          k = 0.1552 0.0000 0.0000 (   479 PWs)   bands (ev):

     6.5094  11.0542  11.6216  11.6216  12.6263  13.0734  33.1430  34.3923
    35.1741  35.1741

          k = 0.2328 0.0776-0.0776 (   470 PWs)   bands (ev):

     7.4346  10.7929  11.7941  11.8849  12.5819  13.2579  30.5128  33.6601
    34.2154  36.4658

          k = 0.3105 0.1552-0.1552 (   461 PWs)   bands (ev):

     8.5581  11.0191  11.4690  11.8557  13.5097  13.7468  25.8754  33.0232
    33.3663  35.2285

          k = 0.3881 0.2328-0.2328 (   458 PWs)   bands (ev):

     8.8952  11.1722  11.6555  12.2639  14.1956  15.2332  21.4802  31.9557
    32.9536  33.5402

          k =-0.2328-0.3881 0.3881 (   459 PWs)   bands (ev):

     8.9136  11.1129  11.5551  12.9358  14.1030  16.6280  19.4167  31.2366
    32.7621  33.6612

          k =-0.1552-0.3105 0.3105 (   459 PWs)   bands (ev):

     8.8883  11.2789  11.6535  12.0241  13.4565  14.9417  22.9319  31.1599
    33.2846  35.7115

          k =-0.0776-0.2328 0.2328 (   464 PWs)   bands (ev):

     8.2530  10.9216  11.6230  11.8767  12.6918  13.8472  27.4061  31.6782
    34.9169  37.7131

          k =-0.0000-0.1552 0.1552 (   473 PWs)   bands (ev):

     7.0502  10.9874  11.6912  11.7184  12.5898  13.1670  31.4590  32.5525
    35.4337  38.1593

          k = 0.3105 0.0000 0.0000 (   464 PWs)   bands (ev):

     8.0347  10.3666  12.0729  12.3952  12.3952  13.4212  32.2441  32.2441
    33.1005  34.3853

          k = 0.3881 0.0776-0.0776 (   457 PWs)   bands (ev):

     8.9489  10.1331  11.7107  12.6249  13.5511  13.8209  27.8615  30.9157
    31.8207  33.9176

          k = 0.4657 0.1552-0.1552 (   455 PWs)   bands (ev):

     9.3970  10.4998  11.5000  12.4565  14.2633  15.7177  23.2589  29.6596
    30.5051  33.7224

          k =-0.1552-0.4657 0.4657 (   461 PWs)   bands (ev):

     9.5441  10.7125  11.7980  12.2610  14.1407  18.7167  19.4746  27.9337
    31.3748  33.4310

          k =-0.0776-0.3881 0.3881 (   456 PWs)   bands (ev):

     9.7465  10.8601  11.4935  12.2018  13.4548  16.8013  22.4535  27.0515
    33.4846  33.5396

          k = 0.0000-0.3105 0.3105 (   463 PWs)   bands (ev):

     9.4363  10.7054  11.3053  12.2671  12.6656  15.1482  25.9290  27.9389
    34.2203  36.2941

          k = 0.4657 0.0000 0.0000 (   452 PWs)   bands (ev):

     9.0638   9.6678  13.0447  13.4877  13.4877  13.8365  28.3852  29.0380
    29.0380  32.9977

          k = 0.5433 0.0776-0.0776 (   460 PWs)   bands (ev):

     9.1988   9.5864  12.9066  13.4874  14.2985  15.7821  24.6452  27.1757
    28.2399  34.0133

          k =-0.0776-0.5433 0.5433 (   460 PWs)   bands (ev):

     9.4222  10.0185  12.3372  13.2157  14.2561  18.9897  21.2719  25.0471
    28.9216  34.2409

          k = 0.0000-0.4657 0.4657 (   456 PWs)   bands (ev):

     9.8056  10.6414  11.5523  12.8254  13.7538  18.6567  22.7464  23.4355
    30.8995  33.9566

          k = 0.6209 0.0000 0.0000 (   452 PWs)   bands (ev):

     8.9024   9.2495  14.1202  14.4080  14.4080  16.1924  23.1363  26.9250
    26.9250  33.3184

          k = 0.0000-0.6209 0.6209 (   460 PWs)   bands (ev):

     9.0327   9.3746  13.7139  13.9310  14.4586  18.2804  21.6331  25.4988
    27.1882  34.2029

          k = 0.3105 0.1552-0.0000 (   466 PWs)   bands (ev):

     8.4599  10.5052  11.5585  12.4009  12.6097  13.8799  28.7846  30.5092
    34.2448  36.1623

          k = 0.3881 0.2328-0.0776 (   460 PWs)   bands (ev):

     9.3788  10.7829  11.1168  12.3201  13.4022  15.1342  24.7371  29.3106
    32.2477  35.8919

          k =-0.2328-0.3881 0.5433 (   458 PWs)   bands (ev):

     9.4713  10.7990  11.7794  12.1332  14.0193  17.2299  20.6527  29.3079
    30.6995  34.8249

          k = 0.4657 0.1552 0.0000 (   464 PWs)   bands (ev):

     9.4988   9.9304  11.6603  13.4229  13.4784  15.2096  26.0469  27.8442
    29.6764  35.7992

          k =-0.1552-0.4657 0.6209 (   463 PWs)   bands (ev):

     9.7459  10.2617  11.4640  13.0456  14.1270  17.5749  22.5415  26.6750
    28.3028  36.0000

          k =-0.0776-0.3881 0.5433 (   461 PWs)   bands (ev):

    10.0314  10.4895  11.3335  12.7023  14.0438  19.1786  20.9595  25.4620
    28.9390  36.0407

          k = 0.0000-0.3105 0.4657 (   462 PWs)   bands (ev):

    10.3447  10.6258  10.6561  12.7688  13.4991  16.9289  24.0505  25.3857
    30.5663  36.5880

          k =-0.0776-0.5433 0.6985 (   463 PWs)   bands (ev):

     9.2929   9.5746  12.7984  13.7480  14.4062  17.9380  22.6762  25.9343
    26.5543  35.6997

          k =-0.0000-0.4657 0.6209 (   456 PWs)   bands (ev):

     9.6206  10.0576  12.0464  13.1920  14.3986  20.7235  20.7634  23.9745
    27.1810  36.3604

          k =-0.0776-0.3881 0.6985 (   459 PWs)   bands (ev):

    10.0356  10.5332  11.0914  12.8988  14.4011  19.7719  22.6935  23.5825
    26.5329  39.2167

     the Fermi energy is    16.0285 ev

!    total energy              =     -66.87574526 Ry
     estimated scf accuracy    <          2.9E-10 Ry
     smearing contrib. (-TS)   =       0.00013935 Ry
     internal energy E=F+TS    =     -66.87588461 Ry

     The total energy is F=E-TS. E is the sum of the following terms:
     one-electron contribution =       8.93418413 Ry
     hartree contribution      =       7.15418488 Ry
     xc contribution           =     -10.46257231 Ry
     ewald contribution        =     -72.50168131 Ry

     total magnetization       =     0.00 Bohr mag/cell
     absolute magnetization    =     0.00 Bohr mag/cell

     convergence has been achieved in   8 iterations

     Forces acting on atoms (cartesian axes, Ry/au):

     atom    1 type  1   force =     0.00000000    0.00000000    0.00000000
     The non-local contrib.  to forces
     atom    1 type  1   force =     0.00000000    0.00000000    0.00000000
     The ionic contribution  to forces
     atom    1 type  1   force =    -0.00000000   -0.00000000   -0.00000000
     The local contribution  to forces
     atom    1 type  1   force =     0.00000000    0.00000000    0.00000000
     The core correction contribution to forces
     atom    1 type  1   force =     0.00000000    0.00000000    0.00000000
     The Hubbard contrib.    to forces
     atom    1 type  1   force =     0.00000000    0.00000000    0.00000000
     The SCF correction term to forces
     atom    1 type  1   force =     0.00000000    0.00000000    0.00000000

     Total force =     0.000000     Total SCF correction =     0.000000


     Computing stress (Cartesian axis) and pressure

          total   stress  (Ry/bohr**3)                   (kbar)     P=       -2.24
  -0.00001525  -0.00000000  -0.00000000           -2.24       -0.00       -0.00
  -0.00000000  -0.00001525  -0.00000000           -0.00       -2.24       -0.00
  -0.00000000  -0.00000000  -0.00001525           -0.00       -0.00       -2.24

     Energy error            =      7.2E-06 Ry
     Gradient error          =      0.0E+00 Ry/Bohr
     Cell gradient error     =      2.2E+00 kbar

     number of scf cycles    =   3
     number of bfgs steps    =   2

     enthalpy           old  =     -66.8757380200 Ry
     enthalpy           new  =     -66.8757452625 Ry

     CASE: enthalpy          _new < enthalpy          _old

     new trust radius        =       0.0015482966 bohr
     new conv_thr            =       0.0000000010 Ry

     new unit-cell volume =    111.75766 a.u.^3 (    16.56078 Ang^3 )
     density =     19.74972 g/cm^3

CELL_PARAMETERS (angstrom)
   0.000000000   2.023097933   2.023097933
   2.023097933   0.000000000   2.023097933
   2.023097933   2.023097933   0.000000000

ATOMIC_POSITIONS (angstrom)
Au            0.0000000000        0.0000000000        0.0000000000



     Writing config-only to output data dir /home/gridsan/epan1/labutil/lab3_samples/problem3/Lab3/Au_a_4.0_ecut_40_nk_9/pwscf.save/
     NEW-OLD atomic charge density approx. for the potential
     extrapolated charge   10.97583, renormalised to   11.00000
     Generating pointlists ...

     total cpu time spent up to now is        8.7 secs

     Self-consistent Calculation

     iteration #  1     ecut=    40.00 Ry     beta= 0.50
     Davidson diagonalization with overlap
     ethr =  1.00E-06,  avg # of iterations =  2.0
     Minimization algorithm failed to find Fermi energy: reverting to bisection
     Possible cause: smearing is larger than the electronic band-gap.

     total cpu time spent up to now is        9.1 secs

     total energy              =     -66.87564905 Ry
     estimated scf accuracy    <       0.00008525 Ry

     total magnetization       =    -0.00 Bohr mag/cell
     absolute magnetization    =     0.00 Bohr mag/cell

     iteration #  2     ecut=    40.00 Ry     beta= 0.50
     Davidson diagonalization with overlap
     ethr =  7.75E-07,  avg # of iterations =  2.0

     total cpu time spent up to now is        9.4 secs

     total energy              =     -66.87574700 Ry
     estimated scf accuracy    <       0.00009615 Ry

     total magnetization       =    -0.00 Bohr mag/cell
     absolute magnetization    =     0.00 Bohr mag/cell

     iteration #  3     ecut=    40.00 Ry     beta= 0.50
     Davidson diagonalization with overlap
     ethr =  7.75E-07,  avg # of iterations =  1.0

     total cpu time spent up to now is        9.7 secs

     total energy              =     -66.87574631 Ry
     estimated scf accuracy    <       0.00002005 Ry

     total magnetization       =    -0.00 Bohr mag/cell
     absolute magnetization    =     0.00 Bohr mag/cell

     iteration #  4     ecut=    40.00 Ry     beta= 0.50
     Davidson diagonalization with overlap
     ethr =  1.82E-07,  avg # of iterations =  1.0

     total cpu time spent up to now is        9.9 secs

     total energy              =     -66.87574663 Ry
     estimated scf accuracy    <       0.00000502 Ry

     total magnetization       =    -0.00 Bohr mag/cell
     absolute magnetization    =     0.00 Bohr mag/cell

     iteration #  5     ecut=    40.00 Ry     beta= 0.50
     Davidson diagonalization with overlap
     ethr =  4.56E-08,  avg # of iterations =  1.0

     total cpu time spent up to now is       10.2 secs

     total energy              =     -66.87574525 Ry
     estimated scf accuracy    <       0.00000316 Ry

     total magnetization       =    -0.00 Bohr mag/cell
     absolute magnetization    =     0.00 Bohr mag/cell

     iteration #  6     ecut=    40.00 Ry     beta= 0.50
     Davidson diagonalization with overlap
     ethr =  2.87E-08,  avg # of iterations =  1.1

     total cpu time spent up to now is       10.5 secs

     total energy              =     -66.87574557 Ry
     estimated scf accuracy    <       0.00000016 Ry

     total magnetization       =     0.00 Bohr mag/cell
     absolute magnetization    =     0.00 Bohr mag/cell

     iteration #  7     ecut=    40.00 Ry     beta= 0.50
     Davidson diagonalization with overlap
     ethr =  1.42E-09,  avg # of iterations =  1.2

     total cpu time spent up to now is       10.8 secs

     total energy              =     -66.87574557 Ry
     estimated scf accuracy    <       0.00000002 Ry

     total magnetization       =     0.00 Bohr mag/cell
     absolute magnetization    =     0.00 Bohr mag/cell

     iteration #  8     ecut=    40.00 Ry     beta= 0.50
     Davidson diagonalization with overlap
     ethr =  2.01E-10,  avg # of iterations =  1.7

     Magnetic moment per site  (integrated on atomic sphere of radius R)
     atom   1 (R=0.413)  charge=  9.2536  magn=  0.0000

     total cpu time spent up to now is       11.1 secs

     End of self-consistent calculation

 ------ SPIN UP ------------


          k = 0.0000 0.0000 0.0000 (   459 PWs)   bands (ev):

     5.9505  11.3890  11.3890  11.3890  12.9859  12.9859  32.6439  36.2860
    36.2860  36.2860

          k = 0.0777 0.0777-0.0777 (   471 PWs)   bands (ev):

     6.3897  11.2582  11.5333  11.5333  12.9324  12.9324  32.7576  33.6967
    36.5748  36.5748

          k = 0.1553 0.1553-0.1553 (   477 PWs)   bands (ev):

     7.5162  11.1562  11.6980  11.6980  13.0541  13.0541  28.8208  33.5794
    36.8201  36.8201

          k = 0.2330 0.2330-0.2330 (   468 PWs)   bands (ev):

     8.4509  11.5470  11.5470  12.1082  13.6417  13.6417  24.2374  32.6316
    35.7502  35.7502

          k = 0.3107 0.3107-0.3107 (   470 PWs)   bands (ev):

     8.6182  11.3710  11.3710  14.1798  14.1798  14.4488  20.2344  31.8318
    34.5368  34.5368

          k = 0.1553 0.0000 0.0000 (   479 PWs)   bands (ev):

     6.5386  11.0926  11.6621  11.6621  12.6705  13.1196  33.2033  34.4595
    35.2481  35.2481

          k = 0.2330 0.0777-0.0777 (   470 PWs)   bands (ev):

     7.4655  10.8302  11.8351  11.9263  12.6258  13.3047  30.5827  33.7243
    34.2912  36.5359

          k = 0.3107 0.1553-0.1553 (   461 PWs)   bands (ev):

     8.5904  11.0568  11.5087  11.8969  13.5566  13.7954  25.9426  33.0853
    33.4420  35.3083

          k = 0.3884 0.2330-0.2330 (   458 PWs)   bands (ev):

     8.9273  11.2108  11.6959  12.3051  14.2461  15.2834  21.5434  32.0170
    33.0277  33.6153

          k =-0.2330-0.3884 0.3884 (   459 PWs)   bands (ev):

     8.9456  11.1512  11.5952  12.9790  14.1530  16.6780  19.4799  31.3023
    32.8289  33.7361

          k =-0.1553-0.3107 0.3107 (   459 PWs)   bands (ev):

     8.9206  11.3179  11.6940  12.0642  13.5039  14.9931  22.9965  31.2293
    33.3491  35.7911

          k =-0.0777-0.2330 0.2330 (   464 PWs)   bands (ev):

     8.2852  10.9591  11.6632  11.9180  12.7362  13.8960  27.4744  31.7495
    34.9842  37.7831

          k =-0.0000-0.1553 0.1553 (   473 PWs)   bands (ev):

     7.0804  11.0254  11.7319  11.7592  12.6339  13.2134  31.5275  32.6214
    35.5014  38.2344

          k = 0.3107 0.0000 0.0000 (   464 PWs)   bands (ev):

     8.0666  10.4024  12.1147  12.4384  12.4384  13.4687  32.3173  32.3173
    33.1684  34.4539

          k = 0.3884 0.0777-0.0777 (   457 PWs)   bands (ev):

     8.9818  10.1680  11.7511  12.6689  13.5980  13.8699  27.9306  30.9869
    31.8937  33.9913

          k = 0.4660 0.1553-0.1553 (   455 PWs)   bands (ev):

     9.4301  10.5356  11.5395  12.4999  14.3140  15.7699  23.3222  29.7310
    30.5752  33.7935

          k =-0.1553-0.4660 0.4660 (   461 PWs)   bands (ev):

     9.5776  10.7490  11.8381  12.3037  14.1908  18.7728  19.5347  28.0033
    31.4467  33.4988

          k =-0.0777-0.3884 0.3884 (   456 PWs)   bands (ev):

     9.7807  10.8972  11.5324  12.2442  13.5021  16.8566  22.5169  27.1200
    33.5613  33.6054

          k = 0.0000-0.3107 0.3107 (   463 PWs)   bands (ev):

     9.4706  10.7422  11.3440  12.3098  12.7099  15.2009  25.9955  28.0096
    34.2858  36.3763

          k = 0.4660 0.0000 0.0000 (   452 PWs)   bands (ev):

     9.0959   9.7011  13.0879  13.5350  13.5350  13.8856  28.4600  29.1053
    29.1053  33.0688

          k = 0.5437 0.0777-0.0777 (   460 PWs)   bands (ev):

     9.2307   9.6194  12.9505  13.5348  14.3494  15.8333  24.7115  27.2434
    28.3052  34.0878

          k =-0.0777-0.5437 0.5437 (   460 PWs)   bands (ev):

     9.4547  10.0527  12.3793  13.2620  14.3067  19.0479  21.3311  25.1140
    28.9886  34.3152

          k = 0.0000-0.4660 0.4660 (   456 PWs)   bands (ev):

     9.8395  10.6774  11.5917  12.8701  13.8023  18.7144  22.8086  23.5010
    30.9713  34.0275

          k = 0.6214 0.0000 0.0000 (   452 PWs)   bands (ev):

     8.9332   9.2814  14.1704  14.4592  14.4592  16.2391  23.2056  26.9868
    26.9868  33.3928

          k = 0.0000-0.6214 0.6214 (   460 PWs)   bands (ev):

     9.0638   9.4070  13.7610  13.9803  14.5101  18.3317  21.7007  25.5609
    27.2508  34.2790

          k = 0.3107 0.1553 0.0000 (   466 PWs)   bands (ev):

     8.4925  10.5414  11.5985  12.4441  12.6536  13.9288  28.8537  30.5818
    34.3148  36.2309

          k = 0.3884 0.2330-0.0777 (   460 PWs)   bands (ev):

     9.4125  10.8199  11.1550  12.3629  13.4491  15.1864  24.8028  29.3815
    32.3170  35.9663

          k =-0.2330-0.3884 0.5437 (   458 PWs)   bands (ev):

     9.5047  10.8360  11.8194  12.1751  14.0689  17.2846  20.7140  29.3790
    30.7681  34.8945

          k = 0.4660 0.1553 0.0000 (   464 PWs)   bands (ev):

     9.5320   9.9646  11.7004  13.4696  13.5257  15.2616  26.1139  27.9120
    29.7468  35.8752

          k =-0.1553-0.4660 0.6214 (   463 PWs)   bands (ev):

     9.7795  10.2968  11.5034  13.0910  14.1770  17.6312  22.6032  26.7432
    28.3708  36.0739

          k =-0.0777-0.3884 0.5437 (   461 PWs)   bands (ev):

    10.0660  10.5252  11.3723  12.7465  14.0934  19.2379  21.0191  25.5289
    29.0080  36.1131

          k = 0.0000-0.3107 0.4660 (   462 PWs)   bands (ev):

    10.3807  10.6619  10.6927  12.8131  13.5466  16.9847  24.1153  25.4520
    30.6370  36.6613

          k =-0.0777-0.5437 0.6990 (   463 PWs)   bands (ev):

     9.3248   9.6076  12.8422  13.7963  14.4574  17.9924  22.7418  25.9969
    26.6193  35.7765

          k =-0.0000-0.4660 0.6214 (   456 PWs)   bands (ev):

     9.6535  10.0921  12.0875  13.2381  14.4498  20.7866  20.8210  24.0384
    27.2471  36.4368

          k =-0.0777-0.3884 0.6990 (   459 PWs)   bands (ev):

    10.0697  10.5694  11.1294  12.9437  14.4522  19.8323  22.7565  23.6442
    26.6000  39.2943

 ------ SPIN DOWN ----------


          k = 0.0000 0.0000 0.0000 (   459 PWs)   bands (ev):

     5.9505  11.3890  11.3890  11.3890  12.9859  12.9859  32.6439  36.2860
    36.2860  36.2860

          k = 0.0777 0.0777-0.0777 (   471 PWs)   bands (ev):

     6.3897  11.2582  11.5333  11.5333  12.9324  12.9324  32.7576  33.6967
    36.5748  36.5748

          k = 0.1553 0.1553-0.1553 (   477 PWs)   bands (ev):

     7.5162  11.1562  11.6980  11.6980  13.0541  13.0541  28.8208  33.5794
    36.8201  36.8201

          k = 0.2330 0.2330-0.2330 (   468 PWs)   bands (ev):

     8.4509  11.5470  11.5470  12.1082  13.6417  13.6417  24.2374  32.6316
    35.7502  35.7502

          k = 0.3107 0.3107-0.3107 (   470 PWs)   bands (ev):

     8.6182  11.3710  11.3710  14.1798  14.1798  14.4488  20.2344  31.8318
    34.5368  34.5368

          k = 0.1553 0.0000 0.0000 (   479 PWs)   bands (ev):

     6.5386  11.0926  11.6621  11.6621  12.6705  13.1196  33.2033  34.4595
    35.2481  35.2481

          k = 0.2330 0.0777-0.0777 (   470 PWs)   bands (ev):

     7.4655  10.8302  11.8351  11.9263  12.6258  13.3047  30.5827  33.7243
    34.2912  36.5359

          k = 0.3107 0.1553-0.1553 (   461 PWs)   bands (ev):

     8.5904  11.0568  11.5087  11.8969  13.5566  13.7954  25.9426  33.0853
    33.4420  35.3083

          k = 0.3884 0.2330-0.2330 (   458 PWs)   bands (ev):

     8.9273  11.2108  11.6959  12.3051  14.2461  15.2834  21.5434  32.0170
    33.0277  33.6153

          k =-0.2330-0.3884 0.3884 (   459 PWs)   bands (ev):

     8.9456  11.1512  11.5952  12.9790  14.1530  16.6780  19.4799  31.3023
    32.8289  33.7361

          k =-0.1553-0.3107 0.3107 (   459 PWs)   bands (ev):

     8.9206  11.3179  11.6940  12.0642  13.5039  14.9931  22.9965  31.2293
    33.3491  35.7911

          k =-0.0777-0.2330 0.2330 (   464 PWs)   bands (ev):

     8.2852  10.9591  11.6632  11.9180  12.7362  13.8960  27.4744  31.7495
    34.9842  37.7831

          k =-0.0000-0.1553 0.1553 (   473 PWs)   bands (ev):

     7.0804  11.0254  11.7319  11.7592  12.6339  13.2134  31.5275  32.6214
    35.5014  38.2344

          k = 0.3107 0.0000 0.0000 (   464 PWs)   bands (ev):

     8.0666  10.4024  12.1147  12.4384  12.4384  13.4687  32.3173  32.3173
    33.1684  34.4539

          k = 0.3884 0.0777-0.0777 (   457 PWs)   bands (ev):

     8.9818  10.1680  11.7511  12.6689  13.5980  13.8699  27.9306  30.9869
    31.8937  33.9913

          k = 0.4660 0.1553-0.1553 (   455 PWs)   bands (ev):

     9.4301  10.5356  11.5395  12.4999  14.3140  15.7699  23.3222  29.7310
    30.5752  33.7935

          k =-0.1553-0.4660 0.4660 (   461 PWs)   bands (ev):

     9.5776  10.7490  11.8381  12.3037  14.1908  18.7728  19.5347  28.0033
    31.4467  33.4988

          k =-0.0777-0.3884 0.3884 (   456 PWs)   bands (ev):

     9.7807  10.8972  11.5324  12.2442  13.5021  16.8566  22.5169  27.1200
    33.5613  33.6054

          k = 0.0000-0.3107 0.3107 (   463 PWs)   bands (ev):

     9.4706  10.7422  11.3440  12.3098  12.7099  15.2009  25.9955  28.0096
    34.2858  36.3763

          k = 0.4660 0.0000 0.0000 (   452 PWs)   bands (ev):

     9.0959   9.7011  13.0879  13.5350  13.5350  13.8856  28.4600  29.1053
    29.1053  33.0688

          k = 0.5437 0.0777-0.0777 (   460 PWs)   bands (ev):

     9.2307   9.6194  12.9505  13.5348  14.3494  15.8333  24.7115  27.2434
    28.3052  34.0878

          k =-0.0777-0.5437 0.5437 (   460 PWs)   bands (ev):

     9.4547  10.0527  12.3793  13.2620  14.3067  19.0479  21.3311  25.1140
    28.9886  34.3152

          k = 0.0000-0.4660 0.4660 (   456 PWs)   bands (ev):

     9.8395  10.6774  11.5917  12.8701  13.8023  18.7144  22.8086  23.5010
    30.9713  34.0275

          k = 0.6214 0.0000 0.0000 (   452 PWs)   bands (ev):

     8.9332   9.2814  14.1704  14.4592  14.4592  16.2391  23.2056  26.9868
    26.9868  33.3928

          k = 0.0000-0.6214 0.6214 (   460 PWs)   bands (ev):

     9.0638   9.4070  13.7610  13.9803  14.5101  18.3317  21.7007  25.5609
    27.2508  34.2790

          k = 0.3107 0.1553 0.0000 (   466 PWs)   bands (ev):

     8.4925  10.5414  11.5985  12.4441  12.6536  13.9288  28.8537  30.5818
    34.3148  36.2309

          k = 0.3884 0.2330-0.0777 (   460 PWs)   bands (ev):

     9.4125  10.8199  11.1550  12.3629  13.4491  15.1864  24.8028  29.3815
    32.3170  35.9663

          k =-0.2330-0.3884 0.5437 (   458 PWs)   bands (ev):

     9.5047  10.8360  11.8194  12.1751  14.0689  17.2846  20.7140  29.3790
    30.7681  34.8945

          k = 0.4660 0.1553 0.0000 (   464 PWs)   bands (ev):

     9.5320   9.9646  11.7004  13.4696  13.5257  15.2616  26.1139  27.9120
    29.7468  35.8752

          k =-0.1553-0.4660 0.6214 (   463 PWs)   bands (ev):

     9.7795  10.2968  11.5034  13.0910  14.1770  17.6312  22.6032  26.7432
    28.3708  36.0739

          k =-0.0777-0.3884 0.5437 (   461 PWs)   bands (ev):

    10.0660  10.5252  11.3723  12.7465  14.0934  19.2379  21.0191  25.5289
    29.0080  36.1131

          k = 0.0000-0.3107 0.4660 (   462 PWs)   bands (ev):

    10.3807  10.6619  10.6927  12.8131  13.5466  16.9847  24.1153  25.4520
    30.6370  36.6613

          k =-0.0777-0.5437 0.6990 (   463 PWs)   bands (ev):

     9.3248   9.6076  12.8422  13.7963  14.4574  17.9924  22.7418  25.9969
    26.6193  35.7765

          k =-0.0000-0.4660 0.6214 (   456 PWs)   bands (ev):

     9.6535  10.0921  12.0875  13.2381  14.4498  20.7866  20.8210  24.0384
    27.2471  36.4368

          k =-0.0777-0.3884 0.6990 (   459 PWs)   bands (ev):

    10.0697  10.5694  11.1294  12.9437  14.4522  19.8323  22.7565  23.6442
    26.6000  39.2943

     the Fermi energy is    16.0782 ev

!    total energy              =     -66.87574557 Ry
     estimated scf accuracy    <          3.4E-10 Ry
     smearing contrib. (-TS)   =       0.00013663 Ry
     internal energy E=F+TS    =     -66.87588220 Ry

     The total energy is F=E-TS. E is the sum of the following terms:
     one-electron contribution =       9.00846448 Ry
     hartree contribution      =       7.13487889 Ry
     xc contribution           =     -10.46447114 Ry
     ewald contribution        =     -72.55475443 Ry

     total magnetization       =     0.00 Bohr mag/cell
     absolute magnetization    =     0.00 Bohr mag/cell

     convergence has been achieved in   8 iterations

     Forces acting on atoms (cartesian axes, Ry/au):

     atom    1 type  1   force =     0.00000000    0.00000000    0.00000000
     The non-local contrib.  to forces
     atom    1 type  1   force =     0.00000000   -0.00000000   -0.00000000
     The ionic contribution  to forces
     atom    1 type  1   force =    -0.00000000   -0.00000000   -0.00000000
     The local contribution  to forces
     atom    1 type  1   force =     0.00000000    0.00000000    0.00000000
     The core correction contribution to forces
     atom    1 type  1   force =     0.00000000    0.00000000    0.00000000
     The Hubbard contrib.    to forces
     atom    1 type  1   force =     0.00000000    0.00000000    0.00000000
     The SCF correction term to forces
     atom    1 type  1   force =     0.00000000    0.00000000    0.00000000

     Total force =     0.000000     Total SCF correction =     0.000000


     Computing stress (Cartesian axis) and pressure

          total   stress  (Ry/bohr**3)                   (kbar)     P=        1.80
   0.00001225   0.00000000   0.00000000            1.80        0.00        0.00
   0.00000000   0.00001225  -0.00000000            0.00        1.80       -0.00
  -0.00000000  -0.00000000   0.00001225           -0.00       -0.00        1.80

     Energy error            =      3.1E-07 Ry
     Gradient error          =      0.0E+00 Ry/Bohr
     Cell gradient error     =      1.8E+00 kbar

     number of scf cycles    =   4
     number of bfgs steps    =   3

     enthalpy           old  =     -66.8757452625 Ry
     enthalpy           new  =     -66.8757455749 Ry

     CASE: enthalpy          _new < enthalpy          _old

     new trust radius        =       0.0006887457 bohr
     new conv_thr            =       0.0000000010 Ry

     new unit-cell volume =    111.86692 a.u.^3 (    16.57697 Ang^3 )
     density =     19.73043 g/cm^3

CELL_PARAMETERS (angstrom)
   0.000000000   2.023756966   2.023756966
   2.023756966   0.000000000   2.023756966
   2.023756966   2.023756966   0.000000000

ATOMIC_POSITIONS (angstrom)
Au            0.0000000000        0.0000000000        0.0000000000



     Writing config-only to output data dir /home/gridsan/epan1/labutil/lab3_samples/problem3/Lab3/Au_a_4.0_ecut_40_nk_9/pwscf.save/
     NEW-OLD atomic charge density approx. for the potential
     extrapolated charge   11.01074, renormalised to   11.00000
     Generating pointlists ...

     total cpu time spent up to now is       11.4 secs

     Self-consistent Calculation

     iteration #  1     ecut=    40.00 Ry     beta= 0.50
     Davidson diagonalization with overlap
     ethr =  1.00E-06,  avg # of iterations =  2.0

     total cpu time spent up to now is       11.8 secs

     total energy              =     -66.87572722 Ry
     estimated scf accuracy    <       0.00001675 Ry

     total magnetization       =     0.00 Bohr mag/cell
     absolute magnetization    =     0.00 Bohr mag/cell

     iteration #  2     ecut=    40.00 Ry     beta= 0.50
[...]
        k(   26) = (   0.3105805   0.1552902   0.0000000), wk =   0.0329218
        k(   27) = (   0.3882256   0.2329353  -0.0776451), wk =   0.0658436
        k(   28) = (  -0.2329353  -0.3882256   0.5435158), wk =   0.0658436
        k(   29) = (   0.4658707   0.1552902   0.0000000), wk =   0.0329218
        k(   30) = (  -0.1552902  -0.4658707   0.6211609), wk =   0.0658436
        k(   31) = (  -0.0776451  -0.3882256   0.5435158), wk =   0.0658436
        k(   32) = (   0.0000000  -0.3105805   0.4658707), wk =   0.0329218
        k(   33) = (  -0.0776451  -0.5435158   0.6988060), wk =   0.0329218
        k(   34) = (  -0.0000000  -0.4658707   0.6211609), wk =   0.0329218
        k(   35) = (  -0.0776451  -0.3882256   0.6988060), wk =   0.0329218

     Dense  grid:    10849 G-vectors     FFT dimensions: (  32,  32,  32)

     Smooth grid:     3839 G-vectors     FFT dimensions: (  24,  24,  24)

     Estimated max dynamical RAM per process >       5.42 MB

     Estimated total dynamical RAM >      43.40 MB
     Generating pointlists ...

     Initial potential from superposition of free atoms

     starting charge      10.9999, renormalised to      11.0000
     Starting wfcs are    9 randomized atomic wfcs +    1 random wfcs

     total cpu time spent up to now is       18.2 secs

     Self-consistent Calculation

     iteration #  1     ecut=    40.00 Ry     beta= 0.50
     Davidson diagonalization with overlap
     c_bands:  1 eigenvalues not converged
     c_bands:  1 eigenvalues not converged
     ethr =  1.00E-06,  avg # of iterations = 11.9

     total cpu time spent up to now is       19.0 secs

     total energy              =     -66.85666227 Ry
     estimated scf accuracy    <       0.07865420 Ry

     total magnetization       =     0.00 Bohr mag/cell
     absolute magnetization    =     0.00 Bohr mag/cell

     iteration #  2     ecut=    40.00 Ry     beta= 0.50
     Davidson diagonalization with overlap
     ethr =  7.15E-04,  avg # of iterations =  2.0

     total cpu time spent up to now is       19.3 secs

     total energy              =     -66.87542949 Ry
     estimated scf accuracy    <       0.00213672 Ry

     total magnetization       =     0.00 Bohr mag/cell
     absolute magnetization    =     0.00 Bohr mag/cell

     iteration #  3     ecut=    40.00 Ry     beta= 0.50
     Davidson diagonalization with overlap
     ethr =  1.94E-05,  avg # of iterations =  1.5

     total cpu time spent up to now is       19.6 secs

     total energy              =     -66.87577323 Ry
     estimated scf accuracy    <       0.00011747 Ry

     total magnetization       =     0.00 Bohr mag/cell
     absolute magnetization    =     0.00 Bohr mag/cell

     iteration #  4     ecut=    40.00 Ry     beta= 0.50
     Davidson diagonalization with overlap
     ethr =  1.07E-06,  avg # of iterations =  1.4

     total cpu time spent up to now is       19.9 secs

     total energy              =     -66.87577509 Ry
     estimated scf accuracy    <       0.00000349 Ry

     total magnetization       =     0.00 Bohr mag/cell
     absolute magnetization    =     0.00 Bohr mag/cell

     iteration #  5     ecut=    40.00 Ry     beta= 0.50
     Davidson diagonalization with overlap
     ethr =  3.17E-08,  avg # of iterations =  1.2

     total cpu time spent up to now is       20.1 secs

     total energy              =     -66.87577563 Ry
     estimated scf accuracy    <       0.00000006 Ry

     total magnetization       =    -0.00 Bohr mag/cell
     absolute magnetization    =     0.00 Bohr mag/cell

     iteration #  6     ecut=    40.00 Ry     beta= 0.50
     Davidson diagonalization with overlap
     ethr =  5.15E-10,  avg # of iterations =  1.6

     total cpu time spent up to now is       20.4 secs

     total energy              =     -66.87577564 Ry
     estimated scf accuracy    <          1.6E-09 Ry

     total magnetization       =    -0.00 Bohr mag/cell
     absolute magnetization    =     0.00 Bohr mag/cell

     iteration #  7     ecut=    40.00 Ry     beta= 0.50
     Davidson diagonalization with overlap
     ethr =  1.47E-11,  avg # of iterations =  2.0

     Magnetic moment per site  (integrated on atomic sphere of radius R)
     atom   1 (R=0.413)  charge=  9.2523  magn=  0.0000

     total cpu time spent up to now is       20.7 secs

     End of self-consistent calculation

 ------ SPIN UP ------------


          k = 0.0000 0.0000 0.0000 (   531 PWs)   bands (ev):

     5.9380  11.3711  11.3711  11.3711  12.9653  12.9653  32.6185  36.2545
    36.2545  36.2545

          k = 0.0776 0.0776-0.0776 (   495 PWs)   bands (ev):

     6.3768  11.2406  11.5153  11.5153  12.9121  12.9121  32.7293  33.6680
    36.5421  36.5421

          k = 0.1553 0.1553-0.1553 (   483 PWs)   bands (ev):

     7.5025  11.1391  11.6798  11.6798  13.0336  13.0336  28.7901  33.5523
    36.7845  36.7845

          k = 0.2329 0.2329-0.2329 (   492 PWs)   bands (ev):

     8.4368  11.5291  11.5291  12.0903  13.6202  13.6202  24.2080  32.6055
    35.7147  35.7147

          k = 0.3106 0.3106-0.3106 (   471 PWs)   bands (ev):

     8.6043  11.3534  11.3534  14.1574  14.1574  14.4299  20.2061  31.8068
    34.5033  34.5033

          k = 0.1553 0.0000 0.0000 (   495 PWs)   bands (ev):

     6.5256  11.0754  11.6439  11.6439  12.6507  13.0989  33.1764  34.4296
    35.2152  35.2152

          k = 0.2329 0.0776-0.0776 (   484 PWs)   bands (ev):

     7.4518  10.8135  11.8167  11.9077  12.6061  13.2837  30.5515  33.6957
    34.2574  36.5048

          k = 0.3106 0.1553-0.1553 (   481 PWs)   bands (ev):

     8.5760  11.0399  11.4908  11.8784  13.5356  13.7736  25.9126  33.0576
    33.4083  35.2727

          k = 0.3882 0.2329-0.2329 (   476 PWs)   bands (ev):

     8.9129  11.1934  11.6777  12.2867  14.2235  15.2610  21.5152  31.9897
    32.9947  33.5818

          k =-0.2329-0.3882 0.3882 (   472 PWs)   bands (ev):

     8.9313  11.1340  11.5771  12.9597  14.1306  16.6557  19.4517  31.2730
    32.7991  33.7028

          k =-0.1553-0.3106 0.3106 (   483 PWs)   bands (ev):

     8.9061  11.3004  11.6758  12.0463  13.4826  14.9701  22.9677  31.1983
    33.3203  35.7556

          k =-0.0776-0.2329 0.2329 (   485 PWs)   bands (ev):

     8.2708  10.9423  11.6451  11.8995  12.7163  13.8741  27.4440  31.7177
    34.9542  37.7518

          k =-0.0000-0.1553 0.1553 (   489 PWs)   bands (ev):

     7.0670  11.0084  11.7136  11.7408  12.6141  13.1926  31.4969  32.5907
    35.4712  38.2011

          k = 0.3106 0.0000 0.0000 (   480 PWs)   bands (ev):

     8.0524  10.3863  12.0960  12.4191  12.4191  13.4474  32.2847  32.2847
    33.1381  34.4232

          k = 0.3882 0.0776-0.0776 (   480 PWs)   bands (ev):

     8.9671  10.1524  11.7329  12.6492  13.5770  13.8480  27.8998  30.9552
    31.8611  33.9583

          k = 0.4659 0.1553-0.1553 (   478 PWs)   bands (ev):

     9.4153  10.5195  11.5218  12.4804  14.2913  15.7466  23.2940  29.6991
    30.5440  33.7618

          k =-0.1553-0.4659 0.4659 (   471 PWs)   bands (ev):

     9.5626  10.7326  11.8202  12.2845  14.1684  18.7478  19.5079  27.9723
    31.4147  33.4686

          k =-0.0776-0.3882 0.3882 (   476 PWs)   bands (ev):

     9.7654  10.8805  11.5150  12.2251  13.4809  16.8319  22.4886  27.0895
    33.5271  33.5761

          k = 0.0000-0.3106 0.3106 (   479 PWs)   bands (ev):

     9.4553  10.7257  11.3267  12.2906  12.6900  15.1774  25.9658  27.9781
    34.2566  36.3396

          k = 0.4659 0.0000 0.0000 (   480 PWs)   bands (ev):

     9.0816   9.6861  13.0686  13.5138  13.5138  13.8635  28.4267  29.0753
    29.0753  33.0370

          k = 0.5435 0.0776-0.0776 (   469 PWs)   bands (ev):

     9.2165   9.6046  12.9308  13.5136  14.3266  15.8104  24.6820  27.2132
    28.2761  34.0545

          k =-0.0776-0.5435 0.5435 (   475 PWs)   bands (ev):

     9.4401  10.0373  12.3605  13.2412  14.2841  19.0220  21.3047  25.0842
    28.9588  34.2820

          k = 0.0000-0.4659 0.4659 (   466 PWs)   bands (ev):

     9.8243  10.6613  11.5740  12.8500  13.7806  18.6887  22.7808  23.4718
    30.9393  33.9958

          k = 0.6212 0.0000 0.0000 (   468 PWs)   bands (ev):

     8.9194   9.2671  14.1479  14.4362  14.4362  16.2183  23.1747  26.9593
    26.9593  33.3595

          k = 0.0000-0.6212 0.6212 (   470 PWs)   bands (ev):

     9.0499   9.3925  13.7399  13.9582  14.4871  18.3089  21.6706  25.5332
    27.2229  34.2449

          k = 0.3106 0.1553 0.0000 (   479 PWs)   bands (ev):

     8.4780  10.5252  11.5806  12.4247  12.6339  13.9068  28.8229  30.5495
    34.2836  36.2003

          k = 0.3882 0.2329-0.0776 (   480 PWs)   bands (ev):

     9.3974  10.8033  11.1379  12.3437  13.4281  15.1630  24.7735  29.3499
    32.2861  35.9331

          k =-0.2329-0.3882 0.5435 (   474 PWs)   bands (ev):

     9.4898  10.8194  11.8015  12.1563  14.0467  17.2602  20.6867  29.3473
    30.7375  34.8635

          k = 0.4659 0.1553 0.0000 (   474 PWs)   bands (ev):

     9.5172   9.9493  11.6824  13.4487  13.5045  15.2383  26.0841  27.8818
    29.7154  35.8413

          k =-0.1553-0.4659 0.6212 (   474 PWs)   bands (ev):

     9.7644  10.2811  11.4857  13.0707  14.1546  17.6061  22.5757  26.7128
    28.3405  36.0409

          k =-0.0776-0.3882 0.5435 (   474 PWs)   bands (ev):

    10.0505  10.5092  11.3549  12.7267  14.0712  19.2115  20.9925  25.4991
    28.9772  36.0808

          k = 0.0000-0.3106 0.4659 (   479 PWs)   bands (ev):

    10.3646  10.6457  10.6763  12.7933  13.5253  16.9598  24.0864  25.4224
    30.6054  36.6286

          k =-0.0776-0.5435 0.6988 (   471 PWs)   bands (ev):

     9.3105   9.5928  12.8226  13.7747  14.4345  17.9682  22.7126  25.9690
    26.5903  35.7423

          k =-0.0000-0.4659 0.6212 (   481 PWs)   bands (ev):

     9.6387  10.0766  12.0691  13.2174  14.4268  20.7585  20.7953  24.0099
    27.2176  36.4026

          k =-0.0776-0.3882 0.6988 (   480 PWs)   bands (ev):

    10.0544  10.5531  11.1124  12.9236  14.4293  19.8054  22.7284  23.6167
    26.5700  39.2595

 ------ SPIN DOWN ----------


          k = 0.0000 0.0000 0.0000 (   531 PWs)   bands (ev):

     5.9380  11.3711  11.3711  11.3711  12.9653  12.9653  32.6185  36.2545
    36.2545  36.2545

          k = 0.0776 0.0776-0.0776 (   495 PWs)   bands (ev):

     6.3768  11.2406  11.5153  11.5153  12.9121  12.9121  32.7293  33.6680
    36.5421  36.5421

          k = 0.1553 0.1553-0.1553 (   483 PWs)   bands (ev):

     7.5025  11.1391  11.6798  11.6798  13.0336  13.0336  28.7901  33.5523
    36.7845  36.7845

          k = 0.2329 0.2329-0.2329 (   492 PWs)   bands (ev):

     8.4368  11.5291  11.5291  12.0903  13.6202  13.6202  24.2080  32.6055
    35.7147  35.7147

          k = 0.3106 0.3106-0.3106 (   471 PWs)   bands (ev):

     8.6043  11.3534  11.3534  14.1574  14.1574  14.4299  20.2061  31.8068
    34.5033  34.5033

          k = 0.1553 0.0000 0.0000 (   495 PWs)   bands (ev):

     6.5256  11.0754  11.6439  11.6439  12.6507  13.0989  33.1764  34.4296
    35.2152  35.2152

          k = 0.2329 0.0776-0.0776 (   484 PWs)   bands (ev):

     7.4518  10.8135  11.8167  11.9077  12.6061  13.2837  30.5515  33.6957
    34.2574  36.5048

          k = 0.3106 0.1553-0.1553 (   481 PWs)   bands (ev):

     8.5760  11.0399  11.4908  11.8784  13.5356  13.7736  25.9126  33.0576
    33.4083  35.2727

          k = 0.3882 0.2329-0.2329 (   476 PWs)   bands (ev):

     8.9129  11.1934  11.6777  12.2867  14.2235  15.2610  21.5152  31.9897
    32.9947  33.5818

          k =-0.2329-0.3882 0.3882 (   472 PWs)   bands (ev):

     8.9313  11.1340  11.5771  12.9597  14.1306  16.6557  19.4517  31.2730
    32.7991  33.7028

          k =-0.1553-0.3106 0.3106 (   483 PWs)   bands (ev):

     8.9061  11.3004  11.6758  12.0463  13.4826  14.9701  22.9677  31.1983
    33.3203  35.7556

          k =-0.0776-0.2329 0.2329 (   485 PWs)   bands (ev):

     8.2708  10.9423  11.6451  11.8995  12.7163  13.8741  27.4440  31.7177
    34.9542  37.7518

          k =-0.0000-0.1553 0.1553 (   489 PWs)   bands (ev):

     7.0670  11.0084  11.7136  11.7408  12.6141  13.1926  31.4969  32.5907
    35.4712  38.2010

          k = 0.3106 0.0000 0.0000 (   480 PWs)   bands (ev):

     8.0524  10.3863  12.0960  12.4191  12.4191  13.4474  32.2847  32.2847
    33.1381  34.4232

          k = 0.3882 0.0776-0.0776 (   480 PWs)   bands (ev):

     8.9671  10.1524  11.7329  12.6492  13.5770  13.8480  27.8998  30.9552
    31.8611  33.9583

          k = 0.4659 0.1553-0.1553 (   478 PWs)   bands (ev):

     9.4153  10.5195  11.5218  12.4804  14.2913  15.7466  23.2940  29.6991
    30.5440  33.7618

          k =-0.1553-0.4659 0.4659 (   471 PWs)   bands (ev):

     9.5626  10.7326  11.8202  12.2845  14.1684  18.7478  19.5079  27.9723
    31.4147  33.4686

          k =-0.0776-0.3882 0.3882 (   476 PWs)   bands (ev):

     9.7654  10.8805  11.5150  12.2251  13.4809  16.8319  22.4886  27.0895
    33.5271  33.5761

          k = 0.0000-0.3106 0.3106 (   479 PWs)   bands (ev):

     9.4553  10.7257  11.3267  12.2906  12.6900  15.1774  25.9658  27.9781
    34.2566  36.3396

          k = 0.4659 0.0000 0.0000 (   480 PWs)   bands (ev):

     9.0816   9.6861  13.0686  13.5138  13.5138  13.8635  28.4267  29.0753
    29.0753  33.0370

          k = 0.5435 0.0776-0.0776 (   469 PWs)   bands (ev):

     9.2165   9.6046  12.9308  13.5136  14.3266  15.8104  24.6820  27.2132
    28.2761  34.0545

          k =-0.0776-0.5435 0.5435 (   475 PWs)   bands (ev):

     9.4401  10.0373  12.3605  13.2412  14.2841  19.0220  21.3047  25.0842
    28.9588  34.2820

          k = 0.0000-0.4659 0.4659 (   466 PWs)   bands (ev):

     9.8243  10.6613  11.5740  12.8500  13.7806  18.6887  22.7808  23.4718
    30.9393  33.9958

          k = 0.6212 0.0000 0.0000 (   468 PWs)   bands (ev):

     8.9194   9.2671  14.1479  14.4362  14.4362  16.2183  23.1747  26.9593
    26.9593  33.3595

          k = 0.0000-0.6212 0.6212 (   470 PWs)   bands (ev):

     9.0499   9.3925  13.7399  13.9582  14.4871  18.3089  21.6706  25.5332
    27.2229  34.2449

          k = 0.3106 0.1553 0.0000 (   479 PWs)   bands (ev):

     8.4780  10.5252  11.5806  12.4247  12.6339  13.9068  28.8229  30.5495
    34.2836  36.2003

          k = 0.3882 0.2329-0.0776 (   480 PWs)   bands (ev):

     9.3974  10.8033  11.1379  12.3437  13.4281  15.1630  24.7735  29.3499
    32.2861  35.9331

          k =-0.2329-0.3882 0.5435 (   474 PWs)   bands (ev):

     9.4898  10.8194  11.8015  12.1563  14.0467  17.2602  20.6867  29.3473
    30.7375  34.8635

          k = 0.4659 0.1553 0.0000 (   474 PWs)   bands (ev):

     9.5172   9.9493  11.6824  13.4487  13.5045  15.2383  26.0841  27.8818
    29.7154  35.8413

          k =-0.1553-0.4659 0.6212 (   474 PWs)   bands (ev):

     9.7644  10.2811  11.4857  13.0707  14.1546  17.6061  22.5757  26.7128
    28.3405  36.0409

          k =-0.0776-0.3882 0.5435 (   474 PWs)   bands (ev):

    10.0505  10.5092  11.3549  12.7267  14.0712  19.2115  20.9925  25.4991
    28.9772  36.0808

          k = 0.0000-0.3106 0.4659 (   479 PWs)   bands (ev):

    10.3646  10.6457  10.6763  12.7933  13.5253  16.9598  24.0864  25.4224
    30.6054  36.6286

          k =-0.0776-0.5435 0.6988 (   471 PWs)   bands (ev):

     9.3105   9.5928  12.8226  13.7747  14.4345  17.9682  22.7126  25.9690
    26.5903  35.7423

          k =-0.0000-0.4659 0.6212 (   481 PWs)   bands (ev):

     9.6387  10.0766  12.0691  13.2174  14.4268  20.7585  20.7953  24.0099
    27.2176  36.4026

          k =-0.0776-0.3882 0.6988 (   480 PWs)   bands (ev):

    10.0544  10.5531  11.1124  12.9236  14.4293  19.8054  22.7284  23.6167
    26.5700  39.2595

     the Fermi energy is    16.0560 ev

!    total energy              =     -66.87577564 Ry
     estimated scf accuracy    <          3.9E-10 Ry
     smearing contrib. (-TS)   =       0.00013788 Ry
     internal energy E=F+TS    =     -66.87591351 Ry

     The total energy is F=E-TS. E is the sum of the following terms:
     one-electron contribution =       8.97545991 Ry
     hartree contribution      =       7.14333091 Ry
     xc contribution           =     -10.46357723 Ry
     ewald contribution        =     -72.53112710 Ry

     total magnetization       =    -0.00 Bohr mag/cell
     absolute magnetization    =     0.00 Bohr mag/cell

     convergence has been achieved in   7 iterations

     Forces acting on atoms (cartesian axes, Ry/au):

     atom    1 type  1   force =     0.00000000    0.00000000    0.00000000
     The non-local contrib.  to forces
     atom    1 type  1   force =     0.00000000   -0.00000000   -0.00000000
     The ionic contribution  to forces
     atom    1 type  1   force =    -0.00000000   -0.00000000   -0.00000000
     The local contribution  to forces
     atom    1 type  1   force =     0.00000000    0.00000000    0.00000000
     The core correction contribution to forces
     atom    1 type  1   force =     0.00000000    0.00000000    0.00000000
     The Hubbard contrib.    to forces
     atom    1 type  1   force =     0.00000000    0.00000000    0.00000000
     The SCF correction term to forces
     atom    1 type  1   force =     0.00000000    0.00000000    0.00000000

     Total force =     0.000000     Total SCF correction =     0.000000


     Computing stress (Cartesian axis) and pressure

          total   stress  (Ry/bohr**3)                   (kbar)     P=       -0.29
  -0.00000199   0.00000000   0.00000000           -0.29        0.00        0.00
   0.00000000  -0.00000199   0.00000000            0.00       -0.29        0.00
   0.00000000   0.00000000  -0.00000199            0.00        0.00       -0.29


     init_run     :      0.58s CPU      0.62s WALL (       2 calls)
     electrons    :     18.00s CPU     18.31s WALL (       7 calls)
     update_pot   :      0.31s CPU      0.30s WALL (       4 calls)
     forces       :      0.48s CPU      0.38s WALL (       7 calls)
     stress       :      0.81s CPU      0.81s WALL (       7 calls)

     Called by init_run:
     wfcinit      :      0.11s CPU      0.12s WALL (       2 calls)
     potinit      :      0.18s CPU      0.18s WALL (       3 calls)
     hinit0       :      0.28s CPU      0.28s WALL (       2 calls)

     Called by electrons:
     c_bands      :     14.94s CPU     15.40s WALL (      57 calls)
     sum_band     :      2.59s CPU      2.40s WALL (      57 calls)
     v_of_rho     :      0.13s CPU      0.13s WALL (      64 calls)
     newd         :      0.18s CPU      0.16s WALL (      64 calls)
     mix_rho      :      0.06s CPU      0.09s WALL (      57 calls)

     Called by c_bands:
     init_us_2    :      0.30s CPU      0.27s WALL (    9100 calls)
     init_us_2:cp :      0.28s CPU      0.26s WALL (    9100 calls)
     cegterg      :     12.89s CPU     12.42s WALL (    3990 calls)

     Called by *egterg:
     cdiaghg      :      2.14s CPU      2.06s WALL (   10993 calls)
     h_psi        :      8.89s CPU      8.50s WALL (   11483 calls)
     s_psi        :      0.10s CPU      0.09s WALL (   11483 calls)
     g_psi        :      0.03s CPU      0.04s WALL (    7353 calls)

     Called by h_psi:
     h_psi:calbec :      0.55s CPU      0.54s WALL (   11483 calls)
     vloc_psi     :      8.16s CPU      7.77s WALL (   11483 calls)
     add_vuspsi   :      0.11s CPU      0.10s WALL (   11483 calls)

     General routines
     calbec       :      0.86s CPU      0.82s WALL (   17923 calls)
     fft          :      0.18s CPU      0.18s WALL (     714 calls)
     ffts         :      0.14s CPU      0.13s WALL (     242 calls)
     fftw         :      8.71s CPU      8.22s WALL (  232716 calls)
     interpolate  :      0.14s CPU      0.14s WALL (     128 calls)

     Parallel routines

     PWSCF        :     20.45s CPU     20.99s WALL


   This run was terminated on:  11: 7:33   3Nov2023            

=------------------------------------------------------------------------------=
   JOB DONE.
=------------------------------------------------------------------------------=
