
     Program PWSCF v.7.2 starts on 10Oct2023 at 17:20:13 

     This program is part of the open-source Quantum ESPRESSO suite
     for quantum simulation of materials; please cite
         "P. Giannozzi et al., J. Phys.:Condens. Matter 21 395502 (2009);
         "P. Giannozzi et al., J. Phys.:Condens. Matter 29 465901 (2017);
         "P. Giannozzi et al., J. Chem. Phys. 152 154105 (2020);
          URL http://www.quantum-espresso.org", 
     in publications or presentations arising from this work. More details at
     http://www.quantum-espresso.org/quote

     Parallel version (MPI), running on     1 processors

     MPI processes distributed on     1 nodes
     33188 MiB available memory on the printing compute node when the environment starts

     Waiting for input...
     Reading input from standard input
Warning: card &CELL ignored
Warning: card / ignored

     Current dimensions of program PWSCF are:
     Max number of different atomic species (ntypx) = 10
     Max number of k-points (npk) =  40000
     Max angular momentum in pseudopotentials (lmaxx) =  4
     file Ge.pz-dn-rrkjus_psl.0.2.2.UPF: wavefunction(s)  3D renormalized
     Message from routine setup:
     using ibrav=0 with symmetry is DISCOURAGED, use correct ibrav instead

     Subspace diagonalization in iterative solution of the eigenvalue problem:
     a serial algorithm will be used


     G-vector sticks info
     --------------------
     sticks:   dense  smooth     PW     G-vecs:    dense   smooth      PW
     Sum         925     925    265                18499    18499    2891

     Using Slab Decomposition



     bravais-lattice index     =            0
     lattice parameter (alat)  =       6.6812  a.u.
     unit-cell volume          =     210.8855 (a.u.)^3
     number of atoms/cell      =            2
     number of atomic types    =            1
     number of electrons       =        28.00
     number of Kohn-Sham states=           14
     kinetic-energy cutoff     =      75.0000  Ry
     charge density cutoff     =     300.0000  Ry
     scf convergence threshold =      1.0E-07
     mixing beta               =       0.5000
     number of iterations used =            8  plain     mixing
     Exchange-correlation= LDA
                           (   1   1   0   0   0   0   0)

     celldm(1)=   6.681191  celldm(2)=   0.000000  celldm(3)=   0.000000
     celldm(4)=   0.000000  celldm(5)=   0.000000  celldm(6)=   0.000000

     crystal axes: (cart. coord. in units of alat)
               a(1) = (   0.000000   0.707107   0.707107 )  
               a(2) = (   0.707107   0.000000   0.707107 )  
               a(3) = (   0.707107   0.707107   0.000000 )  

     reciprocal axes: (cart. coord. in units 2 pi/alat)
               b(1) = ( -0.707107  0.707107  0.707107 )  
               b(2) = (  0.707107 -0.707107  0.707107 )  
               b(3) = (  0.707107  0.707107 -0.707107 )  


     PseudoPot. # 1 for Ge read from file:
     ../Ge.pz-dn-rrkjus_psl.0.2.2.UPF
     MD5 check sum: 9948ad5293734715c8cf6021b6c26e6d
     Pseudo is Ultrasoft + core correction, Zval = 14.0
     Generated using "atomic" code by A. Dal Corso  v.5.0.2 svn rev. 9415
     Using radial grid of 1207 points,  6 beta functions with: 
                l(1) =   0
                l(2) =   0
                l(3) =   1
                l(4) =   1
                l(5) =   2
                l(6) =   2
     Q(r) pseudized with 0 coefficients 


     atomic species   valence    mass     pseudopotential
        Ge            14.00    72.63000     Ge( 1.00)

      2 Sym. Ops. (no inversion) found



   Cartesian axes

     site n.     atom                  positions (alat units)
         1           Ge  tau(   1) = (   0.0000000   0.0000000   0.0000000  )
         2           Ge  tau(   2) = (   0.3889087   0.3889087   0.3535534  )

     number of k points=    24
                       cart. coord. in units 2pi/alat
        k(    1) = (   0.0000000   0.0000000   0.0000000), wk =   0.0312500
        k(    2) = (   0.1767767   0.1767767  -0.1767767), wk =   0.0625000
        k(    3) = (  -0.3535534  -0.3535534   0.3535534), wk =   0.0312500
        k(    4) = (   0.3535534   0.0000000   0.0000000), wk =   0.1250000
        k(    5) = (  -0.1767767  -0.5303301   0.5303301), wk =   0.1250000
        k(    6) = (   0.0000000  -0.3535534   0.3535534), wk =   0.1250000
        k(    7) = (  -0.7071068   0.0000000   0.0000000), wk =   0.0625000
        k(    8) = (  -0.7071068   0.3535534   0.0000000), wk =   0.1250000
        k(    9) = (  -0.1767767   0.1767767   0.1767767), wk =   0.1250000
        k(   10) = (   0.1767767   0.1767767   0.1767767), wk =   0.0625000
        k(   11) = (   0.3535534  -0.3535534  -0.3535534), wk =   0.0625000
        k(   12) = (  -0.3535534  -0.3535534  -0.3535534), wk =   0.0312500
        k(   13) = (   0.0000000   0.0000000   0.3535534), wk =   0.0625000
        k(   14) = (   0.1767767  -0.5303301  -0.5303301), wk =   0.1250000
        k(   15) = (  -0.1767767   0.5303301  -0.5303301), wk =   0.1250000
        k(   16) = (  -0.5303301  -0.1767767  -0.5303301), wk =   0.1250000
        k(   17) = (   0.5303301   0.5303301  -0.1767767), wk =   0.0625000
        k(   18) = (  -0.5303301   0.5303301   0.1767767), wk =   0.1250000
        k(   19) = (  -0.5303301  -0.5303301  -0.1767767), wk =   0.0625000
        k(   20) = (   0.0000000  -0.3535534  -0.3535534), wk =   0.1250000
        k(   21) = (   0.3535534   0.3535534   0.0000000), wk =   0.0625000
        k(   22) = (  -0.3535534   0.3535534   0.0000000), wk =   0.0625000
        k(   23) = (   0.0000000   0.0000000  -0.7071068), wk =   0.0312500
        k(   24) = (   0.7071068  -0.0000000   0.3535534), wk =   0.0625000

     Dense  grid:    18499 G-vectors     FFT dimensions: (  40,  40,  40)

     Estimated max dynamical RAM per process >      83.84 MB

     Check: negative core charge=   -0.000007

     Initial potential from superposition of free atoms

     starting charge      27.9988, renormalised to      28.0000
     Starting wfcs are   18 randomized atomic wfcs

     total cpu time spent up to now is        2.3 secs

     Self-consistent Calculation

     iteration #  1     ecut=    75.00 Ry     beta= 0.50
     Davidson diagonalization with overlap
     ethr =  1.00E-02,  avg # of iterations =  2.0

     Threshold (ethr) on eigenvalues was too large:
     Diagonalizing with lowered threshold

     Davidson diagonalization with overlap
     ethr =  2.19E-04,  avg # of iterations =  2.0

     total cpu time spent up to now is        7.9 secs

     total energy              =    -421.62353689 Ry
     estimated scf accuracy    <       0.06315023 Ry

     iteration #  2     ecut=    75.00 Ry     beta= 0.50
     Davidson diagonalization with overlap
     ethr =  2.26E-04,  avg # of iterations =  1.4

     total cpu time spent up to now is       10.6 secs

     total energy              =    -421.62111678 Ry
     estimated scf accuracy    <       0.01047215 Ry

     iteration #  3     ecut=    75.00 Ry     beta= 0.50
     Davidson diagonalization with overlap
     ethr =  3.74E-05,  avg # of iterations =  2.0

     total cpu time spent up to now is       13.6 secs

     total energy              =    -421.62214283 Ry
     estimated scf accuracy    <       0.00012497 Ry

     iteration #  4     ecut=    75.00 Ry     beta= 0.50
     Davidson diagonalization with overlap
     ethr =  4.46E-07,  avg # of iterations =  3.0

     total cpu time spent up to now is       17.3 secs

     total energy              =    -421.62218244 Ry
     estimated scf accuracy    <       0.00000701 Ry

     iteration #  5     ecut=    75.00 Ry     beta= 0.50
     Davidson diagonalization with overlap
     ethr =  2.50E-08,  avg # of iterations =  3.0

     total cpu time spent up to now is       20.8 secs

     total energy              =    -421.62218392 Ry
     estimated scf accuracy    <       0.00000018 Ry

     iteration #  6     ecut=    75.00 Ry     beta= 0.50
     Davidson diagonalization with overlap
     ethr =  6.44E-10,  avg # of iterations =  3.7

     total cpu time spent up to now is       24.4 secs

     End of self-consistent calculation

          k = 0.0000 0.0000 0.0000 (  2277 PWs)   bands (ev):

   -11.9769 -11.7834 -11.7672 -11.7445 -11.7254 -11.2433 -11.2362 -11.1766
   -11.1415 -11.1239  -2.1300  13.2468  14.2548  15.2568

          k = 0.1768 0.1768-0.1768 (  2304 PWs)   bands (ev):

   -12.0245 -11.9175 -11.8389 -11.6021 -11.5959 -11.3161 -11.3004 -11.1351
   -11.0736 -11.0655  -1.0499   7.9925  12.6038  13.2543

          k =-0.3536-0.3536 0.3536 (  2332 PWs)   bands (ev):

   -12.0659 -11.9611 -11.8461 -11.5939 -11.5718 -11.3245 -11.2748 -11.0931
   -11.0620 -11.0284   1.4394   3.4198  11.7656  12.4752

          k = 0.3536 0.0000 0.0000 (  2293 PWs)   bands (ev):

   -12.0192 -11.8531 -11.7905 -11.6360 -11.5880 -11.4021 -11.2320 -11.1355
   -11.1291 -11.0876  -0.7199   9.1924  10.8434  11.2645

          k =-0.1768-0.5303 0.5303 (  2315 PWs)   bands (ev):

   -12.0845 -11.9004 -11.8075 -11.5485 -11.5177 -11.4239 -11.3160 -11.1825
   -11.0621 -10.9810   1.6680   4.7169   8.6781  10.7042

          k = 0.0000-0.3536 0.3536 (  2325 PWs)   bands (ev):

   -12.0839 -11.8872 -11.8260 -11.5999 -11.4819 -11.4268 -11.2793 -11.2044
   -11.0556 -10.9897   0.6658   6.0173   8.2962  12.2538

          k =-0.7071 0.0000 0.0000 (  2298 PWs)   bands (ev):

   -12.0433 -11.8859 -11.7125 -11.6927 -11.5107 -11.3392 -11.3212 -11.2288
   -11.0556 -11.0371   2.9545   3.8043   9.3540   9.6863

          k =-0.7071 0.3536 0.0000 (  2328 PWs)   bands (ev):

   -12.0927 -11.9212 -11.6927 -11.5649 -11.4892 -11.4149 -11.3457 -11.2928
   -11.0363 -10.9729   3.2824   3.9984   7.8846   8.2874

          k =-0.1768 0.1768 0.1768 (  2304 PWs)   bands (ev):

   -12.0237 -11.8231 -11.7786 -11.6799 -11.6468 -11.2777 -11.2540 -11.2164
   -11.1121 -11.0720  -1.0810   8.3774  12.2495  13.4763

          k = 0.1768 0.1768 0.1768 (  2304 PWs)   bands (ev):

   -11.9848 -11.7978 -11.7365 -11.7034 -11.6585 -11.2982 -11.2475 -11.2090
   -11.1484 -11.1140  -1.1122   8.7815  12.3036  13.0759

          k = 0.3536-0.3536-0.3536 (  2332 PWs)   bands (ev):

   -12.0446 -11.8392 -11.7800 -11.6792 -11.5888 -11.3008 -11.2536 -11.2021
   -11.1138 -11.0481   1.0551   4.1261  11.4997  12.8039

          k =-0.3536-0.3536-0.3536 (  2332 PWs)   bands (ev):

   -11.9836 -11.7900 -11.7185 -11.6878 -11.5443 -11.4207 -11.2409 -11.2066
   -11.1629 -11.1227   0.7901   4.7286  11.6566  12.4536

          k = 0.0000 0.0000 0.3536 (  2293 PWs)   bands (ev):

   -12.0422 -11.8928 -11.8035 -11.6001 -11.5378 -11.4328 -11.2623 -11.1271
   -11.1021 -11.0677  -0.7201   9.0534  10.9963  11.2917

          k = 0.1768-0.5303-0.5303 (  2315 PWs)   bands (ev):

   -12.0490 -11.8699 -11.7698 -11.6268 -11.5396 -11.3760 -11.2788 -11.2207
   -11.0823 -11.0259   1.4945   5.0738   9.0732  10.2807

          k =-0.1768 0.5303-0.5303 (  2315 PWs)   bands (ev):

   -12.0892 -11.8330 -11.7132 -11.6283 -11.5488 -11.4101 -11.3017 -11.2431
   -11.0885 -10.9825   1.4565   5.3744   8.1963  10.7923

          k =-0.5303-0.1768-0.5303 (  2315 PWs)   bands (ev):

   -12.0286 -11.8588 -11.7049 -11.6130 -11.5333 -11.4215 -11.3056 -11.2419
   -11.0989 -11.0460   1.3160   5.7006   8.5706  10.3568

          k = 0.5303 0.5303-0.1768 (  2315 PWs)   bands (ev):

   -12.0822 -11.9527 -11.8118 -11.5381 -11.5347 -11.3798 -11.3128 -11.1811
   -11.0293 -10.9969   1.7052   4.5507   9.1463  10.4045

          k =-0.5303 0.5303 0.1768 (  2315 PWs)   bands (ev):

   -12.0848 -11.8973 -11.7679 -11.5543 -11.5118 -11.4244 -11.3243 -11.2121
   -11.0686 -10.9883   1.4837   5.1720   8.5635  10.7033

          k =-0.5303-0.5303-0.1768 (  2315 PWs)   bands (ev):

   -12.0635 -11.8975 -11.6632 -11.5707 -11.5322 -11.4349 -11.3322 -11.2632
   -11.0796 -11.0110   1.3078   5.8418   8.1530  10.5779

          k = 0.0000-0.3536-0.3536 (  2325 PWs)   bands (ev):

   -12.0385 -11.8341 -11.6896 -11.6607 -11.5649 -11.3679 -11.2941 -11.2641
   -11.1123 -11.0370   0.4902   6.9200   8.2214  11.5744

          k = 0.3536 0.3536 0.0000 (  2325 PWs)   bands (ev):

   -12.0429 -11.9220 -11.7444 -11.5983 -11.5252 -11.3717 -11.3157 -11.2389
   -11.0507 -11.0391   0.5737   6.4213   8.3084  11.8812

          k =-0.3536 0.3536 0.0000 (  2325 PWs)   bands (ev):

   -12.0824 -11.8318 -11.7224 -11.6456 -11.5896 -11.3445 -11.3048 -11.2395
   -11.0935 -10.9951   0.5736   6.5079   8.1398  12.0697

          k = 0.0000 0.0000-0.7071 (  2298 PWs)   bands (ev):

   -12.0826 -11.9437 -11.7615 -11.6237 -11.4341 -11.3927 -11.3023 -11.2484
   -11.0300 -10.9987   3.2543   3.4278   9.4855   9.6622

          k = 0.7071-0.0000 0.3536 (  2328 PWs)   bands (ev):

   -12.0904 -11.8321 -11.7302 -11.6009 -11.4930 -11.4347 -11.3028 -11.2993
   -11.0705 -10.9739   3.1688   4.1735   7.7709   8.3330

     highest occupied level (ev):    15.2568

!    total energy              =    -421.62218397 Ry
     estimated scf accuracy    <       0.00000002 Ry

     The total energy is the sum of the following terms:
     one-electron contribution =    -233.50357317 Ry
     hartree contribution      =     147.17443207 Ry
     xc contribution           =    -112.24432138 Ry
     ewald contribution        =    -223.04872149 Ry

     convergence has been achieved in   6 iterations

     Forces acting on atoms (cartesian axes, Ry/au):

     atom    1 type  1   force =     0.12483132    0.12483132   -0.05032358
     atom    2 type  1   force =    -0.12483132   -0.12483132    0.05032358
     The non-local contrib.  to forces
     atom    1 type  1   force =    -0.05284706   -0.05284706    0.02277648
     atom    2 type  1   force =     0.05283987    0.05283987   -0.02277540
     The ionic contribution  to forces
     atom    1 type  1   force =     1.85235716    1.85235716   -0.84315844
     atom    2 type  1   force =    -1.85235716   -1.85235716    0.84315844
     The local contribution  to forces
     atom    1 type  1   force =    -1.66578983   -1.66578983    0.76619182
     atom    2 type  1   force =     1.66580210    1.66580210   -0.76619358
     The core correction contribution to forces
     atom    1 type  1   force =    -0.00882800   -0.00882800    0.00389225
     atom    2 type  1   force =     0.00882832    0.00882832   -0.00389240
     The Hubbard contrib.    to forces
     atom    1 type  1   force =     0.00000000    0.00000000    0.00000000
     atom    2 type  1   force =     0.00000000    0.00000000    0.00000000
     The SCF correction term to forces
     atom    1 type  1   force =    -0.00006108   -0.00006108   -0.00002635
     atom    2 type  1   force =     0.00005543    0.00005543    0.00002586

     Total force =     0.259608     Total SCF correction =     0.000122


     Computing stress (Cartesian axis) and pressure

          total   stress  (Ry/bohr**3)                   (kbar)     P=      615.67
   0.00410389   0.00027757  -0.00128382          603.70       40.83     -188.86
   0.00027757   0.00410389  -0.00128382           40.83      603.70     -188.86
  -0.00128382  -0.00128382   0.00434786         -188.86     -188.86      639.59


     init_run     :      2.78s CPU      2.14s WALL (       1 calls)
     electrons    :     32.59s CPU     22.12s WALL (       1 calls)
     forces       :      0.46s CPU      0.32s WALL (       1 calls)
     stress       :      4.79s CPU      3.52s WALL (       1 calls)

     Called by init_run:
     wfcinit      :      2.13s CPU      1.48s WALL (       1 calls)
     potinit      :      0.00s CPU      0.01s WALL (       1 calls)
     hinit0       :      0.58s CPU      0.58s WALL (       1 calls)

     Called by electrons:
     c_bands      :     26.25s CPU     17.53s WALL (       7 calls)
     sum_band     :      5.69s CPU      3.98s WALL (       7 calls)
     v_of_rho     :      0.08s CPU      0.06s WALL (       7 calls)
     newd         :      0.56s CPU      0.56s WALL (       7 calls)
     mix_rho      :      0.03s CPU      0.03s WALL (       7 calls)

     Called by c_bands:
     init_us_2    :      1.02s CPU      0.67s WALL (     408 calls)
     init_us_2:cp :      1.01s CPU      0.67s WALL (     408 calls)
     cegterg      :     23.97s CPU     16.00s WALL (     168 calls)

     Called by *egterg:
     cdiaghg      :      0.53s CPU      0.33s WALL (     554 calls)
     h_psi        :     23.04s CPU     15.62s WALL (     602 calls)
     s_psi        :      0.38s CPU      0.24s WALL (     602 calls)
     g_psi        :      0.17s CPU      0.10s WALL (     410 calls)

     Called by h_psi:
     h_psi:calbec :      0.40s CPU      0.27s WALL (     602 calls)
     vloc_psi     :     22.14s CPU     15.04s WALL (     602 calls)
     add_vuspsi   :      0.38s CPU      0.25s WALL (     602 calls)

     General routines
     calbec       :      0.64s CPU      0.42s WALL (     890 calls)
     fft          :      0.30s CPU      0.29s WALL (      37 calls)
     ffts         :      0.02s CPU      0.01s WALL (       7 calls)
     fftw         :     22.67s CPU     15.48s WALL (   14918 calls)

     Parallel routines

     PWSCF        :     40.73s CPU     28.24s WALL


   This run was terminated on:  17:20:41  10Oct2023            

=------------------------------------------------------------------------------=
   JOB DONE.
=------------------------------------------------------------------------------=
