
     Program PWSCF v.7.2 starts on  3Nov2023 at 14: 1:13 

     This program is part of the open-source Quantum ESPRESSO suite
     for quantum simulation of materials; please cite
         "P. Giannozzi et al., J. Phys.:Condens. Matter 21 395502 (2009);
         "P. Giannozzi et al., J. Phys.:Condens. Matter 29 465901 (2017);
         "P. Giannozzi et al., J. Chem. Phys. 152 154105 (2020);
          URL http://www.quantum-espresso.org", 
     in publications or presentations arising from this work. More details at
     http://www.quantum-espresso.org/quote

     Parallel version (MPI), running on     8 processors

     MPI processes distributed on     8 nodes
     186968 MiB available memory on the printing compute node when the environment starts

     Waiting for input...
     Reading input from standard input

     Current dimensions of program PWSCF are:
     Max number of different atomic species (ntypx) = 10
     Max number of k-points (npk) =  40000
     Max angular momentum in pseudopotentials (lmaxx) =  4
     file Cu.pz-d-rrkjus.UPF: wavefunction(s)  3D renormalized
     Message from routine setup:
     using ibrav=0 with symmetry is DISCOURAGED, use correct ibrav instead

     R & G space division:  proc/nbgrp/npool/nimage =       8
     Subspace diagonalization in iterative solution of the eigenvalue problem:
     a serial algorithm will be used


     Parallelization info
     --------------------
     sticks:   dense  smooth     PW     G-vecs:    dense   smooth      PW
     Min          86      43     11                 2263      801     101
     Max          88      44     12                 2266      804     104
     Sum         697     349     89                18111     6423     821

     Using Slab Decomposition



     bravais-lattice index     =            0
     lattice parameter (alat)  =       5.2270  a.u.
     unit-cell volume          =     187.0550 (a.u.)^3
     number of atoms/cell      =            2
     number of atomic types    =            2
     number of electrons       =        22.00
     number of Kohn-Sham states=           15
     kinetic-energy cutoff     =      40.0000  Ry
     charge density cutoff     =     320.0000  Ry
     scf convergence threshold =      1.0E-07
     mixing beta               =       0.5000
     number of iterations used =            8  plain     mixing
     energy convergence thresh.=      1.0E-04
     force convergence thresh. =      1.0E-03
     press convergence thresh. =      5.0E-01
     Exchange-correlation=  SLA  PZ   NOGX NOGC
                           (   1   1   0   0   0   0   0)
     nstep                     =           50


     celldm(1)=   5.226982  celldm(2)=   0.000000  celldm(3)=   0.000000
     celldm(4)=   0.000000  celldm(5)=   0.000000  celldm(6)=   0.000000

     crystal axes: (cart. coord. in units of alat)
               a(1) = (   1.000000   0.000000   0.000000 )  
               a(2) = (   0.000000   1.000000   0.000000 )  
               a(3) = (   0.000000   0.000000   1.309834 )  

     reciprocal axes: (cart. coord. in units 2 pi/alat)
               b(1) = (  1.000000  0.000000  0.000000 )  
               b(2) = (  0.000000  1.000000  0.000000 )  
               b(3) = (  0.000000  0.000000  0.763456 )  


     PseudoPot. # 1 for Au read from file:
     /home/gridsan/epan1/labutil/lab3_samples/pseudopotentials/Au.pz-d-rrkjus.UPF
     MD5 check sum: 424ffd4ac9c90487cbadcd287136c95b
     Pseudo is Ultrasoft, Zval = 11.0
     Generated by new atomic code, or converted to UPF format
     Using radial grid of 1279 points,  3 beta functions with: 
                l(1) =   2
                l(2) =   2
                l(3) =   1
     Q(r) pseudized with 0 coefficients 


     PseudoPot. # 2 for Cu read from file:
     /home/gridsan/epan1/labutil/lab3_samples/pseudopotentials/Cu.pz-d-rrkjus.UPF
     MD5 check sum: fd38ae683e239c95a66f426e1f8e5fc7
     Pseudo is Ultrasoft, Zval = 11.0
     Generated by new atomic code, or converted to UPF format
     Using radial grid of  899 points,  3 beta functions with: 
                l(1) =   2
                l(2) =   2
                l(3) =   1
     Q(r) pseudized with 0 coefficients 


     atomic species   valence    mass     pseudopotential
        Au            11.00   196.96657     Au( 1.00)
        Cu            11.00    63.54600     Cu( 1.00)

     Starting magnetic structure 
     atomic species   magnetization
        Au           0.700
        Cu           0.000

     16 Sym. Ops., with inversion, found



   Cartesian axes

     site n.     atom                  positions (alat units)
         1           Cu  tau(   1) = (   0.0000000   0.0000000   0.0000000  )
         2           Au  tau(   2) = (   0.5000000   0.5000000   0.6549168  )

     number of k points=     1  Methfessel-Paxton smearing, width (Ry)=  0.0200
                       cart. coord. in units 2pi/alat
        k(    1) = (   0.0000000   0.0000000   0.0000000), wk =   1.0000000

     Dense  grid:    18111 G-vectors     FFT dimensions: (  30,  30,  40)

     Smooth grid:     6423 G-vectors     FFT dimensions: (  24,  24,  27)

     Estimated max dynamical RAM per process >       8.16 MB

     Estimated total dynamical RAM >      65.25 MB
     Generating pointlists ...
     new r_m :   0.3976 (alat units)  2.0781 (a.u.) for type    1
     new r_m :   0.3976 (alat units)  2.0781 (a.u.) for type    2

     Initial potential from superposition of free atoms

     starting charge      21.9996, renormalised to      22.0000
     Starting wfcs are   15 randomized atomic wfcs

     total cpu time spent up to now is        0.7 secs

     Self-consistent Calculation

     iteration #  1     ecut=    40.00 Ry     beta= 0.50
     Davidson diagonalization with overlap
     ethr =  1.00E-02,  avg # of iterations =  3.0

     total cpu time spent up to now is        0.7 secs

     total energy              =    -154.63500386 Ry
     estimated scf accuracy    <       0.51739738 Ry

     total magnetization       =     2.00 Bohr mag/cell
     absolute magnetization    =     2.16 Bohr mag/cell

     iteration #  2     ecut=    40.00 Ry     beta= 0.50
     Davidson diagonalization with overlap
     ethr =  2.35E-03,  avg # of iterations =  2.0

     total cpu time spent up to now is        0.8 secs

     total energy              =    -154.97441420 Ry
     estimated scf accuracy    <       0.42032316 Ry

     total magnetization       =    -0.04 Bohr mag/cell
     absolute magnetization    =     0.43 Bohr mag/cell

     iteration #  3     ecut=    40.00 Ry     beta= 0.50
     Davidson diagonalization with overlap
     ethr =  1.91E-03,  avg # of iterations =  1.0

     total cpu time spent up to now is        0.8 secs

     total energy              =    -155.09289797 Ry
     estimated scf accuracy    <       0.15010093 Ry

     total magnetization       =    -0.00 Bohr mag/cell
     absolute magnetization    =     0.30 Bohr mag/cell

     iteration #  4     ecut=    40.00 Ry     beta= 0.50
     Davidson diagonalization with overlap
     ethr =  6.82E-04,  avg # of iterations =  1.5

     total cpu time spent up to now is        0.8 secs

     total energy              =    -155.11902685 Ry
     estimated scf accuracy    <       0.00894206 Ry

     total magnetization       =    -0.00 Bohr mag/cell
     absolute magnetization    =     0.07 Bohr mag/cell

     iteration #  5     ecut=    40.00 Ry     beta= 0.50
     Davidson diagonalization with overlap
     ethr =  4.06E-05,  avg # of iterations =  1.5

     total cpu time spent up to now is        0.9 secs

     total energy              =    -155.11900145 Ry
     estimated scf accuracy    <       0.00221055 Ry

     total magnetization       =     0.00 Bohr mag/cell
     absolute magnetization    =     0.01 Bohr mag/cell

     iteration #  6     ecut=    40.00 Ry     beta= 0.50
     Davidson diagonalization with overlap
     ethr =  1.00E-05,  avg # of iterations =  2.0

     total cpu time spent up to now is        0.9 secs

     total energy              =    -155.11929753 Ry
     estimated scf accuracy    <       0.00010517 Ry

     total magnetization       =     0.00 Bohr mag/cell
     absolute magnetization    =     0.01 Bohr mag/cell

     iteration #  7     ecut=    40.00 Ry     beta= 0.50
     Davidson diagonalization with overlap
     ethr =  4.78E-07,  avg # of iterations =  2.0

     total cpu time spent up to now is        1.0 secs

     total energy              =    -155.11931894 Ry
     estimated scf accuracy    <       0.00000252 Ry

     total magnetization       =     0.00 Bohr mag/cell
     absolute magnetization    =     0.00 Bohr mag/cell

     iteration #  8     ecut=    40.00 Ry     beta= 0.50
     Davidson diagonalization with overlap
     ethr =  1.14E-08,  avg # of iterations =  2.0

     total cpu time spent up to now is        1.0 secs

     total energy              =    -155.11931981 Ry
     estimated scf accuracy    <       0.00000079 Ry

     total magnetization       =     0.00 Bohr mag/cell
     absolute magnetization    =     0.00 Bohr mag/cell

     iteration #  9     ecut=    40.00 Ry     beta= 0.50
     Davidson diagonalization with overlap
     ethr =  3.60E-09,  avg # of iterations =  2.0

     Magnetic moment per site  (integrated on atomic sphere of radius R)
     atom   1 (R=0.398)  charge= 10.1120  magn= -0.0000
     atom   2 (R=0.398)  charge=  9.1155  magn=  0.0000

     total cpu time spent up to now is        1.1 secs

     End of self-consistent calculation

 ------ SPIN UP ------------


          k = 0.0000 0.0000 0.0000 (   821 PWs)   bands (ev):

     5.6637   9.7045  10.2003  12.6456  12.6456  13.8451  14.2156  14.5658
    15.4794  15.5061  15.5061  17.9040  24.7520  26.3593  26.3593

 ------ SPIN DOWN ----------


          k = 0.0000 0.0000 0.0000 (   821 PWs)   bands (ev):

     5.6638   9.7047  10.2005  12.6458  12.6458  13.8451  14.2157  14.5659
    15.4795  15.5062  15.5062  17.9042  24.7523  26.3594  26.3594

     the Fermi energy is    16.7192 ev

!    total energy              =    -155.11931999 Ry
     estimated scf accuracy    <          6.2E-09 Ry
     smearing contrib. (-TS)   =       0.00000000 Ry
     internal energy E=F+TS    =    -155.11931999 Ry

     The total energy is F=E-TS. E is the sum of the following terms:
     one-electron contribution =      -5.63132961 Ry
     hartree contribution      =      29.50104735 Ry
     xc contribution           =     -25.01331386 Ry
     ewald contribution        =    -153.97572388 Ry

     total magnetization       =    -0.00 Bohr mag/cell
     absolute magnetization    =     0.00 Bohr mag/cell

     convergence has been achieved in   9 iterations

     Forces acting on atoms (cartesian axes, Ry/au):

     atom    1 type  2   force =     0.00000000    0.00000000    0.00000000
     atom    2 type  1   force =     0.00000000    0.00000000    0.00000000
     The non-local contrib.  to forces
     atom    1 type  2   force =     0.00000000    0.00000000    0.00000000
     atom    2 type  1   force =     0.00000000    0.00000000    0.00000000
     The ionic contribution  to forces
     atom    1 type  2   force =    -0.00000000   -0.00000000   -0.00000000
     atom    2 type  1   force =     0.00000000    0.00000000    0.00000000
     The local contribution  to forces
     atom    1 type  2   force =     0.00000000    0.00000000   -0.00000000
     atom    2 type  1   force =    -0.00000000   -0.00000000   -0.00000000
     The core correction contribution to forces
     atom    1 type  2   force =     0.00000000    0.00000000    0.00000000
     atom    2 type  1   force =     0.00000000    0.00000000    0.00000000
     The Hubbard contrib.    to forces
     atom    1 type  2   force =     0.00000000    0.00000000    0.00000000
     atom    2 type  1   force =     0.00000000    0.00000000    0.00000000
     The SCF correction term to forces
     atom    1 type  2   force =    -0.00000000   -0.00000000   -0.00000000
     atom    2 type  1   force =    -0.00000000   -0.00000000   -0.00000000

     Total force =     0.000000     Total SCF correction =     0.000000


     Computing stress (Cartesian axis) and pressure

          total   stress  (Ry/bohr**3)                   (kbar)     P=       87.59
   0.00073234   0.00000000   0.00000000          107.73        0.00        0.00
   0.00000000   0.00073234   0.00000000            0.00      107.73        0.00
   0.00000000   0.00000000   0.00032158            0.00        0.00       47.31


     BFGS Geometry Optimization
     Energy error            =      0.0E+00 Ry
     Gradient error          =      0.0E+00 Ry/Bohr
     Cell gradient error     =      1.1E+02 kbar

     number of scf cycles    =   1
     number of bfgs steps    =   0

     enthalpy           new  =    -155.1193199920 Ry

     new trust radius        =       0.0500806427 bohr
     new conv_thr            =       0.0000001000 Ry

     new unit-cell volume =    195.52654 a.u.^3 (    28.97404 Ang^3 )
     density =     14.93030 g/cm^3

CELL_PARAMETERS (angstrom)
   2.816641601   0.000000000   0.000000000
   0.000000000   2.816641601   0.000000000
   0.000000000   0.000000000   3.652127532

ATOMIC_POSITIONS (angstrom)
Cu            0.0000000000        0.0000000000        0.0000000000
Au            1.4083208007        1.4083208007        1.8260637659



     Writing config-only to output data dir /home/gridsan/epan1/labutil/lab3_samples/problem3/Lab3/CuAu_a_2.766_c_3.623_ecut_40_nk_1/pwscf.save/
     NEW-OLD atomic charge density approx. for the potential
     extrapolated charge   22.95317, renormalised to   22.00000
     Generating pointlists ...

     total cpu time spent up to now is        1.6 secs

     Self-consistent Calculation

     iteration #  1     ecut=    40.00 Ry     beta= 0.50
     Davidson diagonalization with overlap
     ethr =  1.00E-06,  avg # of iterations =  6.0

     total cpu time spent up to now is        1.6 secs

     total energy              =    -153.32272544 Ry
     estimated scf accuracy    <       2.05716526 Ry

     total magnetization       =    -0.00 Bohr mag/cell
     absolute magnetization    =     0.00 Bohr mag/cell

     iteration #  2     ecut=    40.00 Ry     beta= 0.50
     Davidson diagonalization with overlap
     ethr =  9.35E-03,  avg # of iterations =  2.0

     total cpu time spent up to now is        1.7 secs

     total energy              =    -155.29765396 Ry
     estimated scf accuracy    <       1.78023315 Ry

     total magnetization       =     0.00 Bohr mag/cell
     absolute magnetization    =     0.00 Bohr mag/cell

     iteration #  3     ecut=    40.00 Ry     beta= 0.50
     Davidson diagonalization with overlap
     ethr =  8.09E-03,  avg # of iterations =  1.0

     total cpu time spent up to now is        1.7 secs

     total energy              =    -155.17443769 Ry
     estimated scf accuracy    <       0.56299734 Ry

     total magnetization       =     0.00 Bohr mag/cell
     absolute magnetization    =     0.00 Bohr mag/cell

     iteration #  4     ecut=    40.00 Ry     beta= 0.50
     Davidson diagonalization with overlap
     ethr =  2.56E-03,  avg # of iterations =  1.0

     total cpu time spent up to now is        1.8 secs

     total energy              =    -155.15032856 Ry
     estimated scf accuracy    <       0.18356205 Ry

     total magnetization       =     0.00 Bohr mag/cell
     absolute magnetization    =     0.00 Bohr mag/cell

     iteration #  5     ecut=    40.00 Ry     beta= 0.50
     Davidson diagonalization with overlap
     ethr =  8.34E-04,  avg # of iterations =  1.0

     total cpu time spent up to now is        1.8 secs

     total energy              =    -155.14106647 Ry
     estimated scf accuracy    <       0.08164954 Ry

     total magnetization       =     0.00 Bohr mag/cell
     absolute magnetization    =     0.00 Bohr mag/cell

     iteration #  6     ecut=    40.00 Ry     beta= 0.50
     Davidson diagonalization with overlap
     ethr =  3.71E-04,  avg # of iterations =  1.0

     total cpu time spent up to now is        1.9 secs

     total energy              =    -155.13562045 Ry
     estimated scf accuracy    <       0.05016057 Ry

     total magnetization       =     0.00 Bohr mag/cell
     absolute magnetization    =     0.00 Bohr mag/cell

     iteration #  7     ecut=    40.00 Ry     beta= 0.50
     Davidson diagonalization with overlap
     ethr =  2.28E-04,  avg # of iterations =  1.0

     total cpu time spent up to now is        1.9 secs

     total energy              =    -155.12694065 Ry
     estimated scf accuracy    <       0.03544223 Ry

     total magnetization       =     0.00 Bohr mag/cell
     absolute magnetization    =     0.00 Bohr mag/cell

     iteration #  8     ecut=    40.00 Ry     beta= 0.50
     Davidson diagonalization with overlap
     ethr =  1.61E-04,  avg # of iterations =  1.0

     total cpu time spent up to now is        2.0 secs

     total energy              =    -155.12460959 Ry
     estimated scf accuracy    <       0.01543297 Ry

     total magnetization       =     0.00 Bohr mag/cell
     absolute magnetization    =     0.00 Bohr mag/cell

     iteration #  9     ecut=    40.00 Ry     beta= 0.50
     Davidson diagonalization with overlap
     ethr =  7.01E-05,  avg # of iterations =  1.0

     total cpu time spent up to now is        2.0 secs

     total energy              =    -155.12143221 Ry
     estimated scf accuracy    <       0.00783443 Ry

     total magnetization       =     0.00 Bohr mag/cell
     absolute magnetization    =     0.00 Bohr mag/cell

     iteration # 10     ecut=    40.00 Ry     beta= 0.50
     Davidson diagonalization with overlap
     ethr =  3.56E-05,  avg # of iterations =  2.0

     total cpu time spent up to now is        2.0 secs

     total energy              =    -155.12163822 Ry
     estimated scf accuracy    <       0.00087837 Ry

     total magnetization       =     0.00 Bohr mag/cell
     absolute magnetization    =     0.00 Bohr mag/cell

     iteration # 11     ecut=    40.00 Ry     beta= 0.50
     Davidson diagonalization with overlap
     ethr =  3.99E-06,  avg # of iterations =  2.0

     total cpu time spent up to now is        2.1 secs

     total energy              =    -155.12185001 Ry
     estimated scf accuracy    <       0.00000064 Ry

     total magnetization       =    -0.00 Bohr mag/cell
     absolute magnetization    =     0.00 Bohr mag/cell

     iteration # 12     ecut=    40.00 Ry     beta= 0.50
     Davidson diagonalization with overlap
     ethr =  2.92E-09,  avg # of iterations =  4.0

     total cpu time spent up to now is        2.1 secs

     total energy              =    -155.12185163 Ry
     estimated scf accuracy    <       0.00000056 Ry

     total magnetization       =     0.00 Bohr mag/cell
     absolute magnetization    =     0.00 Bohr mag/cell

     iteration # 13     ecut=    40.00 Ry     beta= 0.50
     Davidson diagonalization with overlap
     ethr =  2.53E-09,  avg # of iterations =  2.0

     total cpu time spent up to now is        2.2 secs

     total energy              =    -155.12185143 Ry
     estimated scf accuracy    <       0.00000093 Ry

     total magnetization       =     0.00 Bohr mag/cell
     absolute magnetization    =     0.00 Bohr mag/cell

     iteration # 14     ecut=    40.00 Ry     beta= 0.50
     Davidson diagonalization with overlap
     ethr =  2.53E-09,  avg # of iterations =  2.0

     total cpu time spent up to now is        2.2 secs

     total energy              =    -155.12185157 Ry
     estimated scf accuracy    <       0.00000012 Ry

     total magnetization       =    -0.00 Bohr mag/cell
     absolute magnetization    =     0.00 Bohr mag/cell

     iteration # 15     ecut=    40.00 Ry     beta= 0.50
     Davidson diagonalization with overlap
     ethr =  5.65E-10,  avg # of iterations =  2.0

     total cpu time spent up to now is        2.3 secs

     total energy              =    -155.12185148 Ry
     estimated scf accuracy    <       0.00000027 Ry

     total magnetization       =     0.00 Bohr mag/cell
     absolute magnetization    =     0.00 Bohr mag/cell

     iteration # 16     ecut=    40.00 Ry     beta= 0.50
     Davidson diagonalization with overlap
     ethr =  5.65E-10,  avg # of iterations =  2.0

     Magnetic moment per site  (integrated on atomic sphere of radius R)
     atom   1 (R=0.398)  charge= 10.0607  magn= -0.0000
     atom   2 (R=0.398)  charge=  9.0618  magn=  0.0000

     total cpu time spent up to now is        2.3 secs

     End of self-consistent calculation

 ------ SPIN UP ------------


          k = 0.0000 0.0000 0.0000 (   821 PWs)   bands (ev):

     5.1318   9.1017   9.5532  11.8224  11.8224  13.0524  13.2705  13.6947
    14.4980  14.5377  14.5377  17.1494  23.5353  25.0557  25.0557

 ------ SPIN DOWN ----------


          k = 0.0000 0.0000 0.0000 (   821 PWs)   bands (ev):

     5.1318   9.1017   9.5532  11.8224  11.8224  13.0524  13.2705  13.6947
    14.4980  14.5377  14.5377  17.1494  23.5353  25.0557  25.0557

     the Fermi energy is    15.8864 ev

!    total energy              =    -155.12185148 Ry
     estimated scf accuracy    <       0.00000003 Ry
     smearing contrib. (-TS)   =       0.00000000 Ry
     internal energy E=F+TS    =    -155.12185148 Ry

     The total energy is F=E-TS. E is the sum of the following terms:
     one-electron contribution =      -8.89148099 Ry
     hartree contribution      =      30.41757026 Ry
     xc contribution           =     -24.93032060 Ry
     ewald contribution        =    -151.71762015 Ry

     total magnetization       =    -0.00 Bohr mag/cell
     absolute magnetization    =     0.00 Bohr mag/cell

     convergence has been achieved in  16 iterations

     Forces acting on atoms (cartesian axes, Ry/au):

     atom    1 type  2   force =     0.00000000    0.00000000    0.00000000
     atom    2 type  1   force =     0.00000000    0.00000000    0.00000000
     The non-local contrib.  to forces
     atom    1 type  2   force =     0.00000000    0.00000000    0.00000000
     atom    2 type  1   force =     0.00000000    0.00000000    0.00000000
     The ionic contribution  to forces
     atom    1 type  2   force =    -0.00000000   -0.00000000   -0.00000000
     atom    2 type  1   force =    -0.00000000   -0.00000000   -0.00000000
     The local contribution  to forces
     atom    1 type  2   force =     0.00000000    0.00000000   -0.00000000
     atom    2 type  1   force =     0.00000000    0.00000000   -0.00000000
     The core correction contribution to forces
     atom    1 type  2   force =     0.00000000    0.00000000    0.00000000
     atom    2 type  1   force =     0.00000000    0.00000000    0.00000000
     The Hubbard contrib.    to forces
     atom    1 type  2   force =     0.00000000    0.00000000    0.00000000
     atom    2 type  1   force =     0.00000000    0.00000000    0.00000000
     The SCF correction term to forces
     atom    1 type  2   force =     0.00000000   -0.00000000    0.00000000
     atom    2 type  1   force =     0.00000000   -0.00000000   -0.00000000

     Total force =     0.000000     Total SCF correction =     0.000000


     Computing stress (Cartesian axis) and pressure

          total   stress  (Ry/bohr**3)                   (kbar)     P=      -10.67
  -0.00001064   0.00000000   0.00000000           -1.56        0.00        0.00
   0.00000000  -0.00001064   0.00000000            0.00       -1.56        0.00
   0.00000000   0.00000000  -0.00019633            0.00        0.00      -28.88

     Energy error            =      2.5E-03 Ry
     Gradient error          =      0.0E+00 Ry/Bohr
     Cell gradient error     =      2.9E+01 kbar

     number of scf cycles    =   2
     number of bfgs steps    =   1

     enthalpy           old  =    -155.1193199920 Ry
     enthalpy           new  =    -155.1218514814 Ry

     CASE: enthalpy          _new < enthalpy          _old

     new trust radius        =       0.0126077783 bohr
     new conv_thr            =       0.0000000010 Ry

     new unit-cell volume =    194.73509 a.u.^3 (    28.85676 Ang^3 )
     density =     14.99098 g/cm^3

CELL_PARAMETERS (angstrom)
   2.817292932   0.000000000   0.000000000
   0.000000000   2.817292932   0.000000000
   0.000000000   0.000000000   3.635662914

ATOMIC_POSITIONS (angstrom)
Cu            0.0000000000        0.0000000000        0.0000000000
Au            1.4086464661        1.4086464661        1.8178314572



     Writing config-only to output data dir /home/gridsan/epan1/labutil/lab3_samples/problem3/Lab3/CuAu_a_2.766_c_3.623_ecut_40_nk_1/pwscf.save/
     NEW-OLD atomic charge density approx. for the potential
     extrapolated charge   21.91059, renormalised to   22.00000
     Generating pointlists ...

     total cpu time spent up to now is        2.8 secs

     Self-consistent Calculation

     iteration #  1     ecut=    40.00 Ry     beta= 0.50
     Davidson diagonalization with overlap
     ethr =  1.00E-06,  avg # of iterations =  3.0

     total cpu time spent up to now is        2.9 secs

     total energy              =    -155.12094020 Ry
     estimated scf accuracy    <       0.00084731 Ry

     total magnetization       =     0.00 Bohr mag/cell
     absolute magnetization    =     0.00 Bohr mag/cell

     iteration #  2     ecut=    40.00 Ry     beta= 0.50
     Davidson diagonalization with overlap
     ethr =  3.85E-06,  avg # of iterations =  3.0

     total cpu time spent up to now is        2.9 secs

     total energy              =    -155.12202216 Ry
     estimated scf accuracy    <       0.00085436 Ry

     total magnetization       =    -0.00 Bohr mag/cell
     absolute magnetization    =     0.00 Bohr mag/cell

     iteration #  3     ecut=    40.00 Ry     beta= 0.50
     Davidson diagonalization with overlap
     ethr =  3.85E-06,  avg # of iterations =  2.0

     total cpu time spent up to now is        3.0 secs

     total energy              =    -155.12201860 Ry
     estimated scf accuracy    <       0.00018812 Ry

     total magnetization       =     0.00 Bohr mag/cell
     absolute magnetization    =     0.00 Bohr mag/cell

     iteration #  4     ecut=    40.00 Ry     beta= 0.50
     Davidson diagonalization with overlap
     ethr =  8.55E-07,  avg # of iterations =  2.0

     total cpu time spent up to now is        3.0 secs

     total energy              =    -155.12198446 Ry
     estimated scf accuracy    <       0.00006218 Ry

     total magnetization       =    -0.00 Bohr mag/cell
     absolute magnetization    =     0.00 Bohr mag/cell

     iteration #  5     ecut=    40.00 Ry     beta= 0.50
     Davidson diagonalization with overlap
     ethr =  2.83E-07,  avg # of iterations =  2.0

     total cpu time spent up to now is        3.1 secs

     total energy              =    -155.12200315 Ry
     estimated scf accuracy    <       0.00000303 Ry

     total magnetization       =     0.00 Bohr mag/cell
     absolute magnetization    =     0.00 Bohr mag/cell

     iteration #  6     ecut=    40.00 Ry     beta= 0.50
     Davidson diagonalization with overlap
     ethr =  1.38E-08,  avg # of iterations =  1.0

     total cpu time spent up to now is        3.1 secs

     total energy              =    -155.12200290 Ry
     estimated scf accuracy    <       0.00000105 Ry

     total magnetization       =     0.00 Bohr mag/cell
     absolute magnetization    =     0.00 Bohr mag/cell

     iteration #  7     ecut=    40.00 Ry     beta= 0.50
     Davidson diagonalization with overlap
     ethr =  4.75E-09,  avg # of iterations =  2.0

     total cpu time spent up to now is        3.2 secs

     total energy              =    -155.12200280 Ry
     estimated scf accuracy    <       0.00000024 Ry

     total magnetization       =    -0.00 Bohr mag/cell
     absolute magnetization    =     0.00 Bohr mag/cell

     iteration #  8     ecut=    40.00 Ry     beta= 0.50
     Davidson diagonalization with overlap
     ethr =  1.07E-09,  avg # of iterations =  2.0

     total cpu time spent up to now is        3.2 secs

     total energy              =    -155.12200287 Ry
     estimated scf accuracy    <       0.00000001 Ry

     total magnetization       =    -0.00 Bohr mag/cell
     absolute magnetization    =     0.00 Bohr mag/cell

     iteration #  9     ecut=    40.00 Ry     beta= 0.50
     Davidson diagonalization with overlap
     ethr =  6.01E-11,  avg # of iterations =  2.0

     total cpu time spent up to now is        3.3 secs

     total energy              =    -155.12200287 Ry
     estimated scf accuracy    <          1.1E-09 Ry

     total magnetization       =    -0.00 Bohr mag/cell
     absolute magnetization    =     0.00 Bohr mag/cell

     iteration # 10     ecut=    40.00 Ry     beta= 0.50
     Davidson diagonalization with overlap
     ethr =  5.13E-12,  avg # of iterations =  2.0

     Magnetic moment per site  (integrated on atomic sphere of radius R)
     atom   1 (R=0.398)  charge= 10.0655  magn= -0.0000
     atom   2 (R=0.398)  charge=  9.0648  magn=  0.0000

     total cpu time spent up to now is        3.3 secs

     End of self-consistent calculation

 ------ SPIN UP ------------


          k = 0.0000 0.0000 0.0000 (   821 PWs)   bands (ev):

     5.1791   9.1612   9.6071  11.8875  11.8875  13.1402  13.3243  13.7879
    14.5812  14.6269  14.6269  17.3047  23.7464  25.0993  25.0993

 ------ SPIN DOWN ----------


          k = 0.0000 0.0000 0.0000 (   821 PWs)   bands (ev):

     5.1791   9.1612   9.6071  11.8875  11.8875  13.1402  13.3243  13.7879
    14.5812  14.6269  14.6269  17.3047  23.7464  25.0993  25.0993

     the Fermi energy is    15.9318 ev

!    total energy              =    -155.12200287 Ry
     estimated scf accuracy    <          1.6E-10 Ry
     smearing contrib. (-TS)   =       0.00000000 Ry
     internal energy E=F+TS    =    -155.12200287 Ry

     The total energy is F=E-TS. E is the sum of the following terms:
     one-electron contribution =      -8.59484284 Ry
     hartree contribution      =      30.33211988 Ry
     xc contribution           =     -24.93704141 Ry
     ewald contribution        =    -151.92223851 Ry

     total magnetization       =     0.00 Bohr mag/cell
     absolute magnetization    =     0.00 Bohr mag/cell

     convergence has been achieved in  10 iterations

     Forces acting on atoms (cartesian axes, Ry/au):

     atom    1 type  2   force =     0.00000000    0.00000000    0.00000000
     atom    2 type  1   force =     0.00000000    0.00000000    0.00000000
     The non-local contrib.  to forces
     atom    1 type  2   force =     0.00000000    0.00000000    0.00000000
     atom    2 type  1   force =     0.00000000    0.00000000    0.00000000
     The ionic contribution  to forces
     atom    1 type  2   force =    -0.00000000   -0.00000000    0.00000000
     atom    2 type  1   force =    -0.00000000   -0.00000000   -0.00000000
     The local contribution  to forces
     atom    1 type  2   force =     0.00000000    0.00000000    0.00000000
     atom    2 type  1   force =     0.00000000    0.00000000    0.00000000
     The core correction contribution to forces
     atom    1 type  2   force =     0.00000000    0.00000000    0.00000000
     atom    2 type  1   force =     0.00000000    0.00000000    0.00000000
     The Hubbard contrib.    to forces
     atom    1 type  2   force =     0.00000000    0.00000000    0.00000000
     atom    2 type  1   force =     0.00000000    0.00000000    0.00000000
     The SCF correction term to forces
     atom    1 type  2   force =    -0.00000000    0.00000000   -0.00000000
     atom    2 type  1   force =     0.00000000   -0.00000000   -0.00000000

     Total force =     0.000000     Total SCF correction =     0.000000


     Computing stress (Cartesian axis) and pressure

          total   stress  (Ry/bohr**3)                   (kbar)     P=       -3.56
   0.00004277   0.00000000   0.00000000            6.29        0.00        0.00
   0.00000000   0.00004277   0.00000000            0.00        6.29        0.00
   0.00000000   0.00000000  -0.00015809            0.00        0.00      -23.26

     Energy error            =      1.5E-04 Ry
     Gradient error          =      0.0E+00 Ry/Bohr
     Cell gradient error     =      2.3E+01 kbar

     number of scf cycles    =   3
     number of bfgs steps    =   2

     enthalpy           old  =    -155.1218514814 Ry
     enthalpy           new  =    -155.1220028743 Ry

     CASE: enthalpy          _new < enthalpy          _old


     WARNING: bfgs curvature condition failed, Theta= 0.961
     new trust radius        =       0.0139031377 bohr
     new conv_thr            =       0.0000000010 Ry

     new unit-cell volume =    194.18285 a.u.^3 (    28.77493 Ang^3 )
     density =     15.03362 g/cm^3

CELL_PARAMETERS (angstrom)
   2.820328905   0.000000000   0.000000000
   0.000000000   2.820328905   0.000000000
   0.000000000   0.000000000   3.617551835

ATOMIC_POSITIONS (angstrom)
Cu            0.0000000000        0.0000000000        0.0000000000
Au            1.4101644525        1.4101644525        1.8087759177



     Writing config-only to output data dir /home/gridsan/epan1/labutil/lab3_samples/problem3/Lab3/CuAu_a_2.766_c_3.623_ecut_40_nk_1/pwscf.save/
     NEW-OLD atomic charge density approx. for the potential
     extrapolated charge   21.93744, renormalised to   22.00000
     Generating pointlists ...

     total cpu time spent up to now is        3.8 secs

     Self-consistent Calculation

     iteration #  1     ecut=    40.00 Ry     beta= 0.50
     Davidson diagonalization with overlap
     ethr =  1.00E-06,  avg # of iterations =  3.0

     total cpu time spent up to now is        3.8 secs

     total energy              =    -155.12163899 Ry
     estimated scf accuracy    <       0.00043537 Ry

     total magnetization       =     0.00 Bohr mag/cell
     absolute magnetization    =     0.00 Bohr mag/cell

     iteration #  2     ecut=    40.00 Ry     beta= 0.50
     Davidson diagonalization with overlap
     ethr =  1.98E-06,  avg # of iterations =  3.0

     total cpu time spent up to now is        3.9 secs

     total energy              =    -155.12217933 Ry
     estimated scf accuracy    <       0.00042394 Ry

     total magnetization       =    -0.00 Bohr mag/cell
     absolute magnetization    =     0.00 Bohr mag/cell

     iteration #  3     ecut=    40.00 Ry     beta= 0.50
     Davidson diagonalization with overlap
     ethr =  1.93E-06,  avg # of iterations =  2.0

     total cpu time spent up to now is        3.9 secs

     total energy              =    -155.12217462 Ry
     estimated scf accuracy    <       0.00009141 Ry

     total magnetization       =    -0.00 Bohr mag/cell
     absolute magnetization    =     0.00 Bohr mag/cell

     iteration #  4     ecut=    40.00 Ry     beta= 0.50
     Davidson diagonalization with overlap
     ethr =  4.15E-07,  avg # of iterations =  2.0

     total cpu time spent up to now is        4.0 secs

     total energy              =    -155.12216330 Ry
     estimated scf accuracy    <       0.00002348 Ry

     total magnetization       =     0.00 Bohr mag/cell
     absolute magnetization    =     0.00 Bohr mag/cell

     iteration #  5     ecut=    40.00 Ry     beta= 0.50
     Davidson diagonalization with overlap
     ethr =  1.07E-07,  avg # of iterations =  2.0

     total cpu time spent up to now is        4.0 secs

     total energy              =    -155.12217075 Ry
     estimated scf accuracy    <       0.00000186 Ry

     total magnetization       =     0.00 Bohr mag/cell
     absolute magnetization    =     0.00 Bohr mag/cell

     iteration #  6     ecut=    40.00 Ry     beta= 0.50
     Davidson diagonalization with overlap
     ethr =  8.47E-09,  avg # of iterations =  1.0

     total cpu time spent up to now is        4.1 secs

     total energy              =    -155.12217068 Ry
     estimated scf accuracy    <       0.00000043 Ry

     total magnetization       =     0.00 Bohr mag/cell
     absolute magnetization    =     0.00 Bohr mag/cell

     iteration #  7     ecut=    40.00 Ry     beta= 0.50
     Davidson diagonalization with overlap
     ethr =  1.97E-09,  avg # of iterations =  2.0

     total cpu time spent up to now is        4.1 secs

     total energy              =    -155.12217067 Ry
     estimated scf accuracy    <       0.00000007 Ry

     total magnetization       =     0.00 Bohr mag/cell
     absolute magnetization    =     0.00 Bohr mag/cell

     iteration #  8     ecut=    40.00 Ry     beta= 0.50
     Davidson diagonalization with overlap
     ethr =  3.37E-10,  avg # of iterations =  2.0

     total cpu time spent up to now is        4.2 secs

     total energy              =    -155.12217069 Ry
     estimated scf accuracy    <          1.4E-09 Ry

     total magnetization       =     0.00 Bohr mag/cell
     absolute magnetization    =     0.00 Bohr mag/cell

     iteration #  9     ecut=    40.00 Ry     beta= 0.50
     Davidson diagonalization with overlap
     ethr =  6.17E-12,  avg # of iterations =  2.0

     Magnetic moment per site  (integrated on atomic sphere of radius R)
     atom   1 (R=0.398)  charge= 10.0688  magn= -0.0000
     atom   2 (R=0.398)  charge=  9.0663  magn=  0.0000

     total cpu time spent up to now is        4.2 secs

     End of self-consistent calculation

 ------ SPIN UP ------------


          k = 0.0000 0.0000 0.0000 (   821 PWs)   bands (ev):

     5.2122   9.2054   9.6426  11.9294  11.9294  13.2106  13.3471  13.8606
    14.6382  14.6912  14.6912  17.4572  23.9443  25.0947  25.0947

 ------ SPIN DOWN ----------


          k = 0.0000 0.0000 0.0000 (   821 PWs)   bands (ev):

     5.2122   9.2054   9.6426  11.9294  11.9294  13.2106  13.3471  13.8606
    14.6382  14.6912  14.6912  17.4572  23.9443  25.0947  25.0947

     the Fermi energy is    16.1427 ev

!    total energy              =    -155.12217069 Ry
     estimated scf accuracy    <          3.0E-10 Ry
     smearing contrib. (-TS)   =       0.00000000 Ry
     internal energy E=F+TS    =    -155.12217069 Ry

     The total energy is F=E-TS. E is the sum of the following terms:
     one-electron contribution =      -8.38657767 Ry
     hartree contribution      =      30.27105539 Ry
     xc contribution           =     -24.94131335 Ry
     ewald contribution        =    -152.06533506 Ry

     total magnetization       =    -0.00 Bohr mag/cell
     absolute magnetization    =     0.00 Bohr mag/cell

     convergence has been achieved in   9 iterations

     Forces acting on atoms (cartesian axes, Ry/au):

     atom    1 type  2   force =     0.00000000    0.00000000    0.00000000
     atom    2 type  1   force =     0.00000000    0.00000000    0.00000000
     The non-local contrib.  to forces
     atom    1 type  2   force =     0.00000000    0.00000000    0.00000000
     atom    2 type  1   force =     0.00000000    0.00000000    0.00000000
     The ionic contribution  to forces
     atom    1 type  2   force =    -0.00000000   -0.00000000    0.00000000
     atom    2 type  1   force =     0.00000000    0.00000000    0.00000000
     The local contribution  to forces
     atom    1 type  2   force =    -0.00000000    0.00000000   -0.00000000
     atom    2 type  1   force =     0.00000000    0.00000000    0.00000000
     The core correction contribution to forces
     atom    1 type  2   force =     0.00000000    0.00000000    0.00000000
     atom    2 type  1   force =     0.00000000    0.00000000    0.00000000
     The Hubbard contrib.    to forces
     atom    1 type  2   force =     0.00000000    0.00000000    0.00000000
     atom    2 type  1   force =     0.00000000    0.00000000    0.00000000
     The SCF correction term to forces
     atom    1 type  2   force =    -0.00000000    0.00000000   -0.00000000
     atom    2 type  1   force =    -0.00000000    0.00000000    0.00000000

     Total force =     0.000000     Total SCF correction =     0.000000


     Computing stress (Cartesian axis) and pressure

          total   stress  (Ry/bohr**3)                   (kbar)     P=       -0.65
   0.00006574   0.00000000   0.00000000            9.67        0.00        0.00
   0.00000000   0.00006574   0.00000000            0.00        9.67        0.00
   0.00000000   0.00000000  -0.00014468            0.00        0.00      -21.28

     Energy error            =      1.7E-04 Ry
     Gradient error          =      0.0E+00 Ry/Bohr
     Cell gradient error     =      2.1E+01 kbar

     number of scf cycles    =   4
     number of bfgs steps    =   3

     enthalpy           old  =    -155.1220028743 Ry
     enthalpy           new  =    -155.1221706879 Ry

     CASE: enthalpy          _new < enthalpy          _old


     WARNING: bfgs curvature condition failed, Theta= 0.970
     new trust radius        =       0.0209293751 bohr
     new conv_thr            =       0.0000000010 Ry

     new unit-cell volume =    193.44595 a.u.^3 (    28.66573 Ang^3 )
     density =     15.09089 g/cm^3

CELL_PARAMETERS (angstrom)
   2.825602060   0.000000000   0.000000000
   0.000000000   2.825602060   0.000000000
   0.000000000   0.000000000   3.590385217

ATOMIC_POSITIONS (angstrom)
Cu            0.0000000000        0.0000000000        0.0000000000
Au            1.4128010300        1.4128010300        1.7951926083



     Writing config-only to output data dir /home/gridsan/epan1/labutil/lab3_samples/problem3/Lab3/CuAu_a_2.766_c_3.623_ecut_40_nk_1/pwscf.save/
     NEW-OLD atomic charge density approx. for the potential
     extrapolated charge   21.91620, renormalised to   22.00000
     Generating pointlists ...

     total cpu time spent up to now is        4.7 secs

     Self-consistent Calculation

     iteration #  1     ecut=    40.00 Ry     beta= 0.50
     Davidson diagonalization with overlap
     ethr =  1.00E-06,  avg # of iterations =  3.0

     total cpu time spent up to now is        4.8 secs

     total energy              =    -155.12147682 Ry
     estimated scf accuracy    <       0.00078348 Ry

     total magnetization       =     0.00 Bohr mag/cell
     absolute magnetization    =     0.00 Bohr mag/cell

     iteration #  2     ecut=    40.00 Ry     beta= 0.50
     Davidson diagonalization with overlap
     ethr =  3.56E-06,  avg # of iterations =  3.0

     total cpu time spent up to now is        4.8 secs

     total energy              =    -155.12244086 Ry
     estimated scf accuracy    <       0.00074868 Ry

     total magnetization       =     0.00 Bohr mag/cell
     absolute magnetization    =     0.00 Bohr mag/cell

     iteration #  3     ecut=    40.00 Ry     beta= 0.50
     Davidson diagonalization with overlap
     ethr =  3.40E-06,  avg # of iterations =  2.0

     total cpu time spent up to now is        4.8 secs

     total energy              =    -155.12243044 Ry
     estimated scf accuracy    <       0.00016040 Ry

     total magnetization       =    -0.00 Bohr mag/cell
     absolute magnetization    =     0.00 Bohr mag/cell

     iteration #  4     ecut=    40.00 Ry     beta= 0.50
     Davidson diagonalization with overlap
     ethr =  7.29E-07,  avg # of iterations =  2.0

     total cpu time spent up to now is        4.9 secs

     total energy              =    -155.12241410 Ry
     estimated scf accuracy    <       0.00003710 Ry

     total magnetization       =    -0.00 Bohr mag/cell
     absolute magnetization    =     0.00 Bohr mag/cell

     iteration #  5     ecut=    40.00 Ry     beta= 0.50
     Davidson diagonalization with overlap
     ethr =  1.69E-07,  avg # of iterations =  2.0

     total cpu time spent up to now is        4.9 secs

     total energy              =    -155.12242607 Ry
     estimated scf accuracy    <       0.00000340 Ry

     total magnetization       =     0.00 Bohr mag/cell
     absolute magnetization    =     0.00 Bohr mag/cell

     iteration #  6     ecut=    40.00 Ry     beta= 0.50
     Davidson diagonalization with overlap
     ethr =  1.54E-08,  avg # of iterations =  1.0

     total cpu time spent up to now is        5.0 secs

     total energy              =    -155.12242598 Ry
     estimated scf accuracy    <       0.00000069 Ry

     total magnetization       =     0.00 Bohr mag/cell
     absolute magnetization    =     0.00 Bohr mag/cell

     iteration #  7     ecut=    40.00 Ry     beta= 0.50
     Davidson diagonalization with overlap
     ethr =  3.14E-09,  avg # of iterations =  2.0

     total cpu time spent up to now is        5.0 secs

     total energy              =    -155.12242599 Ry
     estimated scf accuracy    <       0.00000009 Ry

     total magnetization       =     0.00 Bohr mag/cell
     absolute magnetization    =     0.00 Bohr mag/cell

     iteration #  8     ecut=    40.00 Ry     beta= 0.50
     Davidson diagonalization with overlap
     ethr =  4.01E-10,  avg # of iterations =  2.0

     total cpu time spent up to now is        5.1 secs

     total energy              =    -155.12242601 Ry
     estimated scf accuracy    <          3.1E-09 Ry

     total magnetization       =    -0.00 Bohr mag/cell
     absolute magnetization    =     0.00 Bohr mag/cell

     iteration #  9     ecut=    40.00 Ry     beta= 0.50
     Davidson diagonalization with overlap
     ethr =  1.39E-11,  avg # of iterations =  2.0

     Magnetic moment per site  (integrated on atomic sphere of radius R)
     atom   1 (R=0.398)  charge= 10.0735  magn= -0.0000
     atom   2 (R=0.398)  charge=  9.0679  magn=  0.0000

     total cpu time spent up to now is        5.1 secs

     End of self-consistent calculation

 ------ SPIN UP ------------


          k = 0.0000 0.0000 0.0000 (   821 PWs)   bands (ev):

     5.2568   9.2660   9.6890  11.9846  11.9846  13.3090  13.3701  13.9600
    14.7146  14.7775  14.7775  17.6841  24.2336  25.0725  25.0725

 ------ SPIN DOWN ----------


          k = 0.0000 0.0000 0.0000 (   821 PWs)   bands (ev):

     5.2568   9.2660   9.6890  11.9846  11.9846  13.3090  13.3701  13.9600
    14.7146  14.7775  14.7775  17.6841  24.2336  25.0725  25.0725

     the Fermi energy is    16.3486 ev

!    total energy              =    -155.12242601 Ry
     estimated scf accuracy    <          6.7E-10 Ry
     smearing contrib. (-TS)   =       0.00000000 Ry
     internal energy E=F+TS    =    -155.12242601 Ry

     The total energy is F=E-TS. E is the sum of the following terms:
     one-electron contribution =      -8.10730965 Ry
     hartree contribution      =      30.18882483 Ry
     xc contribution           =     -24.94687964 Ry
     ewald contribution        =    -152.25706155 Ry

     total magnetization       =     0.00 Bohr mag/cell
     absolute magnetization    =     0.00 Bohr mag/cell

     convergence has been achieved in   9 iterations

     Forces acting on atoms (cartesian axes, Ry/au):

     atom    1 type  2   force =     0.00000000    0.00000000    0.00000000
     atom    2 type  1   force =     0.00000000    0.00000000    0.00000000
     The non-local contrib.  to forces
     atom    1 type  2   force =     0.00000000    0.00000000    0.00000000
     atom    2 type  1   force =     0.00000000    0.00000000    0.00000000
     The ionic contribution  to forces
     atom    1 type  2   force =     0.00000000    0.00000000    0.00000000
     atom    2 type  1   force =    -0.00000000   -0.00000000    0.00000000
     The local contribution  to forces
     atom    1 type  2   force =     0.00000000    0.00000000   -0.00000000
     atom    2 type  1   force =     0.00000000    0.00000000    0.00000000
     The core correction contribution to forces
     atom    1 type  2   force =     0.00000000    0.00000000    0.00000000
     atom    2 type  1   force =     0.00000000    0.00000000    0.00000000
     The Hubbard contrib.    to forces
     atom    1 type  2   force =     0.00000000    0.00000000    0.00000000
     atom    2 type  1   force =     0.00000000    0.00000000    0.00000000
     The SCF correction term to forces
     atom    1 type  2   force =     0.00000000   -0.00000000    0.00000000
     atom    2 type  1   force =     0.00000000    0.00000000   -0.00000000

     Total force =     0.000000     Total SCF correction =     0.000000


     Computing stress (Cartesian axis) and pressure

          total   stress  (Ry/bohr**3)                   (kbar)     P=        2.84
   0.00009397   0.00000000   0.00000000           13.82        0.00        0.00
   0.00000000   0.00009397   0.00000000            0.00       13.82        0.00
   0.00000000   0.00000000  -0.00013011            0.00        0.00      -19.14

     Energy error            =      2.6E-04 Ry
     Gradient error          =      0.0E+00 Ry/Bohr
     Cell gradient error     =      1.9E+01 kbar

     number of scf cycles    =   5
     number of bfgs steps    =   4

     enthalpy           old  =    -155.1221706879 Ry
     enthalpy           new  =    -155.1224260120 Ry

     CASE: enthalpy          _new < enthalpy          _old


     WARNING: bfgs curvature condition failed, Theta= 0.900
     new trust radius        =       0.0315715292 bohr
     new conv_thr            =       0.0000000010 Ry

     new unit-cell volume =    192.34329 a.u.^3 (    28.50233 Ang^3 )
     density =     15.17740 g/cm^3

CELL_PARAMETERS (angstrom)
   2.833663965   0.000000000   0.000000000
   0.000000000   2.833663965   0.000000000
   0.000000000   0.000000000   3.549635288

ATOMIC_POSITIONS (angstrom)
Cu            0.0000000000        0.0000000000        0.0000000000
Au            1.4168319826        1.4168319826        1.7748176442



     Writing config-only to output data dir /home/gridsan/epan1/labutil/lab3_samples/problem3/Lab3/CuAu_a_2.766_c_3.623_ecut_40_nk_1/pwscf.save/
     NEW-OLD atomic charge density approx. for the potential
     extrapolated charge   21.87388, renormalised to   22.00000
     Generating pointlists ...

     total cpu time spent up to now is        5.6 secs

     Self-consistent Calculation

     iteration #  1     ecut=    40.00 Ry     beta= 0.50
     Davidson diagonalization with overlap
     ethr =  1.00E-06,  avg # of iterations =  5.0

     total cpu time spent up to now is        5.7 secs

     total energy              =    -155.12072612 Ry
     estimated scf accuracy    <       0.00171314 Ry

     total magnetization       =    -0.00 Bohr mag/cell
     absolute magnetization    =     0.00 Bohr mag/cell

     iteration #  2     ecut=    40.00 Ry     beta= 0.50
     Davidson diagonalization with overlap
     ethr =  7.79E-06,  avg # of iterations =  3.0

     total cpu time spent up to now is        5.7 secs

     total energy              =    -155.12284912 Ry
     estimated scf accuracy    <       0.00161507 Ry

     total magnetization       =     0.00 Bohr mag/cell
     absolute magnetization    =     0.00 Bohr mag/cell

     iteration #  3     ecut=    40.00 Ry     beta= 0.50
     Davidson diagonalization with overlap
     ethr =  7.34E-06,  avg # of iterations =  2.0

     total cpu time spent up to now is        5.8 secs

     total energy              =    -155.12282066 Ry
     estimated scf accuracy    <       0.00035250 Ry

     total magnetization       =    -0.00 Bohr mag/cell
     absolute magnetization    =     0.00 Bohr mag/cell

     iteration #  4     ecut=    40.00 Ry     beta= 0.50
     Davidson diagonalization with overlap
     ethr =  1.60E-06,  avg # of iterations =  2.0

     total cpu time spent up to now is        5.8 secs

     total energy              =    -155.12278814 Ry
     estimated scf accuracy    <       0.00007833 Ry

     total magnetization       =     0.00 Bohr mag/cell
     absolute magnetization    =     0.00 Bohr mag/cell

     iteration #  5     ecut=    40.00 Ry     beta= 0.50
     Davidson diagonalization with overlap
     ethr =  3.56E-07,  avg # of iterations =  2.0

     total cpu time spent up to now is        5.9 secs

     total energy              =    -155.12281358 Ry
     estimated scf accuracy    <       0.00000665 Ry

     total magnetization       =    -0.00 Bohr mag/cell
     absolute magnetization    =     0.00 Bohr mag/cell

     iteration #  6     ecut=    40.00 Ry     beta= 0.50
     Davidson diagonalization with overlap
     ethr =  3.02E-08,  avg # of iterations =  1.0

     total cpu time spent up to now is        5.9 secs

     total energy              =    -155.12281300 Ry
     estimated scf accuracy    <       0.00000186 Ry

     total magnetization       =    -0.00 Bohr mag/cell
     absolute magnetization    =     0.00 Bohr mag/cell

     iteration #  7     ecut=    40.00 Ry     beta= 0.50
     Davidson diagonalization with overlap
     ethr =  8.45E-09,  avg # of iterations =  2.0

     total cpu time spent up to now is        6.0 secs

     total energy              =    -155.12281314 Ry
     estimated scf accuracy    <       0.00000013 Ry

     total magnetization       =     0.00 Bohr mag/cell
     absolute magnetization    =     0.00 Bohr mag/cell

     iteration #  8     ecut=    40.00 Ry     beta= 0.50
     Davidson diagonalization with overlap
     ethr =  5.74E-10,  avg # of iterations =  2.0

     total cpu time spent up to now is        6.0 secs

     total energy              =    -155.12281318 Ry
     estimated scf accuracy    <          7.7E-09 Ry

     total magnetization       =     0.00 Bohr mag/cell
     absolute magnetization    =     0.00 Bohr mag/cell

     iteration #  9     ecut=    40.00 Ry     beta= 0.50
     Davidson diagonalization with overlap
     ethr =  3.51E-11,  avg # of iterations =  1.0

     total cpu time spent up to now is        6.0 secs

     total energy              =    -155.12281318 Ry
     estimated scf accuracy    <          2.6E-09 Ry

     total magnetization       =    -0.00 Bohr mag/cell
     absolute magnetization    =     0.00 Bohr mag/cell

     iteration # 10     ecut=    40.00 Ry     beta= 0.50
     Davidson diagonalization with overlap
     ethr =  1.18E-11,  avg # of iterations =  2.0

     Magnetic moment per site  (integrated on atomic sphere of radius R)
     atom   1 (R=0.398)  charge= 10.0804  magn=  0.0000
     atom   2 (R=0.398)  charge=  9.0704  magn=  0.0000

     total cpu time spent up to now is        6.1 secs

     End of self-consistent calculation

 ------ SPIN UP ------------


          k = 0.0000 0.0000 0.0000 (   821 PWs)   bands (ev):

     5.3241   9.3576   9.7587  12.0697  12.0697  13.4031  13.4578  14.1067
    14.8309  14.9065  14.9065  18.0335  24.6736  25.0384  25.0384

 ------ SPIN DOWN ----------


          k = 0.0000 0.0000 0.0000 (   821 PWs)   bands (ev):

     5.3241   9.3576   9.7587  12.0697  12.0697  13.4031  13.4578  14.1067
    14.8309  14.9065  14.9065  18.0335  24.6736  25.0384  25.0384

     the Fermi energy is    16.7535 ev

!    total energy              =    -155.12281318 Ry
     estimated scf accuracy    <          1.8E-10 Ry
     smearing contrib. (-TS)   =       0.00000000 Ry
     internal energy E=F+TS    =    -155.12281318 Ry

     The total energy is F=E-TS. E is the sum of the following terms:
     one-electron contribution =      -7.68642603 Ry
     hartree contribution      =      30.06496198 Ry
     xc contribution           =     -24.95530252 Ry
     ewald contribution        =    -152.54604661 Ry

     total magnetization       =     0.00 Bohr mag/cell
     absolute magnetization    =     0.00 Bohr mag/cell

     convergence has been achieved in  10 iterations

     Forces acting on atoms (cartesian axes, Ry/au):

     atom    1 type  2   force =     0.00000000    0.00000000    0.00000000
     atom    2 type  1   force =     0.00000000    0.00000000    0.00000000
     The non-local contrib.  to forces
     atom    1 type  2   force =     0.00000000    0.00000000    0.00000000
     atom    2 type  1   force =     0.00000000    0.00000000    0.00000000
     The ionic contribution  to forces
     atom    1 type  2   force =     0.00000000    0.00000000    0.00000000
     atom    2 type  1   force =     0.00000000    0.00000000    0.00000000
     The local contribution  to forces
     atom    1 type  2   force =     0.00000000    0.00000000    0.00000000
     atom    2 type  1   force =     0.00000000    0.00000000    0.00000000
     The core correction contribution to forces
     atom    1 type  2   force =     0.00000000    0.00000000    0.00000000
     atom    2 type  1   force =     0.00000000    0.00000000    0.00000000
     The Hubbard contrib.    to forces
     atom    1 type  2   force =     0.00000000    0.00000000    0.00000000
     atom    2 type  1   force =     0.00000000    0.00000000    0.00000000
     The SCF correction term to forces
     atom    1 type  2   force =    -0.00000000    0.00000000    0.00000000
     atom    2 type  1   force =     0.00000000   -0.00000000   -0.00000000

     Total force =     0.000000     Total SCF correction =     0.000000


     Computing stress (Cartesian axis) and pressure

          total   stress  (Ry/bohr**3)                   (kbar)     P=        8.55
   0.00014056   0.00000000   0.00000000           20.68        0.00        0.00
   0.00000000   0.00014056   0.00000000            0.00       20.68        0.00
   0.00000000   0.00000000  -0.00010678            0.00        0.00      -15.71

     Energy error            =      3.9E-04 Ry
     Gradient error          =      0.0E+00 Ry/Bohr
     Cell gradient error     =      2.1E+01 kbar

     number of scf cycles    =   6
     number of bfgs steps    =   5

     enthalpy           old  =    -155.1224260120 Ry
     enthalpy           new  =    -155.1228131836 Ry

     CASE: enthalpy          _new < enthalpy          _old


     WARNING: bfgs curvature condition failed, Theta= 0.363
     new trust radius        =       0.0477642412 bohr
     new conv_thr            =       0.0000000010 Ry

     new unit-cell volume =    190.63733 a.u.^3 (    28.24954 Ang^3 )
     density =     15.31322 g/cm^3

CELL_PARAMETERS (angstrom)
   2.845677383   0.000000000   0.000000000
   0.000000000   2.845677383   0.000000000
   0.000000000   0.000000000   3.488510396

ATOMIC_POSITIONS (angstrom)
Cu            0.0000000000        0.0000000000        0.0000000000
Au            1.4228386916        1.4228386916        1.7442551982



     Writing config-only to output data dir /home/gridsan/epan1/labutil/lab3_samples/problem3/Lab3/CuAu_a_2.766_c_3.623_ecut_40_nk_1/pwscf.save/
     NEW-OLD atomic charge density approx. for the potential
     extrapolated charge   21.80313, renormalised to   22.00000
     Generating pointlists ...

     total cpu time spent up to now is        6.6 secs

     Self-consistent Calculation

     iteration #  1     ecut=    40.00 Ry     beta= 0.50
     Davidson diagonalization with overlap
     ethr =  1.00E-06,  avg # of iterations =  5.0

     total cpu time spent up to now is        6.6 secs

     total energy              =    -155.11848733 Ry
     estimated scf accuracy    <       0.00397041 Ry

     total magnetization       =    -0.00 Bohr mag/cell
     absolute magnetization    =     0.00 Bohr mag/cell

     iteration #  2     ecut=    40.00 Ry     beta= 0.50
     Davidson diagonalization with overlap
     ethr =  1.80E-05,  avg # of iterations =  3.0

     total cpu time spent up to now is        6.7 secs

     total energy              =    -155.12345634 Ry
     estimated scf accuracy    <       0.00383942 Ry

     total magnetization       =    -0.00 Bohr mag/cell
     absolute magnetization    =     0.00 Bohr mag/cell

     iteration #  3     ecut=    40.00 Ry     beta= 0.50
     Davidson diagonalization with overlap
     ethr =  1.75E-05,  avg # of iterations =  2.0

     total cpu time spent up to now is        6.7 secs

     total energy              =    -155.12341573 Ry
     estimated scf accuracy    <       0.00081528 Ry

     total magnetization       =     0.00 Bohr mag/cell
     absolute magnetization    =     0.00 Bohr mag/cell

     iteration #  4     ecut=    40.00 Ry     beta= 0.50
     Davidson diagonalization with overlap
     ethr =  3.71E-06,  avg # of iterations =  2.0

     total cpu time spent up to now is        6.8 secs

     total energy              =    -155.12333581 Ry
     estimated scf accuracy    <       0.00019161 Ry

     total magnetization       =     0.00 Bohr mag/cell
     absolute magnetization    =     0.00 Bohr mag/cell

     iteration #  5     ecut=    40.00 Ry     beta= 0.50
     Davidson diagonalization with overlap
     ethr =  8.71E-07,  avg # of iterations =  2.0

     total cpu time spent up to now is        6.8 secs

     total energy              =    -155.12339439 Ry
     estimated scf accuracy    <       0.00001115 Ry

     total magnetization       =    -0.00 Bohr mag/cell
     absolute magnetization    =     0.00 Bohr mag/cell

     iteration #  6     ecut=    40.00 Ry     beta= 0.50
     Davidson diagonalization with overlap
     ethr =  5.07E-08,  avg # of iterations =  1.0

     total cpu time spent up to now is        6.9 secs

     total energy              =    -155.12339251 Ry
     estimated scf accuracy    <       0.00000452 Ry

     total magnetization       =     0.00 Bohr mag/cell
     absolute magnetization    =     0.00 Bohr mag/cell

     iteration #  7     ecut=    40.00 Ry     beta= 0.50
     Davidson diagonalization with overlap
     ethr =  2.06E-08,  avg # of iterations =  2.0

     total cpu time spent up to now is        6.9 secs

     total energy              =    -155.12339294 Ry
     estimated scf accuracy    <       0.00000023 Ry

     total magnetization       =    -0.00 Bohr mag/cell
     absolute magnetization    =     0.00 Bohr mag/cell

     iteration #  8     ecut=    40.00 Ry     beta= 0.50
     Davidson diagonalization with overlap
     ethr =  1.03E-09,  avg # of iterations =  2.0

     total cpu time spent up to now is        7.0 secs

     total energy              =    -155.12339304 Ry
     estimated scf accuracy    <       0.00000006 Ry

     total magnetization       =     0.00 Bohr mag/cell
     absolute magnetization    =     0.00 Bohr mag/cell

     iteration #  9     ecut=    40.00 Ry     beta= 0.50
     Davidson diagonalization with overlap
     ethr =  2.56E-10,  avg # of iterations =  2.0

     total cpu time spent up to now is        7.0 secs

     total energy              =    -155.12339303 Ry
     estimated scf accuracy    <       0.00000001 Ry

     total magnetization       =     0.00 Bohr mag/cell
     absolute magnetization    =     0.00 Bohr mag/cell

     iteration # 10     ecut=    40.00 Ry     beta= 0.50
     Davidson diagonalization with overlap
     ethr =  4.95E-11,  avg # of iterations =  2.0

     Magnetic moment per site  (integrated on atomic sphere of radius R)
     atom   1 (R=0.398)  charge= 10.0911  magn= -0.0000
     atom   2 (R=0.398)  charge=  9.0746  magn=  0.0000

     total cpu time spent up to now is        7.1 secs

     End of self-consistent calculation

 ------ SPIN UP ------------


          k = 0.0000 0.0000 0.0000 (   821 PWs)   bands (ev):

     5.4301   9.5008   9.8676  12.2090  12.2090  13.4567  13.6892  14.3270
    15.0161  15.1057  15.1057  18.5824  24.9953  24.9953  25.3538

 ------ SPIN DOWN ----------


          k = 0.0000 0.0000 0.0000 (   821 PWs)   bands (ev):

     5.4301   9.5008   9.8676  12.2090  12.2090  13.4567  13.6892  14.3270
    15.0161  15.1057  15.1057  18.5824  24.9953  24.9953  25.3538

     the Fermi energy is    16.9773 ev

!    total energy              =    -155.12339304 Ry
     estimated scf accuracy    <          2.8E-10 Ry
     smearing contrib. (-TS)   =       0.00000000 Ry
     internal energy E=F+TS    =    -155.12339304 Ry

     The total energy is F=E-TS. E is the sum of the following terms:
     one-electron contribution =      -7.02773775 Ry
     hartree contribution      =      29.87137366 Ry
     xc contribution           =     -24.96863774 Ry
     ewald contribution        =    -152.99839120 Ry

     total magnetization       =     0.00 Bohr mag/cell
     absolute magnetization    =     0.00 Bohr mag/cell

     convergence has been achieved in  10 iterations

     Forces acting on atoms (cartesian axes, Ry/au):

     atom    1 type  2   force =     0.00000000    0.00000000    0.00000000
     atom    2 type  1   force =     0.00000000    0.00000000    0.00000000
     The non-local contrib.  to forces
     atom    1 type  2   force =     0.00000000    0.00000000    0.00000000
     atom    2 type  1   force =     0.00000000    0.00000000    0.00000000
     The ionic contribution  to forces
     atom    1 type  2   force =     0.00000000    0.00000000    0.00000000
     atom    2 type  1   force =     0.00000000    0.00000000    0.00000000
     The local contribution  to forces
     atom    1 type  2   force =     0.00000000    0.00000000    0.00000000
     atom    2 type  1   force =     0.00000000    0.00000000    0.00000000
     The core correction contribution to forces
     atom    1 type  2   force =     0.00000000    0.00000000    0.00000000
     atom    2 type  1   force =     0.00000000    0.00000000    0.00000000
     The Hubbard contrib.    to forces
     atom    1 type  2   force =     0.00000000    0.00000000    0.00000000
     atom    2 type  1   force =     0.00000000    0.00000000    0.00000000
     The SCF correction term to forces
     atom    1 type  2   force =    -0.00000000   -0.00000000    0.00000000
     atom    2 type  1   force =    -0.00000000    0.00000000   -0.00000000

     Total force =     0.000000     Total SCF correction =     0.000000


     Computing stress (Cartesian axis) and pressure

          total   stress  (Ry/bohr**3)                   (kbar)     P=       18.40
   0.00022098   0.00000000   0.00000000           32.51        0.00        0.00
   0.00000000   0.00022098   0.00000000            0.00       32.51        0.00
   0.00000000   0.00000000  -0.00006663            0.00        0.00       -9.80

     Energy error            =      5.8E-04 Ry
     Gradient error          =      0.0E+00 Ry/Bohr
     Cell gradient error     =      3.3E+01 kbar

     number of scf cycles    =   7
     number of bfgs steps    =   6

     enthalpy           old  =    -155.1228131836 Ry
     enthalpy           new  =    -155.1233930352 Ry

     CASE: enthalpy          _new < enthalpy          _old

     new trust radius        =       0.0725777186 bohr
     new conv_thr            =       0.0000000010 Ry

     new unit-cell volume =    188.00840 a.u.^3 (    27.85997 Ang^3 )
     density =     15.52734 g/cm^3

CELL_PARAMETERS (angstrom)
   2.863873690   0.000000000   0.000000000
   0.000000000   2.863873690   0.000000000
   0.000000000   0.000000000   3.396823058

ATOMIC_POSITIONS (angstrom)
Cu            0.0000000000        0.0000000000        0.0000000000
Au            1.4319368449        1.4319368449        1.6984115291



     Writing config-only to output data dir /home/gridsan/epan1/labutil/lab3_samples/problem3/Lab3/CuAu_a_2.766_c_3.623_ecut_40_nk_1/pwscf.save/
     NEW-OLD atomic charge density approx. for the potential
     extrapolated charge   21.69238, renormalised to   22.00000
     Generating pointlists ...

     total cpu time spent up to now is        7.5 secs

     Self-consistent Calculation

     iteration #  1     ecut=    40.00 Ry     beta= 0.50
     Davidson diagonalization with overlap
     ethr =  1.00E-06,  avg # of iterations =  6.0

     total cpu time spent up to now is        7.6 secs

     total energy              =    -155.11290280 Ry
     estimated scf accuracy    <       0.00903824 Ry

     total magnetization       =    -0.00 Bohr mag/cell
     absolute magnetization    =     0.00 Bohr mag/cell

     iteration #  2     ecut=    40.00 Ry     beta= 0.50
     Davidson diagonalization with overlap
     ethr =  4.11E-05,  avg # of iterations =  3.0

     total cpu time spent up to now is        7.7 secs

     total energy              =    -155.12442073 Ry
     estimated scf accuracy    <       0.00864320 Ry

     total magnetization       =     0.00 Bohr mag/cell
     absolute magnetization    =     0.00 Bohr mag/cell

     iteration #  3     ecut=    40.00 Ry     beta= 0.50
     Davidson diagonalization with overlap
     ethr =  3.93E-05,  avg # of iterations =  2.0

     total cpu time spent up to now is        7.7 secs

     total energy              =    -155.12429983 Ry
     estimated scf accuracy    <       0.00186608 Ry

     total magnetization       =    -0.00 Bohr mag/cell
     absolute magnetization    =     0.00 Bohr mag/cell

     iteration #  4     ecut=    40.00 Ry     beta= 0.50
     Davidson diagonalization with overlap
     ethr =  8.48E-06,  avg # of iterations =  2.0

     total cpu time spent up to now is        7.8 secs

     total energy              =    -155.12411733 Ry
     estimated scf accuracy    <       0.00043547 Ry

     total magnetization       =     0.00 Bohr mag/cell
     absolute magnetization    =     0.00 Bohr mag/cell

     iteration #  5     ecut=    40.00 Ry     beta= 0.50
     Davidson diagonalization with overlap
     ethr =  1.98E-06,  avg # of iterations =  2.0

     total cpu time spent up to now is        7.8 secs

     total energy              =    -155.12425137 Ry
     estimated scf accuracy    <       0.00002714 Ry

     total magnetization       =    -0.00 Bohr mag/cell
     absolute magnetization    =     0.00 Bohr mag/cell

     iteration #  6     ecut=    40.00 Ry     beta= 0.50
     Davidson diagonalization with overlap
     ethr =  1.23E-07,  avg # of iterations =  1.0

     total cpu time spent up to now is        7.8 secs

     total energy              =    -155.12424749 Ry
     estimated scf accuracy    <       0.00001052 Ry

     total magnetization       =    -0.00 Bohr mag/cell
     absolute magnetization    =     0.00 Bohr mag/cell

     iteration #  7     ecut=    40.00 Ry     beta= 0.50
     Davidson diagonalization with overlap
     ethr =  4.78E-08,  avg # of iterations =  2.0

     total cpu time spent up to now is        7.9 secs

     total energy              =    -155.12424809 Ry
     estimated scf accuracy    <       0.00000087 Ry

     total magnetization       =     0.00 Bohr mag/cell
     absolute magnetization    =     0.00 Bohr mag/cell

     iteration #  8     ecut=    40.00 Ry     beta= 0.50
     Davidson diagonalization with overlap
     ethr =  3.95E-09,  avg # of iterations =  2.0

     total cpu time spent up to now is        7.9 secs

     total energy              =    -155.12424839 Ry
     estimated scf accuracy    <       0.00000007 Ry

     total magnetization       =     0.00 Bohr mag/cell
     absolute magnetization    =     0.00 Bohr mag/cell

     iteration #  9     ecut=    40.00 Ry     beta= 0.50
     Davidson diagonalization with overlap
     ethr =  3.22E-10,  avg # of iterations =  1.0

     total cpu time spent up to now is        8.0 secs

     total energy              =    -155.12424838 Ry
     estimated scf accuracy    <       0.00000002 Ry

     total magnetization       =    -0.00 Bohr mag/cell
     absolute magnetization    =     0.00 Bohr mag/cell

     iteration # 10     ecut=    40.00 Ry     beta= 0.50
     Davidson diagonalization with overlap
     ethr =  9.65E-11,  avg # of iterations =  2.0

     Magnetic moment per site  (integrated on atomic sphere of radius R)
     atom   1 (R=0.398)  charge= 10.1084  magn= -0.0000
     atom   2 (R=0.398)  charge=  9.0829  magn= -0.0000

     total cpu time spent up to now is        8.0 secs

     End of self-consistent calculation

 ------ SPIN UP ------------


          k = 0.0000 0.0000 0.0000 (   821 PWs)   bands (ev):

     5.5979   9.7262  10.0380  12.4417  12.4417  13.5419  14.0517  14.6527
    15.3132  15.4132  15.4132  19.4624  24.9412  24.9412  26.4126

 ------ SPIN DOWN ----------


          k = 0.0000 0.0000 0.0000 (   821 PWs)   bands (ev):

     5.5979   9.7262  10.0380  12.4417  12.4417  13.5419  14.0517  14.6527
    15.3132  15.4132  15.4132  19.4624  24.9412  24.9412  26.4126

     the Fermi energy is    17.6463 ev

!    total energy              =    -155.12424839 Ry
     estimated scf accuracy    <          2.0E-11 Ry
     smearing contrib. (-TS)   =       0.00000000 Ry
     internal energy E=F+TS    =    -155.12424839 Ry

     The total energy is F=E-TS. E is the sum of the following terms:
     one-electron contribution =      -5.99380681 Ry
     hartree contribution      =      29.56775847 Ry
     xc contribution           =     -24.98978483 Ry
     ewald contribution        =    -153.70841522 Ry

     total magnetization       =    -0.00 Bohr mag/cell
     absolute magnetization    =     0.00 Bohr mag/cell

     convergence has been achieved in  10 iterations

     Forces acting on atoms (cartesian axes, Ry/au):

     atom    1 type  2   force =     0.00000000    0.00000000    0.00000000
     atom    2 type  1   force =     0.00000000    0.00000000    0.00000000
     The non-local contrib.  to forces
     atom    1 type  2   force =     0.00000000    0.00000000    0.00000000
     atom    2 type  1   force =     0.00000000    0.00000000    0.00000000
     The ionic contribution  to forces
     atom    1 type  2   force =     0.00000000    0.00000000    0.00000000
     atom    2 type  1   force =     0.00000000    0.00000000    0.00000000
     The local contribution  to forces
     atom    1 type  2   force =     0.00000000    0.00000000   -0.00000000
     atom    2 type  1   force =     0.00000000    0.00000000    0.00000000
     The core correction contribution to forces
     atom    1 type  2   force =     0.00000000    0.00000000    0.00000000
     atom    2 type  1   force =     0.00000000    0.00000000    0.00000000
     The Hubbard contrib.    to forces
     atom    1 type  2   force =     0.00000000    0.00000000    0.00000000
     atom    2 type  1   force =     0.00000000    0.00000000    0.00000000
     The SCF correction term to forces
     atom    1 type  2   force =    -0.00000000   -0.00000000    0.00000000
     atom    2 type  1   force =    -0.00000000   -0.00000000    0.00000000

     Total force =     0.000000     Total SCF correction =     0.000000


     Computing stress (Cartesian axis) and pressure

          total   stress  (Ry/bohr**3)                   (kbar)     P=       34.85
   0.00035411   0.00000000   0.00000000           52.09        0.00        0.00
   0.00000000   0.00035411   0.00000000            0.00       52.09        0.00
   0.00000000   0.00000000   0.00000247            0.00        0.00        0.36

     Energy error            =      8.6E-04 Ry
     Gradient error          =      0.0E+00 Ry/Bohr
     Cell gradient error     =      5.2E+01 kbar

     number of scf cycles    =   8
     number of bfgs steps    =   7

     enthalpy           old  =    -155.1233930352 Ry
     enthalpy           new  =    -155.1242483865 Ry

     CASE: enthalpy          _new < enthalpy          _old

     new trust radius        =       0.1110315282 bohr
     new conv_thr            =       0.0000000010 Ry

     new unit-cell volume =    183.88788 a.u.^3 (    27.24937 Ang^3 )
     density =     15.87528 g/cm^3

CELL_PARAMETERS (angstrom)
   2.891456152   0.000000000   0.000000000
   0.000000000   2.891456152   0.000000000
   0.000000000   0.000000000   3.259292051

ATOMIC_POSITIONS (angstrom)
Cu            0.0000000000        0.0000000000        0.0000000000
Au            1.4457280758        1.4457280758        1.6296460254



     Writing config-only to output data dir /home/gridsan/epan1/labutil/lab3_samples/problem3/Lab3/CuAu_a_2.766_c_3.623_ecut_40_nk_1/pwscf.save/
     NEW-OLD atomic charge density approx. for the potential
     extrapolated charge   21.50704, renormalised to   22.00000
     Generating pointlists ...
     new r_m :   0.3899 (alat units)  2.0381 (a.u.) for type    1
     new r_m :   0.3899 (alat units)  2.0381 (a.u.) for type    2

     total cpu time spent up to now is        8.5 secs

     Self-consistent Calculation

     iteration #  1     ecut=    40.00 Ry     beta= 0.50
     Davidson diagonalization with overlap
     ethr =  1.00E-06,  avg # of iterations =  7.0

     total cpu time spent up to now is        8.6 secs

     total energy              =    -155.09822401 Ry
     estimated scf accuracy    <       0.02115855 Ry

     total magnetization       =     0.00 Bohr mag/cell
     absolute magnetization    =     0.00 Bohr mag/cell

     iteration #  2     ecut=    40.00 Ry     beta= 0.50
     Davidson diagonalization with overlap
     ethr =  9.62E-05,  avg # of iterations =  3.0

     total cpu time spent up to now is        8.6 secs

     total energy              =    -155.12573626 Ry
     estimated scf accuracy    <       0.02000898 Ry

     total magnetization       =     0.00 Bohr mag/cell
     absolute magnetization    =     0.00 Bohr mag/cell

     iteration #  3     ecut=    40.00 Ry     beta= 0.50
     Davidson diagonalization with overlap
     ethr =  9.09E-05,  avg # of iterations =  2.0

     total cpu time spent up to now is        8.7 secs

     total energy              =    -155.12545249 Ry
     estimated scf accuracy    <       0.00434652 Ry

     total magnetization       =    -0.00 Bohr mag/cell
     absolute magnetization    =     0.00 Bohr mag/cell

     iteration #  4     ecut=    40.00 Ry     beta= 0.50
     Davidson diagonalization with overlap
     ethr =  1.98E-05,  avg # of iterations =  2.0

     total cpu time spent up to now is        8.7 secs

     total energy              =    -155.12498192 Ry
     estimated scf accuracy    <       0.00104098 Ry

     total magnetization       =    -0.00 Bohr mag/cell
     absolute magnetization    =     0.00 Bohr mag/cell

     iteration #  5     ecut=    40.00 Ry     beta= 0.50
     Davidson diagonalization with overlap
     ethr =  4.73E-06,  avg # of iterations =  2.0

     total cpu time spent up to now is        8.8 secs

     total energy              =    -155.12532033 Ry
     estimated scf accuracy    <       0.00007813 Ry

     total magnetization       =     0.00 Bohr mag/cell
     absolute magnetization    =     0.00 Bohr mag/cell

     iteration #  6     ecut=    40.00 Ry     beta= 0.50
     Davidson diagonalization with overlap
     ethr =  3.55E-07,  avg # of iterations =  1.0

     total cpu time spent up to now is        8.8 secs

     total energy              =    -155.12530928 Ry
     estimated scf accuracy    <       0.00002947 Ry

     total magnetization       =     0.00 Bohr mag/cell
     absolute magnetization    =     0.00 Bohr mag/cell

     iteration #  7     ecut=    40.00 Ry     beta= 0.50
     Davidson diagonalization with overlap
     ethr =  1.34E-07,  avg # of iterations =  2.0

     total cpu time spent up to now is        8.9 secs

     total energy              =    -155.12531013 Ry
     estimated scf accuracy    <       0.00000299 Ry

     total magnetization       =     0.00 Bohr mag/cell
     absolute magnetization    =     0.00 Bohr mag/cell

     iteration #  8     ecut=    40.00 Ry     beta= 0.50
     Davidson diagonalization with overlap
     ethr =  1.36E-08,  avg # of iterations =  2.0

     total cpu time spent up to now is        8.9 secs

     total energy              =    -155.12531115 Ry
     estimated scf accuracy    <       0.00000041 Ry

     total magnetization       =    -0.00 Bohr mag/cell
     absolute magnetization    =     0.00 Bohr mag/cell

     iteration #  9     ecut=    40.00 Ry     beta= 0.50
     Davidson diagonalization with overlap
     ethr =  1.86E-09,  avg # of iterations =  2.0

     total cpu time spent up to now is        9.0 secs

     total energy              =    -155.12531114 Ry
     estimated scf accuracy    <       0.00000006 Ry

     total magnetization       =     0.00 Bohr mag/cell
     absolute magnetization    =     0.00 Bohr mag/cell

     iteration # 10     ecut=    40.00 Ry     beta= 0.50
     Davidson diagonalization with overlap
     ethr =  2.82E-10,  avg # of iterations =  2.0

[...]

     total cpu time spent up to now is       21.1 secs

     total energy              =    -155.11840046 Ry
     estimated scf accuracy    <       0.10495621 Ry

     total magnetization       =     0.00 Bohr mag/cell
     absolute magnetization    =     0.38 Bohr mag/cell

     iteration #  3     ecut=    40.00 Ry     beta= 0.50
     Davidson diagonalization with overlap
     ethr =  4.77E-04,  avg # of iterations =  1.5

     total cpu time spent up to now is       21.1 secs

     total energy              =    -155.12898914 Ry
     estimated scf accuracy    <       0.00317843 Ry

     total magnetization       =    -0.00 Bohr mag/cell
     absolute magnetization    =     0.08 Bohr mag/cell

     iteration #  4     ecut=    40.00 Ry     beta= 0.50
     Davidson diagonalization with overlap
     ethr =  1.44E-05,  avg # of iterations =  2.0

     total cpu time spent up to now is       21.2 secs

     total energy              =    -155.12977264 Ry
     estimated scf accuracy    <       0.00020093 Ry

     total magnetization       =     0.00 Bohr mag/cell
     absolute magnetization    =     0.03 Bohr mag/cell

     iteration #  5     ecut=    40.00 Ry     beta= 0.50
     Davidson diagonalization with overlap
     ethr =  9.13E-07,  avg # of iterations =  2.0

     total cpu time spent up to now is       21.2 secs

     total energy              =    -155.12990448 Ry
     estimated scf accuracy    <       0.00004153 Ry

     total magnetization       =     0.00 Bohr mag/cell
     absolute magnetization    =     0.02 Bohr mag/cell

     iteration #  6     ecut=    40.00 Ry     beta= 0.50
     Davidson diagonalization with overlap
     ethr =  1.89E-07,  avg # of iterations =  2.0

     total cpu time spent up to now is       21.3 secs

     total energy              =    -155.12992063 Ry
     estimated scf accuracy    <       0.00000162 Ry

     total magnetization       =    -0.00 Bohr mag/cell
     absolute magnetization    =     0.00 Bohr mag/cell

     iteration #  7     ecut=    40.00 Ry     beta= 0.50
     Davidson diagonalization with overlap
     ethr =  7.37E-09,  avg # of iterations =  2.0

     total cpu time spent up to now is       21.3 secs

     total energy              =    -155.12992119 Ry
     estimated scf accuracy    <       0.00000014 Ry

     total magnetization       =     0.00 Bohr mag/cell
     absolute magnetization    =     0.00 Bohr mag/cell

     iteration #  8     ecut=    40.00 Ry     beta= 0.50
     Davidson diagonalization with overlap
     ethr =  6.56E-10,  avg # of iterations =  1.5

     total cpu time spent up to now is       21.4 secs

     total energy              =    -155.12992118 Ry
     estimated scf accuracy    <       0.00000005 Ry

     total magnetization       =    -0.00 Bohr mag/cell
     absolute magnetization    =     0.00 Bohr mag/cell

     iteration #  9     ecut=    40.00 Ry     beta= 0.50
     Davidson diagonalization with overlap
     ethr =  2.13E-10,  avg # of iterations =  2.0

     Magnetic moment per site  (integrated on atomic sphere of radius R)
     atom   1 (R=0.384)  charge=  9.9505  magn= -0.0000
     atom   2 (R=0.384)  charge=  8.7849  magn= -0.0000

     total cpu time spent up to now is       21.4 secs

     End of self-consistent calculation

 ------ SPIN UP ------------


          k = 0.0000 0.0000 0.0000 (   821 PWs)   bands (ev):

     5.5893   9.8805   9.8817  12.6040  12.6040  12.6084  14.4909  14.4930
    15.3494  15.3497  15.3497  22.8844  22.9030  22.9030  28.5541

 ------ SPIN DOWN ----------


          k = 0.0000 0.0000 0.0000 (   821 PWs)   bands (ev):

     5.5893   9.8805   9.8817  12.6040  12.6040  12.6084  14.4908  14.4930
    15.3494  15.3497  15.3497  22.8844  22.9030  22.9030  28.5541

     the Fermi energy is    17.0717 ev

!    total energy              =    -155.12992119 Ry
     estimated scf accuracy    <          7.5E-10 Ry
     smearing contrib. (-TS)   =       0.00000000 Ry
     internal energy E=F+TS    =    -155.12992119 Ry

     The total energy is F=E-TS. E is the sum of the following terms:
     one-electron contribution =      -5.95645386 Ry
     hartree contribution      =      29.50785225 Ry
     xc contribution           =     -24.97534598 Ry
     ewald contribution        =    -153.70597359 Ry

     total magnetization       =     0.00 Bohr mag/cell
     absolute magnetization    =     0.00 Bohr mag/cell

     convergence has been achieved in   9 iterations

     Forces acting on atoms (cartesian axes, Ry/au):

     atom    1 type  2   force =     0.00000000    0.00000000    0.00000000
     atom    2 type  1   force =     0.00000000    0.00000000    0.00000000
     The non-local contrib.  to forces
     atom    1 type  2   force =     0.00000000    0.00000000    0.00000000
     atom    2 type  1   force =     0.00000000    0.00000000    0.00000000
     The ionic contribution  to forces
     atom    1 type  2   force =    -0.00000000   -0.00000000    0.00000000
     atom    2 type  1   force =     0.00000000    0.00000000   -0.00000000
     The local contribution  to forces
     atom    1 type  2   force =     0.00000000    0.00000000   -0.00000000
     atom    2 type  1   force =    -0.00000000   -0.00000000    0.00000000
     The core correction contribution to forces
     atom    1 type  2   force =     0.00000000    0.00000000    0.00000000
     atom    2 type  1   force =     0.00000000    0.00000000    0.00000000
     The Hubbard contrib.    to forces
     atom    1 type  2   force =     0.00000000    0.00000000    0.00000000
     atom    2 type  1   force =     0.00000000    0.00000000    0.00000000
     The SCF correction term to forces
     atom    1 type  2   force =    -0.00000000   -0.00000000    0.00000000
     atom    2 type  1   force =    -0.00000000   -0.00000000   -0.00000000

     Total force =     0.000000     Total SCF correction =     0.000000


     Computing stress (Cartesian axis) and pressure

          total   stress  (Ry/bohr**3)                   (kbar)     P=       -0.48
  -0.00000330   0.00000000   0.00000000           -0.49        0.00        0.00
   0.00000000  -0.00000330   0.00000000            0.00       -0.49        0.00
   0.00000000   0.00000000  -0.00000324            0.00        0.00       -0.48

     Energy error            =      2.1E-08 Ry
     Gradient error          =      0.0E+00 Ry/Bohr
     Cell gradient error     =      4.9E-01 kbar

     bfgs converged in  19 scf cycles and  17 bfgs steps
     (criteria: energy <  1.0E-04 Ry, force <  1.0E-03 Ry/Bohr, cell <  5.0E-01 kbar)

     End of BFGS Geometry Optimization

     Final enthalpy           =    -155.1299211876 Ry

     File /home/gridsan/epan1/labutil/lab3_samples/problem3/Lab3/CuAu_a_2.766_c_3.623_ecut_40_nk_1/pwscf.bfgs deleted, as requested
Begin final coordinates
     new unit-cell volume =    188.10641 a.u.^3 (    27.87449 Ang^3 )
     density =     15.51925 g/cm^3

CELL_PARAMETERS (angstrom)
   3.031491224   0.000000000   0.000000000
   0.000000000   3.031491224   0.000000000
   0.000000000   0.000000000   3.033153346

ATOMIC_POSITIONS (angstrom)
Cu            0.0000000000        0.0000000000        0.0000000000
Au            1.5157456121        1.5157456121        1.5165766731
End final coordinates



     Writing config-only to output data dir /home/gridsan/epan1/labutil/lab3_samples/problem3/Lab3/CuAu_a_2.766_c_3.623_ecut_40_nk_1/pwscf.save/

     Final scf calculation at the relaxed structure.
     The G-vectors are recalculated for the final unit cell
     Results may differ from those at the preceding step.

     Parallelization info
     --------------------
     sticks:   dense  smooth     PW     G-vecs:    dense   smooth      PW
     Min         105      52     12                 2283      804      98
     Max         106      53     13                 2286      807     101
     Sum         845     421    101                18277     6451     799

     Using Slab Decomposition



     bravais-lattice index     =            0
     lattice parameter (alat)  =       5.2270  a.u.
     unit-cell volume          =     188.1064 (a.u.)^3
     number of atoms/cell      =            2
     number of atomic types    =            2
     number of electrons       =        22.00
     number of Kohn-Sham states=           15
     kinetic-energy cutoff     =      40.0000  Ry
     charge density cutoff     =     320.0000  Ry
     scf convergence threshold =      1.0E-09
     mixing beta               =       0.5000
     number of iterations used =            8  plain     mixing
     press convergence thresh. =      5.0E-01
     Exchange-correlation=  SLA  PZ   NOGX NOGC
                           (   1   1   0   0   0   0   0)

     celldm(1)=   5.226982  celldm(2)=   0.000000  celldm(3)=   0.000000
     celldm(4)=   0.000000  celldm(5)=   0.000000  celldm(6)=   0.000000

     crystal axes: (cart. coord. in units of alat)
               a(1) = (   1.095984   0.000000   0.000000 )  
               a(2) = (   0.000000   1.095984   0.000000 )  
               a(3) = (   0.000000   0.000000   1.096585 )  

     reciprocal axes: (cart. coord. in units 2 pi/alat)
               b(1) = (  0.912422  0.000000  0.000000 )  
               b(2) = (  0.000000  0.912422  0.000000 )  
               b(3) = (  0.000000  0.000000  0.911922 )  


     PseudoPot. # 1 for Au read from file:
     /home/gridsan/epan1/labutil/lab3_samples/pseudopotentials/Au.pz-d-rrkjus.UPF
     MD5 check sum: 424ffd4ac9c90487cbadcd287136c95b
     Pseudo is Ultrasoft, Zval = 11.0
     Generated by new atomic code, or converted to UPF format
     Using radial grid of 1279 points,  3 beta functions with: 
                l(1) =   2
                l(2) =   2
                l(3) =   1
     Q(r) pseudized with 0 coefficients 


     PseudoPot. # 2 for Cu read from file:
     /home/gridsan/epan1/labutil/lab3_samples/pseudopotentials/Cu.pz-d-rrkjus.UPF
     MD5 check sum: fd38ae683e239c95a66f426e1f8e5fc7
     Pseudo is Ultrasoft, Zval = 11.0
     Generated by new atomic code, or converted to UPF format
     Using radial grid of  899 points,  3 beta functions with: 
                l(1) =   2
                l(2) =   2
                l(3) =   1
     Q(r) pseudized with 0 coefficients 


     atomic species   valence    mass     pseudopotential
        Au            11.00   196.96657     Au( 1.00)
        Cu            11.00    63.54600     Cu( 1.00)

     Starting magnetic structure 
     atomic species   magnetization
        Au          -0.000
        Cu          -0.000

     16 Sym. Ops., with inversion, found



   Cartesian axes

     site n.     atom                  positions (alat units)
         1           Cu  tau(   1) = (   0.0000000   0.0000000   0.0000000  )
         2           Au  tau(   2) = (   0.5479919   0.5479919   0.5482924  )

     number of k points=     1  Methfessel-Paxton smearing, width (Ry)=  0.0200
                       cart. coord. in units 2pi/alat
        k(    1) = (   0.0000000   0.0000000   0.0000000), wk =   1.0000000

     Dense  grid:    18277 G-vectors     FFT dimensions: (  36,  36,  36)

     Smooth grid:     6451 G-vectors     FFT dimensions: (  24,  24,  24)

     Estimated max dynamical RAM per process >       8.46 MB

     Estimated total dynamical RAM >      67.65 MB
     Generating pointlists ...

     Initial potential from superposition of free atoms

     starting charge      21.9996, renormalised to      22.0000
     Starting wfcs are   15 randomized atomic wfcs

     total cpu time spent up to now is       22.7 secs

     Self-consistent Calculation

     iteration #  1     ecut=    40.00 Ry     beta= 0.50
     Davidson diagonalization with overlap
     ethr =  1.00E-06,  avg # of iterations =  7.0

     total cpu time spent up to now is       22.8 secs

     total energy              =    -155.12915470 Ry
     estimated scf accuracy    <       0.01383390 Ry

     total magnetization       =    -0.00 Bohr mag/cell
     absolute magnetization    =     0.00 Bohr mag/cell

     iteration #  2     ecut=    40.00 Ry     beta= 0.50
     Davidson diagonalization with overlap
     ethr =  6.29E-05,  avg # of iterations =  1.0

     total cpu time spent up to now is       22.8 secs

     total energy              =    -155.12984262 Ry
     estimated scf accuracy    <       0.00313801 Ry

     total magnetization       =    -0.00 Bohr mag/cell
     absolute magnetization    =     0.00 Bohr mag/cell

     iteration #  3     ecut=    40.00 Ry     beta= 0.50
     Davidson diagonalization with overlap
     ethr =  1.43E-05,  avg # of iterations =  1.0

     total cpu time spent up to now is       22.9 secs

     total energy              =    -155.12992315 Ry
     estimated scf accuracy    <       0.00013888 Ry

     total magnetization       =     0.00 Bohr mag/cell
     absolute magnetization    =     0.00 Bohr mag/cell

     iteration #  4     ecut=    40.00 Ry     beta= 0.50
     Davidson diagonalization with overlap
     ethr =  6.31E-07,  avg # of iterations =  2.0

     total cpu time spent up to now is       22.9 secs

     total energy              =    -155.12992915 Ry
     estimated scf accuracy    <       0.00000209 Ry

     total magnetization       =    -0.00 Bohr mag/cell
     absolute magnetization    =     0.00 Bohr mag/cell

     iteration #  5     ecut=    40.00 Ry     beta= 0.50
     Davidson diagonalization with overlap
     ethr =  9.49E-09,  avg # of iterations =  2.0

     total cpu time spent up to now is       23.0 secs

     total energy              =    -155.12992926 Ry
     estimated scf accuracy    <       0.00000021 Ry

     total magnetization       =     0.00 Bohr mag/cell
     absolute magnetization    =     0.00 Bohr mag/cell

     iteration #  6     ecut=    40.00 Ry     beta= 0.50
     Davidson diagonalization with overlap
     ethr =  9.35E-10,  avg # of iterations =  1.0

     total cpu time spent up to now is       23.0 secs

     total energy              =    -155.12992927 Ry
     estimated scf accuracy    <          7.9E-09 Ry

     total magnetization       =     0.00 Bohr mag/cell
     absolute magnetization    =     0.00 Bohr mag/cell

     iteration #  7     ecut=    40.00 Ry     beta= 0.50
     Davidson diagonalization with overlap
     ethr =  3.58E-11,  avg # of iterations =  2.0

     Magnetic moment per site  (integrated on atomic sphere of radius R)
     atom   1 (R=0.384)  charge=  9.9495  magn= -0.0000
     atom   2 (R=0.384)  charge=  8.7831  magn= -0.0000

     total cpu time spent up to now is       23.1 secs

     End of self-consistent calculation

 ------ SPIN UP ------------


          k = 0.0000 0.0000 0.0000 (   799 PWs)   bands (ev):

     5.5893   9.8806   9.8814  12.6039  12.6039  12.6079  14.4902  14.4927
    15.3489  15.3494  15.3494  22.8844  22.9029  22.9029  28.5538

 ------ SPIN DOWN ----------


          k = 0.0000 0.0000 0.0000 (   799 PWs)   bands (ev):

     5.5893   9.8806   9.8814  12.6039  12.6039  12.6079  14.4902  14.4927
    15.3489  15.3494  15.3494  22.8844  22.9029  22.9029  28.5538

     the Fermi energy is    17.0716 ev

!    total energy              =    -155.12992927 Ry
     estimated scf accuracy    <          7.5E-10 Ry
     smearing contrib. (-TS)   =       0.00000000 Ry
     internal energy E=F+TS    =    -155.12992927 Ry

     The total energy is F=E-TS. E is the sum of the following terms:
     one-electron contribution =      -5.95617117 Ry
     hartree contribution      =      29.50745706 Ry
     xc contribution           =     -24.97524156 Ry
     ewald contribution        =    -153.70597359 Ry

     total magnetization       =    -0.00 Bohr mag/cell
     absolute magnetization    =     0.00 Bohr mag/cell

     convergence has been achieved in   7 iterations

     Forces acting on atoms (cartesian axes, Ry/au):

     atom    1 type  2   force =     0.00000000    0.00000000    0.00000000
     atom    2 type  1   force =     0.00000000    0.00000000    0.00000000
     The non-local contrib.  to forces
     atom    1 type  2   force =     0.00000000    0.00000000    0.00000000
     atom    2 type  1   force =     0.00000000    0.00000000    0.00000000
     The ionic contribution  to forces
     atom    1 type  2   force =    -0.00000000   -0.00000000    0.00000000
     atom    2 type  1   force =     0.00000000    0.00000000   -0.00000000
     The local contribution  to forces
     atom    1 type  2   force =     0.00000000    0.00000000    0.00000000
     atom    2 type  1   force =    -0.00000000   -0.00000000    0.00000000
     The core correction contribution to forces
     atom    1 type  2   force =     0.00000000    0.00000000    0.00000000
     atom    2 type  1   force =     0.00000000    0.00000000    0.00000000
     The Hubbard contrib.    to forces
     atom    1 type  2   force =     0.00000000    0.00000000    0.00000000
     atom    2 type  1   force =     0.00000000    0.00000000    0.00000000
     The SCF correction term to forces
     atom    1 type  2   force =    -0.00000000   -0.00000000    0.00000000
     atom    2 type  1   force =     0.00000000    0.00000000   -0.00000000

     Total force =     0.000000     Total SCF correction =     0.000000


     Computing stress (Cartesian axis) and pressure

          total   stress  (Ry/bohr**3)                   (kbar)     P=       -1.09
  -0.00000632   0.00000000   0.00000000           -0.93        0.00        0.00
   0.00000000  -0.00000632   0.00000000            0.00       -0.93        0.00
   0.00000000   0.00000000  -0.00000968            0.00        0.00       -1.42


     init_run     :      1.01s CPU      1.31s WALL (       2 calls)
     electrons    :     12.46s CPU     11.33s WALL (      21 calls)
     update_pot   :      3.25s CPU      3.16s WALL (      18 calls)
     forces       :      2.57s CPU      2.18s WALL (      21 calls)
     stress       :      4.54s CPU      4.16s WALL (      21 calls)

     Called by init_run:
     wfcinit      :      0.02s CPU      0.05s WALL (       2 calls)
     potinit      :      0.30s CPU      0.33s WALL (       3 calls)
     hinit0       :      0.68s CPU      0.70s WALL (       2 calls)

     Called by electrons:
     c_bands      :      4.22s CPU      3.94s WALL (     205 calls)
     sum_band     :      5.19s CPU      4.51s WALL (     205 calls)
     v_of_rho     :      0.38s CPU      0.49s WALL (     225 calls)
     newd         :      2.25s CPU      1.97s WALL (     225 calls)
     mix_rho      :      0.27s CPU      0.22s WALL (     205 calls)

     Called by c_bands:
     init_us_2    :      0.06s CPU      0.05s WALL (     908 calls)
     init_us_2:cp :      0.05s CPU      0.05s WALL (     908 calls)
     cegterg      :      3.43s CPU      3.09s WALL (     410 calls)

     Called by *egterg:
     cdiaghg      :      0.56s CPU      0.51s WALL (    1331 calls)
     h_psi        :      2.35s CPU      2.12s WALL (    1375 calls)
     s_psi        :      0.03s CPU      0.03s WALL (    1375 calls)
     g_psi        :      0.01s CPU      0.01s WALL (     961 calls)

     Called by h_psi:
     h_psi:calbec :      0.22s CPU      0.20s WALL (    1375 calls)
     vloc_psi     :      2.08s CPU      1.87s WALL (    1375 calls)
     add_vuspsi   :      0.04s CPU      0.03s WALL (    1375 calls)

     General routines
     calbec       :      0.30s CPU      0.27s WALL (    1995 calls)
     fft          :      0.62s CPU      0.58s WALL (    2515 calls)
     ffts         :      0.18s CPU      0.18s WALL (     860 calls)
     fftw         :      2.30s CPU      2.09s WALL (   38102 calls)
     interpolate  :      0.22s CPU      0.22s WALL (     450 calls)

     Parallel routines

     PWSCF        :     24.57s CPU     23.39s WALL


   This run was terminated on:  14: 1:36   3Nov2023            

=------------------------------------------------------------------------------=
   JOB DONE.
=------------------------------------------------------------------------------=
