LAMMPS (29 Oct 2020)
Reading data file ...
  orthogonal box = (0.0000000 0.0000000 0.0000000) to (11.678600 11.678600 26.193500)
  1 by 1 by 1 MPI processor grid
  reading atoms ...
  64 atoms
  read_data CPU = 0.000 seconds
WARNING: No fixes defined, atoms won't move (../verlet.cpp:54)
Neighbor list info ...
  update every 1 steps, delay 10 steps, check yes
  max neighbors/atom: 2000, page size: 100000
  master list distance cutoff = 6.5
  ghost atom cutoff = 6.5
  binsize = 3.25, bins = 4 4 9
  1 neighbor lists, perpetual/occasional/extra = 1 0 0
  (1) pair lj/cut, perpetual
      attributes: half, newton on
      pair build: half/bin/atomonly/newton
      stencil: half/bin/3d/newton
      bin: standard
Setting up Verlet run ...
  Unit style    : metal
  Current step  : 0
  Time step     : 0.001
Per MPI rank memory allocation (min/avg/max) = 3.063 | 3.063 | 3.063 Mbytes
Step PotEng Lx Ly Lz Press Pxx Pyy Pzz 
       0   -123.66532      11.6786      11.6786      26.1935    127.67208   -1562.7313   -1562.7313    3508.4788 
Loop time of 9.53674e-07 on 1 procs for 0 steps with 64 atoms

104.9% CPU use with 1 MPI tasks x no OpenMP threads

MPI task timing breakdown:
Section |  min time  |  avg time  |  max time  |%varavg| %total
---------------------------------------------------------------
Pair    | 0          | 0          | 0          |   0.0 |  0.00
Neigh   | 0          | 0          | 0          |   0.0 |  0.00
Comm    | 0          | 0          | 0          |   0.0 |  0.00
Output  | 0          | 0          | 0          |   0.0 |  0.00
Modify  | 0          | 0          | 0          |   0.0 |  0.00
Other   |            | 9.537e-07  |            |       |100.00

Nlocal:        64.0000 ave          64 max          64 min
Histogram: 1 0 0 0 0 0 0 0 0 0
Nghost:        226.000 ave         226 max         226 min
Histogram: 1 0 0 0 0 0 0 0 0 0
Neighs:        1248.00 ave        1248 max        1248 min
Histogram: 1 0 0 0 0 0 0 0 0 0

Total # of neighbors = 1248
Ave neighs/atom = 19.500000
Neighbor list builds = 0
Dangerous builds = 0
Total energy (eV) = -123.665316228158
Number of atoms = 64
Lattice constant (Angstoms) = 11.6786
Total wall time: 0:00:00
