LAMMPS (29 Oct 2020)
Reading data file ...
  orthogonal box = (0.0000000 0.0000000 0.0000000) to (23.136500 23.136500 22.045000)
  1 by 1 by 1 MPI processor grid
  reading atoms ...
  128 atoms
  read_data CPU = 0.000 seconds
Reading eam potential file /home/gridsan/epan1/3320_atomistic_shared/lammps/potentials/Ag_u3.eam with DATE: 2007-06-11
WARNING: No fixes defined, atoms won't move (../verlet.cpp:54)
Neighbor list info ...
  update every 1 steps, delay 10 steps, check yes
  max neighbors/atom: 2000, page size: 100000
  master list distance cutoff = 7.55
  ghost atom cutoff = 7.55
  binsize = 3.775, bins = 7 7 6
  1 neighbor lists, perpetual/occasional/extra = 1 0 0
  (1) pair eam, perpetual
      attributes: half, newton on
      pair build: half/bin/atomonly/newton
      stencil: half/bin/3d/newton
      bin: standard
Setting up Verlet run ...
  Unit style    : metal
  Current step  : 0
  Time step     : 0.001
Per MPI rank memory allocation (min/avg/max) = 3.315 | 3.315 | 3.315 Mbytes
Step PotEng Lx Ly Lz Press Pxx Pyy Pzz 
       0   -317.37192      23.1365      23.1365       22.045   -8988.5919    -11139.39    -11139.39    -4686.996 
Loop time of 9.53674e-07 on 1 procs for 0 steps with 128 atoms

104.9% CPU use with 1 MPI tasks x no OpenMP threads

MPI task timing breakdown:
Section |  min time  |  avg time  |  max time  |%varavg| %total
---------------------------------------------------------------
Pair    | 0          | 0          | 0          |   0.0 |  0.00
Neigh   | 0          | 0          | 0          |   0.0 |  0.00
Comm    | 0          | 0          | 0          |   0.0 |  0.00
Output  | 0          | 0          | 0          |   0.0 |  0.00
Modify  | 0          | 0          | 0          |   0.0 |  0.00
Other   |            | 9.537e-07  |            |       |100.00

Nlocal:        128.000 ave         128 max         128 min
Histogram: 1 0 0 0 0 0 0 0 0 0
Nghost:        237.000 ave         237 max         237 min
Histogram: 1 0 0 0 0 0 0 0 0 0
Neighs:        2304.00 ave        2304 max        2304 min
Histogram: 1 0 0 0 0 0 0 0 0 0

Total # of neighbors = 2304
Ave neighs/atom = 18.000000
Neighbor list builds = 0
Dangerous builds = 0
WARNING: Using 'neigh_modify every 1 delay 0 check yes' setting during minimization (../min.cpp:187)
Setting up cg style minimization ...
  Unit style    : metal
  Current step  : 0
WARNING: Energy due to 1 extra global DOFs will be included in minimizer energies
Per MPI rank memory allocation (min/avg/max) = 4.440 | 4.440 | 4.440 Mbytes
Step PotEng Lx Ly Lz Press Pxx Pyy Pzz 
       0   -317.37192      23.1365      23.1365       22.045   -8988.5919    -11139.39    -11139.39    -4686.996 
      41    -319.7663    22.454095    22.454095    21.394789 -0.0051006741   0.78204625   0.78204625   -1.5793945 
Loop time of 0.00439787 on 1 procs for 41 steps with 128 atoms

100.0% CPU use with 1 MPI tasks x no OpenMP threads

Minimization stats:
  Stopping criterion = energy tolerance
  Energy initial, next-to-last, final = 
     -317.371919917755  -319.766303817456  -319.766303847852
  Force two-norm initial, final = 198.63556 0.00091790757
  Force max component initial, final = 198.61314 0.00010615482
  Final line search alpha, max atom move = 0.037956641 4.0292802e-06
  Iterations, force evaluations = 41 54

MPI task timing breakdown:
Section |  min time  |  avg time  |  max time  |%varavg| %total
---------------------------------------------------------------
Pair    | 0.0038602  | 0.0038602  | 0.0038602  |   0.0 | 87.78
Neigh   | 7.3195e-05 | 7.3195e-05 | 7.3195e-05 |   0.0 |  1.66
Comm    | 5.6982e-05 | 5.6982e-05 | 5.6982e-05 |   0.0 |  1.30
Output  | 0          | 0          | 0          |   0.0 |  0.00
Modify  | 0          | 0          | 0          |   0.0 |  0.00
Other   |            | 0.0004075  |            |       |  9.26

Nlocal:        128.000 ave         128 max         128 min
Histogram: 1 0 0 0 0 0 0 0 0 0
Nghost:        237.000 ave         237 max         237 min
Histogram: 1 0 0 0 0 0 0 0 0 0
Neighs:        2816.00 ave        2816 max        2816 min
Histogram: 1 0 0 0 0 0 0 0 0 0

Total # of neighbors = 2816
Ave neighs/atom = 22.000000
Neighbor list builds = 1
Dangerous builds = 0
Total energy (eV) = -319.766303847852
Number of atoms = 128
Lattice constant (Angstoms) = 22.4540953399542
Total wall time: 0:00:00
