
     Program PWSCF v.7.2 starts on  1Nov2023 at 16:50:23 

     This program is part of the open-source Quantum ESPRESSO suite
     for quantum simulation of materials; please cite
         "P. Giannozzi et al., J. Phys.:Condens. Matter 21 395502 (2009);
         "P. Giannozzi et al., J. Phys.:Condens. Matter 29 465901 (2017);
         "P. Giannozzi et al., J. Chem. Phys. 152 154105 (2020);
          URL http://www.quantum-espresso.org", 
     in publications or presentations arising from this work. More details at
     http://www.quantum-espresso.org/quote

     Parallel version (MPI), running on     4 processors

     MPI processes distributed on     4 nodes
     185688 MiB available memory on the printing compute node when the environment starts

     Waiting for input...
     Reading input from standard input
Warning: card &CELL ignored
Warning: card / ignored

     Current dimensions of program PWSCF are:
     Max number of different atomic species (ntypx) = 10
     Max number of k-points (npk) =  40000
     Max angular momentum in pseudopotentials (lmaxx) =  4
     file Fe.pbe-nd-rrkjus.UPF: wavefunction(s)  4S renormalized
     Message from routine setup:
     using ibrav=0 with symmetry is DISCOURAGED, use correct ibrav instead

     R & G space division:  proc/nbgrp/npool/nimage =       4
     Subspace diagonalization in iterative solution of the eigenvalue problem:
     a serial algorithm will be used


     Parallelization info
     --------------------
     sticks:   dense  smooth     PW     G-vecs:    dense   smooth      PW
     Min         115      58     18                 3278     1157     210
     Max         116      59     19                 3280     1159     213
     Sum         463     235     73                13117     4633     845

     Using Slab Decomposition



     bravais-lattice index     =            0
     lattice parameter (alat)  =       5.2912  a.u.
     unit-cell volume          =     209.5008 (a.u.)^3
     number of atoms/cell      =            2
     number of atomic types    =            1
     number of electrons       =        16.00
     number of Kohn-Sham states=           12
     kinetic-energy cutoff     =      30.0000  Ry
     charge density cutoff     =     240.0000  Ry
     scf convergence threshold =      1.0E-07
     mixing beta               =       0.5000
     number of iterations used =            8  plain     mixing
     Exchange-correlation=  SLA  PW   PBE  PBE
                           (   1   4   3   4   0   0   0)

     celldm(1)=   5.291233  celldm(2)=   0.000000  celldm(3)=   0.000000
     celldm(4)=   0.000000  celldm(5)=   0.000000  celldm(6)=   0.000000

     crystal axes: (cart. coord. in units of alat)
               a(1) = (   1.000000   0.000000   0.000000 )  
               a(2) = (  -0.500000   0.866025   0.000000 )  
               a(3) = (   0.000000   0.000000   1.632993 )  

     reciprocal axes: (cart. coord. in units 2 pi/alat)
               b(1) = (  1.000000  0.577350 -0.000000 )  
               b(2) = (  0.000000  1.154701  0.000000 )  
               b(3) = (  0.000000 -0.000000  0.612372 )  


     PseudoPot. # 1 for Fe read from file:
     /home/gridsan/epan1/labutil/lab3_samples/pseudopotentials/Fe.pbe-nd-rrkjus.UPF
     MD5 check sum: 398036227a04b607635f6f5e8dfd8242
     Pseudo is Ultrasoft + core correction, Zval =  8.0
     Generated by new atomic code, or converted to UPF format
     Using radial grid of  957 points,  6 beta functions with: 
                l(1) =   0
                l(2) =   0
                l(3) =   1
                l(4) =   1
                l(5) =   2
                l(6) =   2
     Q(r) pseudized with 0 coefficients 


     atomic species   valence    mass     pseudopotential
        Fe             8.00    55.84500     Fe( 1.00)

     Starting magnetic structure 
     atomic species   magnetization
        Fe           0.700

     24 Sym. Ops., with inversion, found (12 have fractional translation)



   Cartesian axes

     site n.     atom                  positions (alat units)
         1           Fe  tau(   1) = (   0.0000000   0.0000000   0.0000000  )
         2           Fe  tau(   2) = (   0.0000000   0.5773500   0.8164964  )

     number of k points=    32  Methfessel-Paxton smearing, width (Ry)=  0.0200
                       cart. coord. in units 2pi/alat
        k(    1) = (   0.0000000   0.0000000   0.0000000), wk =   0.0029155
        k(    2) = (   0.0000000   0.0000000   0.0874818), wk =   0.0058309
        k(    3) = (   0.0000000   0.0000000   0.1749636), wk =   0.0058309
        k(    4) = (   0.0000000   0.0000000   0.2624453), wk =   0.0058309
        k(    5) = (   0.0000000   0.1649572   0.0000000), wk =   0.0174927
        k(    6) = (   0.0000000   0.1649572   0.0874818), wk =   0.0349854
        k(    7) = (   0.0000000   0.1649572   0.1749636), wk =   0.0349854
        k(    8) = (   0.0000000   0.1649572   0.2624453), wk =   0.0349854
        k(    9) = (   0.0000000   0.3299144   0.0000000), wk =   0.0174927
        k(   10) = (   0.0000000   0.3299144   0.0874818), wk =   0.0349854
        k(   11) = (   0.0000000   0.3299144   0.1749636), wk =   0.0349854
        k(   12) = (   0.0000000   0.3299144   0.2624453), wk =   0.0349854
        k(   13) = (   0.0000000   0.4948717   0.0000000), wk =   0.0174927
        k(   14) = (   0.0000000   0.4948717   0.0874818), wk =   0.0349854
        k(   15) = (   0.0000000   0.4948717   0.1749636), wk =   0.0349854
        k(   16) = (   0.0000000   0.4948717   0.2624453), wk =   0.0349854
        k(   17) = (   0.1428571   0.2474358   0.0000000), wk =   0.0174927
        k(   18) = (   0.1428571   0.2474358   0.0874818), wk =   0.0349854
        k(   19) = (   0.1428571   0.2474358   0.1749636), wk =   0.0349854
        k(   20) = (   0.1428571   0.2474358   0.2624453), wk =   0.0349854
        k(   21) = (   0.1428571   0.4123930   0.0000000), wk =   0.0349854
        k(   22) = (   0.1428571   0.4123930   0.0874818), wk =   0.0699708
        k(   23) = (   0.1428571   0.4123930   0.1749636), wk =   0.0699708
        k(   24) = (   0.1428571   0.4123930   0.2624453), wk =   0.0699708
        k(   25) = (   0.1428571   0.5773503   0.0000000), wk =   0.0174927
        k(   26) = (   0.1428571   0.5773503   0.0874818), wk =   0.0349854
        k(   27) = (   0.1428571   0.5773503   0.1749636), wk =   0.0349854
        k(   28) = (   0.1428571   0.5773503   0.2624453), wk =   0.0349854
        k(   29) = (   0.2857143   0.4948717   0.0000000), wk =   0.0174927
        k(   30) = (   0.2857143   0.4948717   0.0874818), wk =   0.0349854
        k(   31) = (   0.2857143   0.4948717   0.1749636), wk =   0.0349854
        k(   32) = (   0.2857143   0.4948717   0.2624453), wk =   0.0349854

     Dense  grid:    13117 G-vectors     FFT dimensions: (  27,  27,  48)

     Smooth grid:     4633 G-vectors     FFT dimensions: (  24,  24,  32)

     Estimated max dynamical RAM per process >      16.46 MB

     Estimated total dynamical RAM >      65.85 MB

     Check: negative core charge=   -0.000001
     Generating pointlists ...
     new r_m :   0.4125 (alat units)  2.1826 (a.u.) for type    1

     Initial potential from superposition of free atoms

     starting charge      15.9987, renormalised to      16.0000
     Starting wfcs are   12 randomized atomic wfcs

     total cpu time spent up to now is        0.6 secs

     Self-consistent Calculation

     iteration #  1     ecut=    30.00 Ry     beta= 0.50
     Davidson diagonalization with overlap
     ethr =  1.00E-02,  avg # of iterations =  3.6

     total cpu time spent up to now is        1.3 secs

     total energy              =    -111.27817167 Ry
     estimated scf accuracy    <       0.62131048 Ry

     total magnetization       =     7.33 Bohr mag/cell
     absolute magnetization    =     7.33 Bohr mag/cell

     iteration #  2     ecut=    30.00 Ry     beta= 0.50
     Davidson diagonalization with overlap
     ethr =  3.88E-03,  avg # of iterations =  2.3

     total cpu time spent up to now is        2.0 secs

     total energy              =    -111.49228974 Ry
     estimated scf accuracy    <       0.11250312 Ry

     total magnetization       =     6.19 Bohr mag/cell
     absolute magnetization    =     6.22 Bohr mag/cell

     iteration #  3     ecut=    30.00 Ry     beta= 0.50
     Davidson diagonalization with overlap
     ethr =  7.03E-04,  avg # of iterations =  1.7

     total cpu time spent up to now is        2.5 secs

     total energy              =    -111.53081994 Ry
     estimated scf accuracy    <       0.01170368 Ry

     total magnetization       =     6.22 Bohr mag/cell
     absolute magnetization    =     6.31 Bohr mag/cell

     iteration #  4     ecut=    30.00 Ry     beta= 0.50
     Davidson diagonalization with overlap
     ethr =  7.31E-05,  avg # of iterations =  3.2

     total cpu time spent up to now is        3.2 secs

     total energy              =    -111.53803849 Ry
     estimated scf accuracy    <       0.00444963 Ry

     total magnetization       =     5.92 Bohr mag/cell
     absolute magnetization    =     6.20 Bohr mag/cell

     iteration #  5     ecut=    30.00 Ry     beta= 0.50
     Davidson diagonalization with overlap
     ethr =  2.78E-05,  avg # of iterations =  1.9

     total cpu time spent up to now is        3.8 secs

     total energy              =    -111.53903210 Ry
     estimated scf accuracy    <       0.00014438 Ry

     total magnetization       =     5.87 Bohr mag/cell
     absolute magnetization    =     6.18 Bohr mag/cell

     iteration #  6     ecut=    30.00 Ry     beta= 0.50
     Davidson diagonalization with overlap
     ethr =  9.02E-07,  avg # of iterations =  5.1

     total cpu time spent up to now is        4.6 secs

     total energy              =    -111.53927204 Ry
     estimated scf accuracy    <       0.00010585 Ry

     total magnetization       =     5.87 Bohr mag/cell
     absolute magnetization    =     6.20 Bohr mag/cell

     iteration #  7     ecut=    30.00 Ry     beta= 0.50
     Davidson diagonalization with overlap
     ethr =  6.62E-07,  avg # of iterations =  1.7

     total cpu time spent up to now is        5.2 secs

     total energy              =    -111.53920391 Ry
     estimated scf accuracy    <       0.00022173 Ry

     total magnetization       =     5.86 Bohr mag/cell
     absolute magnetization    =     6.20 Bohr mag/cell

     iteration #  8     ecut=    30.00 Ry     beta= 0.50
     Davidson diagonalization with overlap
     ethr =  6.62E-07,  avg # of iterations =  3.0

     total cpu time spent up to now is        5.9 secs

     total energy              =    -111.53925820 Ry
     estimated scf accuracy    <       0.00000290 Ry

     total magnetization       =     5.86 Bohr mag/cell
     absolute magnetization    =     6.21 Bohr mag/cell

     iteration #  9     ecut=    30.00 Ry     beta= 0.50
     Davidson diagonalization with overlap
     ethr =  1.82E-08,  avg # of iterations =  6.5

     total cpu time spent up to now is        7.0 secs

     total energy              =    -111.53926224 Ry
     estimated scf accuracy    <       0.00001097 Ry

     total magnetization       =     5.86 Bohr mag/cell
     absolute magnetization    =     6.21 Bohr mag/cell

     iteration # 10     ecut=    30.00 Ry     beta= 0.50
     Davidson diagonalization with overlap
     ethr =  1.82E-08,  avg # of iterations =  2.9

     total cpu time spent up to now is        7.7 secs

     total energy              =    -111.53926408 Ry
     estimated scf accuracy    <       0.00000044 Ry

     total magnetization       =     5.86 Bohr mag/cell
     absolute magnetization    =     6.21 Bohr mag/cell

     iteration # 11     ecut=    30.00 Ry     beta= 0.50
     Davidson diagonalization with overlap
     ethr =  2.76E-09,  avg # of iterations =  4.8

     total cpu time spent up to now is        8.6 secs

     total energy              =    -111.53926412 Ry
     estimated scf accuracy    <       0.00000156 Ry

     total magnetization       =     5.87 Bohr mag/cell
     absolute magnetization    =     6.21 Bohr mag/cell

     iteration # 12     ecut=    30.00 Ry     beta= 0.50
     Davidson diagonalization with overlap
     ethr =  2.76E-09,  avg # of iterations =  3.3

     total cpu time spent up to now is        9.4 secs

     total energy              =    -111.53926469 Ry
     estimated scf accuracy    <       0.00000023 Ry

     total magnetization       =     5.86 Bohr mag/cell
     absolute magnetization    =     6.21 Bohr mag/cell

     iteration # 13     ecut=    30.00 Ry     beta= 0.50
     Davidson diagonalization with overlap
     ethr =  1.46E-09,  avg # of iterations =  2.0

     Magnetic moment per site  (integrated on atomic sphere of radius R)
     atom   1 (R=0.412)  charge=  6.7911  magn=  3.0111
     atom   2 (R=0.412)  charge=  6.7911  magn=  3.0111

     total cpu time spent up to now is        9.9 secs

     End of self-consistent calculation

 ------ SPIN UP ------------


          k = 0.0000 0.0000 0.0000 (   573 PWs)   bands (ev):

     2.0187   5.0349   6.5896   6.5896   6.7187   6.7752   6.7752   6.9791
     6.9791   7.6728   7.6728   9.1711

          k = 0.0000 0.0000 0.0875 (   579 PWs)   bands (ev):

     2.1766   4.9932   6.5556   6.5556   6.6892   6.7419   6.7419   7.0576
     7.0576   7.6637   7.6637   8.4175

          k = 0.0000 0.0000 0.1750 (   579 PWs)   bands (ev):

     2.6375   4.7714   6.5157   6.5157   6.6181   6.6620   6.6620   7.2220
     7.2220   7.2973   7.6245   7.6245

          k = 0.0000 0.0000 0.2624 (   585 PWs)   bands (ev):

     3.3512   4.1713   6.5210   6.5210   6.5672   6.5763   6.5763   6.6904
     7.3950   7.3950   7.5356   7.5356

          k = 0.0000 0.1650 0.0000 (   584 PWs)   bands (ev):

     2.5736   5.3260   6.3618   6.6622   6.6765   6.8027   6.8630   6.9470
     6.9643   7.0703   7.7151  10.5190

          k = 0.0000 0.1650 0.0875 (   583 PWs)   bands (ev):

     2.7246   5.3094   6.3668   6.5157   6.6740   6.7199   6.9130   6.9309
     7.0130   7.1338   7.6986   9.6512

          k = 0.0000 0.1650 0.1750 (   591 PWs)   bands (ev):

     3.1640   5.1508   6.3029   6.3841   6.5613   6.6710   6.8377   6.8417
     7.1920   7.3039   7.6409   8.5583

          k = 0.0000 0.1650 0.2624 (   593 PWs)   bands (ev):

     3.8393   4.6071   6.2331   6.3270   6.5468   6.6790   6.6838   6.7477
     7.3760   7.5320   7.5532   7.9126

          k = 0.0000 0.3299 0.0000 (   582 PWs)   bands (ev):

     4.0241   5.5616   5.8876   6.3124   6.6432   6.6750   6.8045   7.3173
     7.4183   7.4723   7.7716  12.8843

          k = 0.0000 0.3299 0.0875 (   589 PWs)   bands (ev):

     4.1264   5.5805   5.8684   6.2705   6.6301   6.6769   6.9145   7.3322
     7.3828   7.4666   7.7481  11.4299

          k = 0.0000 0.3299 0.1750 (   583 PWs)   bands (ev):

     4.4089   5.5087   5.8644   6.2294   6.6400   6.7738   7.0177   7.2514
     7.4084   7.5431   7.6843   9.8867

          k = 0.0000 0.3299 0.2624 (   586 PWs)   bands (ev):

     4.7995   5.2012   5.9979   6.1488   6.7694   6.9199   6.9423   7.0905
     7.4954   7.5940   7.9259   8.7015

          k = 0.0000 0.4949 0.0000 (   584 PWs)   bands (ev):

     5.1190   5.3332   5.4683   6.4890   6.6475   6.8332   6.9825   7.7527
     7.7961   7.8380   8.8541  12.4167

          k = 0.0000 0.4949 0.0875 (   576 PWs)   bands (ev):

     5.0287   5.3248   5.6666   6.2418   6.5429   6.9885   7.3406   7.6898
     7.7701   7.8541   8.8141  12.1820

          k = 0.0000 0.4949 0.1750 (   581 PWs)   bands (ev):

     4.9616   5.3109   5.8465   5.9834   6.6978   7.1313   7.4830   7.7839
     7.8494   7.8497   8.8041  11.3305

          k = 0.0000 0.4949 0.2624 (   578 PWs)   bands (ev):

     5.0142   5.1675   5.8716   5.9613   6.9325   7.2111   7.4816   7.8063
     7.8304   7.8515   9.2914  10.2286

          k = 0.1429 0.2474 0.0000 (   587 PWs)   bands (ev):

     3.6010   5.7024   6.0919   6.1103   6.5898   6.6123   6.9500   7.0887
     7.2421   7.4588   7.7317  12.2076

          k = 0.1429 0.2474 0.0875 (   588 PWs)   bands (ev):

     3.7287   5.7346   6.0223   6.1094   6.5798   6.6342   6.8799   7.1115
     7.3103   7.4256   7.7303  10.9509

          k = 0.1429 0.2474 0.1750 (   587 PWs)   bands (ev):

     4.0925   5.6548   5.9250   6.1623   6.5141   6.6482   6.8041   7.1352
     7.4259   7.4497   7.7127   9.5214

          k = 0.1429 0.2474 0.2624 (   577 PWs)   bands (ev):

     4.6255   5.2010   6.0668   6.1928   6.4439   6.5336   6.8882   7.0278
     7.5345   7.6085   7.8321   8.4756

          k = 0.1429 0.4124 0.0000 (   589 PWs)   bands (ev):

     5.0567   5.6248   5.6282   6.2052   6.4227   6.7364   6.8131   7.4552
     7.7352   7.7645   8.4413  14.4283

          k = 0.1429 0.4124 0.0875 (   584 PWs)   bands (ev):

     5.0605   5.6365   5.6849   6.1359   6.5147   6.7530   6.8427   7.4494
     7.6600   7.8042   8.4689  12.8103

          k = 0.1429 0.4124 0.1750 (   578 PWs)   bands (ev):

     5.1029   5.5586   5.8151   6.1767   6.5354   6.7933   6.9658   7.3574
     7.6282   7.8880   8.5829  11.2050

          k = 0.1429 0.4124 0.2624 (   577 PWs)   bands (ev):

     5.2132   5.3811   5.9925   6.1578   6.6505   6.8048   7.0127   7.1289
     7.8222   7.9241   8.9905   9.8962

          k = 0.1429 0.5774 0.0000 (   582 PWs)   bands (ev):

     5.4554   5.4605   5.4640   6.4134   6.5827   6.6172   7.0029   7.7349
     7.7862   7.8876  10.3898  11.4381

          k = 0.1429 0.5774 0.0875 (   579 PWs)   bands (ev):

     5.2581   5.4848   5.7567   6.1953   6.4113   6.9773   7.0417   7.6395
     7.7860   7.9230  10.4616  11.4445

          k = 0.1429 0.5774 0.1750 (   581 PWs)   bands (ev):

     5.1748   5.5102   5.9123   6.0502   6.4113   7.1780   7.1835   7.4330
     7.7952   7.9801  10.6886  11.4431

          k = 0.1429 0.5774 0.2624 (   583 PWs)   bands (ev):

     5.2182   5.3683   5.9345   6.0723   6.6280   6.9755   7.3465   7.4015
     7.8508   7.9542  11.0446  11.3441

          k = 0.2857 0.4949 0.0000 (   569 PWs)   bands (ev):

     5.5259   5.7426   5.9075   6.0281   6.3508   6.5344   6.9773   7.6282
     7.6707   7.8931  10.5245  13.8640

          k = 0.2857 0.4949 0.0875 (   575 PWs)   bands (ev):

     5.5422   5.7476   5.9543   5.9623   6.4568   6.4908   6.9698   7.5613
     7.6615   7.9165  10.6348  13.8202

          k = 0.2857 0.4949 0.1750 (   575 PWs)   bands (ev):

     5.5791   5.7133   5.9600   6.0787   6.3981   6.5753   6.9606   7.3256
     7.7434   7.9541  10.9645  13.3199

          k = 0.2857 0.4949 0.2624 (   575 PWs)   bands (ev):

     5.6168   5.6571   6.0551   6.1490   6.4014   6.5477   6.9857   7.0979
     7.8629   7.9458  11.5363  12.3683

 ------ SPIN DOWN ----------


          k = 0.0000 0.0000 0.0000 (   573 PWs)   bands (ev):

     2.1705   6.6633   9.1667   9.4837   9.6629   9.6629   9.9285   9.9285
    10.4086  10.4086  11.2830  11.2830

          k = 0.0000 0.0000 0.0875 (   579 PWs)   bands (ev):

     2.3294   6.3703   8.9894   9.4309   9.6354   9.6354   9.8875   9.8875
    10.4947  10.4947  11.2704  11.2704

          k = 0.0000 0.0000 0.1750 (   579 PWs)   bands (ev):

     2.7977   5.5503   8.8388   9.2863   9.6009   9.6009   9.7890   9.7890
    10.6928  10.6928  11.2175  11.2175

          k = 0.0000 0.0000 0.2624 (   585 PWs)   bands (ev):

     3.5465   4.5114   8.9083   9.0905   9.6131   9.6131   9.6829   9.6829
    10.9141  10.9141  11.0989  11.0989

          k = 0.0000 0.1650 0.0000 (   584 PWs)   bands (ev):

     2.7290   7.0604   8.7092   9.2132   9.7129   9.8817   9.9277  10.1632
    10.2169  10.2426  11.3460  12.2892

          k = 0.0000 0.1650 0.0875 (   583 PWs)   bands (ev):

     2.8835   6.7875   8.6188   9.2311   9.6335   9.8006   9.8737  10.1061
    10.3733  10.3785  11.3207  11.9672

          k = 0.0000 0.1650 0.1750 (   591 PWs)   bands (ev):

     3.3387   6.0020   8.6092   9.2749   9.3866   9.7098   9.8188  10.0058
    10.6154  10.6446  11.2357  11.5532

          k = 0.0000 0.1650 0.2624 (   593 PWs)   bands (ev):

     4.0653   4.9995   8.7841   9.0550   9.4165   9.5633   9.8280   9.8994
    10.8648  10.9389  11.0810  11.2346

          k = 0.0000 0.3299 0.0000 (   582 PWs)   bands (ev):

     4.2870   7.7580   8.1767   8.7361   9.4769   9.8695   9.9358  10.4186
    10.5916  10.7341  11.4261  14.2934

          k = 0.0000 0.3299 0.0875 (   589 PWs)   bands (ev):

     4.4223   7.5744   8.1766   8.7829   9.4107   9.8084   9.9685  10.5133
    10.6104  10.7099  11.3792  13.2158

          k = 0.0000 0.3299 0.1750 (   583 PWs)   bands (ev):

     4.8176   6.9892   8.3125   8.8747   9.2578   9.6580  10.0643  10.5433
    10.7383  10.7643  11.2549  12.2046

          k = 0.0000 0.3299 0.2624 (   586 PWs)   bands (ev):

     5.4366   6.2053   8.5564   8.8114   9.2473   9.4452  10.2109  10.3838
    10.9119  11.0645  11.0869  11.5252

          k = 0.0000 0.4949 0.0000 (   584 PWs)   bands (ev):

     6.2870   7.6740   7.9365   8.3640   9.5931   9.6824   9.7239  11.1835
    11.2840  11.4387  11.4592  13.8887

          k = 0.0000 0.4949 0.0875 (   576 PWs)   bands (ev):

     6.3523   7.5986   8.0043   8.3825   9.6183   9.7433   9.7900  11.1811
    11.2393  11.3644  11.4012  13.5230

          k = 0.0000 0.4949 0.1750 (   581 PWs)   bands (ev):

     6.5335   7.3830   8.1768   8.4803   9.5563   9.9686   9.9815  10.9842
    11.2137  11.2242  11.3357  12.6726

          k = 0.0000 0.4949 0.2624 (   578 PWs)   bands (ev):

     6.7942   7.0925   8.3898   8.5310   9.6493   9.9310  10.2766  10.6341
    11.2554  11.2936  11.3208  11.8601

          k = 0.1429 0.2474 0.0000 (   587 PWs)   bands (ev):

     3.7934   7.6623   8.3141   8.7948   9.5558   9.8171  10.0559  10.1551
    10.4395  10.6608  11.3692  13.7263

          k = 0.1429 0.2474 0.0875 (   588 PWs)   bands (ev):

     3.9370   7.4443   8.2829   8.8308   9.5899   9.6308  10.0692  10.2121
    10.5475  10.6469  11.3357  12.9133

          k = 0.1429 0.2474 0.1750 (   587 PWs)   bands (ev):

     4.3581   6.7597   8.3905   8.9306   9.3387   9.5447  10.0356  10.3266
    10.7222  10.7251  11.2386  12.0578

          k = 0.1429 0.2474 0.2624 (   577 PWs)   bands (ev):

     5.0249   5.8700   8.6395   8.9291   9.1821   9.3625  10.1262  10.2485
    10.9063  11.0227  11.0934  11.4640

          k = 0.1429 0.4124 0.0000 (   589 PWs)   bands (ev):

     5.6442   7.9853   8.0665   8.3837   9.5205   9.6166   9.8308  10.5515
    11.0769  11.3741  11.4467  15.4807

          k = 0.1429 0.4124 0.0875 (   584 PWs)   bands (ev):

     5.7516   7.8827   8.0907   8.4574   9.4151   9.6624   9.8180  10.5812
    11.1324  11.1867  11.5321  14.1642

          k = 0.1429 0.4124 0.1750 (   578 PWs)   bands (ev):

     6.0587   7.5368   8.2570   8.5946   9.2630   9.5070   9.9611  10.6621
    10.9464  11.2492  11.5631  12.9064

          k = 0.1429 0.4124 0.2624 (   577 PWs)   bands (ev):

     6.5182   7.0474   8.4913   8.6589   9.1673   9.2919  10.1867  10.4696
    11.1128  11.3151  11.6012  12.0073

          k = 0.1429 0.5774 0.0000 (   582 PWs)   bands (ev):

     7.1021   7.7018   8.0090   8.1480   9.5066   9.5583   9.8155  11.1107
    11.2009  11.3734  12.3666  13.3213

          k = 0.1429 0.5774 0.0875 (   579 PWs)   bands (ev):

     7.1223   7.6877   8.1132   8.1583   9.4688   9.5491   9.9033  11.1077
    11.2059  11.2533  12.3532  13.2665

          k = 0.1429 0.5774 0.1750 (   581 PWs)   bands (ev):

     7.1877   7.6000   8.2625   8.3817   9.2854   9.5831  10.1010  10.9028
    11.1083  11.2828  12.3346  13.0857

          k = 0.1429 0.5774 0.2624 (   583 PWs)   bands (ev):

     7.3011   7.4501   8.4692   8.6014   9.2027   9.4347  10.3500  10.6015
    11.1446  11.2380  12.4638  12.7777

          k = 0.2857 0.4949 0.0000 (   569 PWs)   bands (ev):

     7.2595   8.0366   8.0500   8.1496   9.3411   9.5056   9.9484  10.7516
    11.1548  11.2866  12.6568  14.9980

          k = 0.2857 0.4949 0.0875 (   575 PWs)   bands (ev):

     7.3258   8.0217   8.0906   8.2290   9.3041   9.3826   9.9585  10.7888
    11.1310  11.1961  12.7400  14.9146

          k = 0.2857 0.4949 0.1750 (   575 PWs)   bands (ev):

     7.5021   7.9865   8.2145   8.4233   9.0904   9.1817  10.0079  10.7597
    10.9362  11.2541  12.9373  14.4623

          k = 0.2857 0.4949 0.2624 (   575 PWs)   bands (ev):

     7.7203   7.8945   8.4282   8.6559   8.7763   8.9695  10.1500  10.4151
    11.0969  11.2295  13.2559  13.7793

     the Fermi energy is     9.5056 ev

!    total energy              =    -111.53926474 Ry
     estimated scf accuracy    <          5.2E-09 Ry
     smearing contrib. (-TS)   =      -0.00055428 Ry
     internal energy E=F+TS    =    -111.53871047 Ry

     The total energy is F=E-TS. E is the sum of the following terms:
     one-electron contribution =       3.08249805 Ry
     hartree contribution      =      16.50652936 Ry
     xc contribution           =     -52.70407157 Ry
     ewald contribution        =     -78.42366630 Ry

     total magnetization       =     5.86 Bohr mag/cell
     absolute magnetization    =     6.21 Bohr mag/cell

     convergence has been achieved in  13 iterations

     Forces acting on atoms (cartesian axes, Ry/au):

     atom    1 type  1   force =     0.00000000   -0.00000000    0.00000000
     atom    2 type  1   force =     0.00000000    0.00000000    0.00000000
     The non-local contrib.  to forces
     atom    1 type  1   force =     0.00000000   -0.00000000    0.00000000
     atom    2 type  1   force =     0.00000000   -0.00000000    0.00000000
     The ionic contribution  to forces
     atom    1 type  1   force =    -0.00000000   -0.00000050   -0.00000562
     atom    2 type  1   force =    -0.00000000    0.00000050    0.00000562
     The local contribution  to forces
     atom    1 type  1   force =     0.00000150    0.00000261   -0.00000417
     atom    2 type  1   force =     0.00000150    0.00004540    0.00001996
     The core correction contribution to forces
     atom    1 type  1   force =     0.00000028    0.00000053   -0.00000040
     atom    2 type  1   force =     0.00000028    0.00000725    0.00000338
     The Hubbard contrib.    to forces
     atom    1 type  1   force =     0.00000000    0.00000000    0.00000000
     atom    2 type  1   force =     0.00000000    0.00000000    0.00000000
     The SCF correction term to forces
     atom    1 type  1   force =    -0.00000000   -0.00000000   -0.00000000
     atom    2 type  1   force =    -0.00000000   -0.00000000    0.00000000

     Total force =     0.000000     Total SCF correction =     0.000000


     Computing stress (Cartesian axis) and pressure

          total   stress  (Ry/bohr**3)                   (kbar)     P=     -216.55
  -0.00157721   0.00000000   0.00000000         -232.02        0.00        0.00
   0.00000000  -0.00157721   0.00000000            0.00     -232.02        0.00
   0.00000000   0.00000000  -0.00126173            0.00        0.00     -185.61


     init_run     :      0.54s CPU      0.48s WALL (       1 calls)
     electrons    :     10.89s CPU      9.30s WALL (       1 calls)
     forces       :      0.09s CPU      0.08s WALL (       1 calls)
     stress       :      0.55s CPU      0.50s WALL (       1 calls)

     Called by init_run:
     wfcinit      :      0.24s CPU      0.19s WALL (       1 calls)
     potinit      :      0.12s CPU      0.12s WALL (       1 calls)
     hinit0       :      0.15s CPU      0.15s WALL (       1 calls)

     Called by electrons:
     c_bands      :      9.08s CPU      7.68s WALL (      13 calls)
     sum_band     :      1.43s CPU      1.28s WALL (      13 calls)
     v_of_rho     :      0.21s CPU      0.18s WALL (      14 calls)
     newd         :      0.15s CPU      0.14s WALL (      14 calls)
     mix_rho      :      0.03s CPU      0.02s WALL (      13 calls)

     Called by c_bands:
     init_us_2    :      0.17s CPU      0.15s WALL (    1856 calls)
     init_us_2:cp :      0.17s CPU      0.15s WALL (    1856 calls)
     cegterg      :      8.38s CPU      7.00s WALL (     832 calls)

     Called by *egterg:
     cdiaghg      :      1.14s CPU      0.94s WALL (    3527 calls)
     h_psi        :      6.54s CPU      5.45s WALL (    3591 calls)
     s_psi        :      0.13s CPU      0.11s WALL (    3591 calls)
     g_psi        :      0.03s CPU      0.02s WALL (    2695 calls)

     Called by h_psi:
     h_psi:calbec :      0.32s CPU      0.27s WALL (    3591 calls)
     vloc_psi     :      6.04s CPU      5.04s WALL (    3591 calls)
     add_vuspsi   :      0.14s CPU      0.11s WALL (    3591 calls)

     General routines
     calbec       :      0.50s CPU      0.43s WALL (    4743 calls)
     fft          :      0.20s CPU      0.19s WALL (     388 calls)
     ffts         :      0.11s CPU      0.11s WALL (      54 calls)
     fftw         :      6.23s CPU      5.26s WALL (   69398 calls)
     interpolate  :      0.11s CPU      0.11s WALL (      28 calls)

     Parallel routines

     PWSCF        :     12.26s CPU     10.63s WALL


   This run was terminated on:  16:50:34   1Nov2023            

=------------------------------------------------------------------------------=
   JOB DONE.
=------------------------------------------------------------------------------=
