
     Program PWSCF v.7.2 starts on  1Nov2023 at 16:42: 4 

     This program is part of the open-source Quantum ESPRESSO suite
     for quantum simulation of materials; please cite
         "P. Giannozzi et al., J. Phys.:Condens. Matter 21 395502 (2009);
         "P. Giannozzi et al., J. Phys.:Condens. Matter 29 465901 (2017);
         "P. Giannozzi et al., J. Chem. Phys. 152 154105 (2020);
          URL http://www.quantum-espresso.org", 
     in publications or presentations arising from this work. More details at
     http://www.quantum-espresso.org/quote

     Parallel version (MPI), running on     4 processors

     MPI processes distributed on     4 nodes
     185277 MiB available memory on the printing compute node when the environment starts

     Waiting for input...
     Reading input from standard input
Warning: card &CELL ignored
Warning: card / ignored

     Current dimensions of program PWSCF are:
     Max number of different atomic species (ntypx) = 10
     Max number of k-points (npk) =  40000
     Max angular momentum in pseudopotentials (lmaxx) =  4
     file Fe.pbe-nd-rrkjus.UPF: wavefunction(s)  4S renormalized
     Message from routine setup:
     using ibrav=0 with symmetry is DISCOURAGED, use correct ibrav instead

     R & G space division:  proc/nbgrp/npool/nimage =       4
     Subspace diagonalization in iterative solution of the eigenvalue problem:
     a serial algorithm will be used


     Parallelization info
     --------------------
     sticks:   dense  smooth     PW     G-vecs:    dense   smooth      PW
     Min         139      69     23                 2097      724     150
     Max         140      70     24                 2099      726     151
     Sum         557     277     95                 8391     2899     603

     Using Slab Decomposition



     bravais-lattice index     =            0
     lattice parameter (alat)  =       5.5643  a.u.
     unit-cell volume          =     132.6183 (a.u.)^3
     number of atoms/cell      =            1
     number of atomic types    =            1
     number of electrons       =         8.00
     number of Kohn-Sham states=            8
     kinetic-energy cutoff     =      30.0000  Ry
     charge density cutoff     =     240.0000  Ry
     scf convergence threshold =      1.0E-07
     mixing beta               =       0.5000
     number of iterations used =            8  plain     mixing
     Exchange-correlation=  SLA  PW   PBE  PBE
                           (   1   4   3   4   0   0   0)

     celldm(1)=   5.564273  celldm(2)=   0.000000  celldm(3)=   0.000000
     celldm(4)=   0.000000  celldm(5)=   0.000000  celldm(6)=   0.000000

     crystal axes: (cart. coord. in units of alat)
               a(1) = (  -0.577350   0.577350   0.577350 )  
               a(2) = (   0.577350  -0.577350   0.577350 )  
               a(3) = (   0.577350   0.577350  -0.577350 )  

     reciprocal axes: (cart. coord. in units 2 pi/alat)
               b(1) = (  0.000000  0.866025  0.866025 )  
               b(2) = (  0.866025  0.000000  0.866025 )  
               b(3) = (  0.866025  0.866025  0.000000 )  


     PseudoPot. # 1 for Fe read from file:
     /home/gridsan/epan1/labutil/lab3_samples/pseudopotentials/Fe.pbe-nd-rrkjus.UPF
     MD5 check sum: 398036227a04b607635f6f5e8dfd8242
     Pseudo is Ultrasoft + core correction, Zval =  8.0
     Generated by new atomic code, or converted to UPF format
     Using radial grid of  957 points,  6 beta functions with: 
                l(1) =   0
                l(2) =   0
                l(3) =   1
                l(4) =   1
                l(5) =   2
                l(6) =   2
     Q(r) pseudized with 0 coefficients 


     atomic species   valence    mass     pseudopotential
        Fe             8.00    55.84500     Fe( 1.00)

     Starting magnetic structure 
     atomic species   magnetization
        Fe           0.700

     48 Sym. Ops., with inversion, found



   Cartesian axes

     site n.     atom                  positions (alat units)
         1           Fe  tau(   1) = (   0.0000000   0.0000000   0.0000000  )

     number of k points=    20  Methfessel-Paxton smearing, width (Ry)=  0.0200
                       cart. coord. in units 2pi/alat
        k(    1) = (   0.0000000   0.0000000   0.0000000), wk =   0.0029155
        k(    2) = (   0.1237179   0.1237179   0.0000000), wk =   0.0349854
        k(    3) = (   0.2474358   0.2474358   0.0000000), wk =   0.0349854
        k(    4) = (   0.3711537   0.3711537   0.0000000), wk =   0.0349854
        k(    5) = (   0.2474358   0.1237179   0.1237179), wk =   0.0699708
        k(    6) = (   0.3711537   0.2474358   0.1237179), wk =   0.1399417
        k(    7) = (   0.4948717   0.3711537   0.1237179), wk =   0.0699708
        k(    8) = (   0.4948717   0.2474358   0.2474358), wk =   0.0699708
        k(    9) = (   0.2474358   0.2474358   0.2474358), wk =   0.0233236
        k(   10) = (   0.3711537   0.3711537   0.2474358), wk =   0.0699708
        k(   11) = (  -0.0000000  -0.0000000   0.2474358), wk =   0.0174927
        k(   12) = (   0.4948717   0.3711537   0.3711537), wk =   0.0233236
        k(   13) = (   0.0000000  -0.1237179   0.3711537), wk =   0.0699708
        k(   14) = (  -0.0000000  -0.2474358   0.4948717), wk =   0.0699708
        k(   15) = (   0.1237179  -0.1237179   0.4948717), wk =   0.0699708
        k(   16) = (  -0.7423075  -0.2474358  -0.2474358), wk =   0.0699708
        k(   17) = (   0.0000000   0.0000000   0.4948717), wk =   0.0174927
        k(   18) = (  -0.0000000  -0.1237179   0.6185896), wk =   0.0699708
        k(   19) = (  -0.7423075  -0.1237179  -0.1237179), wk =   0.0233236
        k(   20) = (  -0.0000000  -0.0000000   0.7423075), wk =   0.0174927

     Dense  grid:     8391 G-vectors     FFT dimensions: (  27,  27,  27)

     Smooth grid:     2899 G-vectors     FFT dimensions: (  20,  20,  20)

     Estimated max dynamical RAM per process >      10.26 MB

     Estimated total dynamical RAM >      41.04 MB

     Check: negative core charge=   -0.000003
     Generating pointlists ...
     new r_m :   0.4125 (alat units)  2.2953 (a.u.) for type    1

     Initial potential from superposition of free atoms

     starting charge       7.9994, renormalised to       8.0000
     Starting wfcs are    6 randomized atomic wfcs +    2 random wfcs

     total cpu time spent up to now is        0.4 secs

     Self-consistent Calculation

     iteration #  1     ecut=    30.00 Ry     beta= 0.50
     Davidson diagonalization with overlap
     ethr =  1.00E-02,  avg # of iterations =  4.7

     total cpu time spent up to now is        0.6 secs

     total energy              =     -55.53735221 Ry
     estimated scf accuracy    <       0.42222592 Ry

     total magnetization       =     3.82 Bohr mag/cell
     absolute magnetization    =     3.82 Bohr mag/cell

     iteration #  2     ecut=    30.00 Ry     beta= 0.50
     Davidson diagonalization with overlap
     ethr =  5.28E-03,  avg # of iterations =  2.0

     total cpu time spent up to now is        0.7 secs

     total energy              =     -55.67358255 Ry
     estimated scf accuracy    <       0.24909141 Ry

     total magnetization       =     3.07 Bohr mag/cell
     absolute magnetization    =     3.09 Bohr mag/cell

     iteration #  3     ecut=    30.00 Ry     beta= 0.50
     Davidson diagonalization with overlap
     ethr =  3.11E-03,  avg # of iterations =  1.1

     total cpu time spent up to now is        0.8 secs

     total energy              =     -55.72307964 Ry
     estimated scf accuracy    <       0.00656949 Ry

     total magnetization       =     3.17 Bohr mag/cell
     absolute magnetization    =     3.27 Bohr mag/cell

     iteration #  4     ecut=    30.00 Ry     beta= 0.50
     Davidson diagonalization with overlap
     ethr =  8.21E-05,  avg # of iterations =  3.4

     total cpu time spent up to now is        0.9 secs

     total energy              =     -55.72544187 Ry
     estimated scf accuracy    <       0.00409785 Ry

     total magnetization       =     3.11 Bohr mag/cell
     absolute magnetization    =     3.34 Bohr mag/cell

     iteration #  5     ecut=    30.00 Ry     beta= 0.50
     Davidson diagonalization with overlap
     ethr =  5.12E-05,  avg # of iterations =  1.4

     total cpu time spent up to now is        1.0 secs

     total energy              =     -55.72640013 Ry
     estimated scf accuracy    <       0.00015094 Ry

     total magnetization       =     3.05 Bohr mag/cell
     absolute magnetization    =     3.30 Bohr mag/cell

     iteration #  6     ecut=    30.00 Ry     beta= 0.50
     Davidson diagonalization with overlap
     c_bands:  1 eigenvalues not converged
     ethr =  1.89E-06,  avg # of iterations =  7.4

     total cpu time spent up to now is        1.2 secs

     total energy              =     -55.72656599 Ry
     estimated scf accuracy    <       0.00020114 Ry

     total magnetization       =     3.04 Bohr mag/cell
     absolute magnetization    =     3.33 Bohr mag/cell

     iteration #  7     ecut=    30.00 Ry     beta= 0.50
     Davidson diagonalization with overlap
     ethr =  1.89E-06,  avg # of iterations =  1.8

     total cpu time spent up to now is        1.3 secs

     total energy              =     -55.72661261 Ry
     estimated scf accuracy    <       0.00000739 Ry

     total magnetization       =     3.03 Bohr mag/cell
     absolute magnetization    =     3.33 Bohr mag/cell

     iteration #  8     ecut=    30.00 Ry     beta= 0.50
     Davidson diagonalization with overlap
     ethr =  9.23E-08,  avg # of iterations =  2.8

     total cpu time spent up to now is        1.5 secs

     total energy              =     -55.72661627 Ry
     estimated scf accuracy    <       0.00000017 Ry

     total magnetization       =     3.03 Bohr mag/cell
     absolute magnetization    =     3.33 Bohr mag/cell

     iteration #  9     ecut=    30.00 Ry     beta= 0.50
     Davidson diagonalization with overlap
     ethr =  2.12E-09,  avg # of iterations =  5.6

     total cpu time spent up to now is        1.7 secs

     total energy              =     -55.72661691 Ry
     estimated scf accuracy    <       0.00000011 Ry

     total magnetization       =     3.03 Bohr mag/cell
     absolute magnetization    =     3.33 Bohr mag/cell

     iteration # 10     ecut=    30.00 Ry     beta= 0.50
     Davidson diagonalization with overlap
     ethr =  1.41E-09,  avg # of iterations =  2.5

     Magnetic moment per site  (integrated on atomic sphere of radius R)
     atom   1 (R=0.413)  charge=  6.7884  magn=  3.1742

     total cpu time spent up to now is        1.8 secs

     End of self-consistent calculation

 ------ SPIN UP ------------


          k = 0.0000 0.0000 0.0000 (   369 PWs)   bands (ev):

     0.4298   3.8171   3.8171   3.8171   4.2881   4.2881  25.8907  25.8908

          k = 0.1237 0.1237 0.0000 (   366 PWs)   bands (ev):

     0.9833   3.7379   3.8188   4.0028   4.2310   4.2943  20.9551  23.7529

          k = 0.2474 0.2474 0.0000 (   366 PWs)   bands (ev):

     2.3181   3.5636   4.0029   4.2572   4.3142   4.4518  15.3184  21.0849

          k = 0.3712 0.3712 0.0000 (   368 PWs)   bands (ev):

     2.7831   3.4270   4.2960   4.3362   4.8516   6.0467  10.6319  19.5108

          k = 0.2474 0.1237 0.1237 (   363 PWs)   bands (ev):

     1.9819   3.6808   3.6877   4.1847   4.3327   4.4320  18.3612  18.3989

          k = 0.3712 0.2474 0.1237 (   371 PWs)   bands (ev):

     2.9440   3.5090   3.9635   4.2667   4.4403   5.5867  13.1582  16.6886

          k = 0.4949 0.3712 0.1237 (   363 PWs)   bands (ev):

     2.9739   3.4486   4.1559   4.3037   4.6611   7.8247   9.5940  16.0751

          k = 0.4949 0.2474 0.2474 (   366 PWs)   bands (ev):

     3.2647   3.5170   3.7949   4.3432   4.4846   8.1856  11.9875  12.0258

          k = 0.2474 0.2474 0.2474 (   360 PWs)   bands (ev):

     3.0806   3.5082   3.5082   4.3042   4.3042   5.4452  15.9940  16.3737

          k = 0.3712 0.3712 0.2474 (   365 PWs)   bands (ev):

     3.2667   3.4213   3.9661   4.3368   4.3438   7.7006  11.5249  14.9457

          k =-0.0000-0.0000 0.2474 (   369 PWs)   bands (ev):

     1.5125   3.8592   3.8592   4.0036   4.0401   4.3958  21.0977  21.0978

          k = 0.4949 0.3712 0.3712 (   351 PWs)   bands (ev):

     3.3713   3.6615   3.6615   4.3580   4.3580  10.8584  10.8584  11.0951

          k = 0.0000-0.1237 0.3712 (   369 PWs)   bands (ev):

     2.7028   3.7415   3.7575   4.1302   4.4172   4.7453  15.7837  18.7395

          k =-0.0000-0.2474 0.4949 (   367 PWs)   bands (ev):

     3.0089   3.6429   3.8354   4.2203   4.8292   6.8446  11.0452  17.3745

          k = 0.1237-0.1237 0.4949 (   371 PWs)   bands (ev):

     3.2543   3.4463   3.8449   4.2339   4.6141   6.4856  14.0011  14.1628

          k =-0.7423-0.2474-0.2474 (   370 PWs)   bands (ev):

     3.2406   3.5388   3.6893   4.3610   4.7386   9.3159  10.1897  13.4591

          k = 0.0000 0.0000 0.4949 (   366 PWs)   bands (ev):

     3.1859   3.4499   4.1562   4.1562   4.4231   5.9154  16.3148  16.3148

          k =-0.0000-0.1237 0.6186 (   367 PWs)   bands (ev):

     3.1517   3.2560   4.1879   4.3404   4.7790   8.5027  12.3263  14.8935

          k =-0.7423-0.1237-0.1237 (   373 PWs)   bands (ev):

     3.0996   3.0996   4.2347   4.7124   4.7124  11.5908  11.5908  11.7726

          k =-0.0000-0.0000 0.7423 (   370 PWs)   bands (ev):

     2.9514   2.9576   4.6931   4.6931   4.7589  10.9531  13.3847  13.3847

 ------ SPIN DOWN ----------


          k = 0.0000 0.0000 0.0000 (   369 PWs)   bands (ev):

     0.4607   6.9175   6.9175   6.9175   7.9805   7.9805  25.3209  25.3209

          k = 0.1237 0.1237 0.0000 (   366 PWs)   bands (ev):

     1.0203   6.7911   6.8759   7.1534   7.8715   7.9919  21.3053  23.7418

          k = 0.2474 0.2474 0.0000 (   366 PWs)   bands (ev):

     2.5858   6.5170   6.6610   7.7414   7.8121   8.0331  16.0133  21.3609

          k = 0.3712 0.3712 0.0000 (   368 PWs)   bands (ev):

     4.4366   6.3062   6.6770   7.8702   8.0830   8.2928  11.9435  20.0651

          k = 0.2474 0.1237 0.1237 (   363 PWs)   bands (ev):

     2.0907   6.6388   6.6607   7.6120   7.7560   8.0506  18.8158  18.9624

          k = 0.3712 0.2474 0.1237 (   371 PWs)   bands (ev):

     3.9274   6.3553   6.4474   7.7936   8.0739   8.3797  13.9982  17.2219

          k = 0.4949 0.3712 0.1237 (   363 PWs)   bands (ev):

     5.0618   6.2746   6.4700   7.8565   8.1295   9.1049  11.2274  16.5895

          k = 0.4949 0.2474 0.2474 (   366 PWs)   bands (ev):

     5.4233   6.0944   6.2839   7.8820   8.0521   9.8055  12.8444  12.9177

          k = 0.2474 0.2474 0.2474 (   360 PWs)   bands (ev):

     3.5434   6.3217   6.3217   7.9858   7.9858   8.3864  16.6977  16.8733

          k = 0.3712 0.3712 0.2474 (   365 PWs)   bands (ev):

     5.1969   6.1311   6.1632   8.0044   8.0922   9.5188  12.4863  15.5529

          k =-0.0000-0.0000 0.2474 (   369 PWs)   bands (ev):

     1.5668   6.9119   6.9119   7.1639   7.5542   8.1139  21.5399  21.6874

          k = 0.4949 0.3712 0.3712 (   351 PWs)   bands (ev):

     5.8884   6.0254   6.0254   8.0873   8.0873  11.8310  11.8310  12.0755

          k = 0.0000-0.1237 0.3712 (   369 PWs)   bands (ev):

     3.0818   6.7076   6.7480   7.4302   7.6938   8.1928  16.4479  19.3582

          k =-0.0000-0.2474 0.4949 (   367 PWs)   bands (ev):

     4.8418   6.3723   6.5715   7.6101   8.2616   8.6606  12.1986  17.9212

          k = 0.1237-0.1237 0.4949 (   371 PWs)   bands (ev):

     4.6852   6.3233   6.7644   7.5045   8.0146   8.7238  14.7015  14.8957

          k =-0.7423-0.2474-0.2474 (   370 PWs)   bands (ev):

     5.6974   6.0657   6.5517   7.6760   8.1414  10.3489  11.4794  14.1524

          k = 0.0000 0.0000 0.4949 (   366 PWs)   bands (ev):

     4.3490   6.5513   7.2168   7.2168   7.7224   8.4263  16.8902  16.8902

          k =-0.0000-0.1237 0.6186 (   367 PWs)   bands (ev):

     5.5108   6.0399   7.2802   7.4722   8.1928   9.7252  13.0893  15.3544

          k =-0.7423-0.1237-0.1237 (   373 PWs)   bands (ev):

     5.8082   5.8082   7.2641   8.0642   8.0642  12.2516  12.2516  12.5059

          k =-0.0000-0.0000 0.7423 (   370 PWs)   bands (ev):

     5.6238   5.7353   8.0230   8.0230   8.1734  11.5005  13.6449  13.6449

     the Fermi energy is     6.6602 ev

!    total energy              =     -55.72661709 Ry
     estimated scf accuracy    <       0.00000003 Ry
     smearing contrib. (-TS)   =      -0.00053854 Ry
     internal energy E=F+TS    =     -55.72607855 Ry

     The total energy is F=E-TS. E is the sum of the following terms:
     one-electron contribution =      -2.80953388 Ry
     hartree contribution      =       9.61640163 Ry
     xc contribution           =     -26.28260452 Ry
     ewald contribution        =     -36.25034178 Ry

     total magnetization       =     3.03 Bohr mag/cell
     absolute magnetization    =     3.33 Bohr mag/cell

     convergence has been achieved in  10 iterations

     Forces acting on atoms (cartesian axes, Ry/au):

     atom    1 type  1   force =     0.00000000    0.00000000    0.00000000
     The non-local contrib.  to forces
     atom    1 type  1   force =     0.00000000    0.00000000    0.00000000
     The ionic contribution  to forces
     atom    1 type  1   force =    -0.00000000   -0.00000000   -0.00000000
     The local contribution  to forces
     atom    1 type  1   force =     0.00000000    0.00000000    0.00000000
     The core correction contribution to forces
     atom    1 type  1   force =    -0.00000000    0.00000000    0.00000000
     The Hubbard contrib.    to forces
     atom    1 type  1   force =     0.00000000    0.00000000    0.00000000
     The SCF correction term to forces
     atom    1 type  1   force =    -0.00000000   -0.00000000   -0.00000000

     Total force =     0.000000     Total SCF correction =     0.000000


     Computing stress (Cartesian axis) and pressure

          total   stress  (Ry/bohr**3)                   (kbar)     P=     -263.53
  -0.00179147   0.00000000   0.00000000         -263.53        0.00        0.00
   0.00000000  -0.00179147   0.00000000            0.00     -263.53        0.00
   0.00000000   0.00000000  -0.00179147            0.00        0.00     -263.53


     init_run     :      0.25s CPU      0.27s WALL (       1 calls)
     electrons    :      1.31s CPU      1.43s WALL (       1 calls)
     forces       :      0.02s CPU      0.02s WALL (       1 calls)
     stress       :      0.12s CPU      0.11s WALL (       1 calls)

     Called by init_run:
     wfcinit      :      0.04s CPU      0.04s WALL (       1 calls)
     potinit      :      0.09s CPU      0.11s WALL (       1 calls)
     hinit0       :      0.11s CPU      0.11s WALL (       1 calls)

     Called by electrons:
     c_bands      :      0.98s CPU      1.11s WALL (      10 calls)
     sum_band     :      0.19s CPU      0.19s WALL (      10 calls)
     v_of_rho     :      0.08s CPU      0.07s WALL (      11 calls)
     newd         :      0.04s CPU      0.05s WALL (      11 calls)
     mix_rho      :      0.01s CPU      0.01s WALL (      10 calls)

     Called by c_bands:
     init_us_2    :      0.03s CPU      0.04s WALL (     920 calls)
     init_us_2:cp :      0.03s CPU      0.03s WALL (     920 calls)
     cegterg      :      0.87s CPU      0.89s WALL (     400 calls)

     Called by *egterg:
     cdiaghg      :      0.16s CPU      0.16s WALL (    1708 calls)
     h_psi        :      0.56s CPU      0.57s WALL (    1748 calls)
     s_psi        :      0.01s CPU      0.01s WALL (    1748 calls)
     g_psi        :      0.00s CPU      0.00s WALL (    1308 calls)

     Called by h_psi:
     h_psi:calbec :      0.05s CPU      0.06s WALL (    1748 calls)
     vloc_psi     :      0.48s CPU      0.50s WALL (    1748 calls)
     add_vuspsi   :      0.01s CPU      0.02s WALL (    1748 calls)

     General routines
     calbec       :      0.07s CPU      0.07s WALL (    2348 calls)
     fft          :      0.09s CPU      0.09s WALL (     313 calls)
     ffts         :      0.09s CPU      0.10s WALL (      42 calls)
     fftw         :      0.47s CPU      0.48s WALL (   21484 calls)
     interpolate  :      0.10s CPU      0.10s WALL (      22 calls)

     Parallel routines

     PWSCF        :      1.85s CPU      2.00s WALL


   This run was terminated on:  16:42: 6   1Nov2023            

=------------------------------------------------------------------------------=
   JOB DONE.
=------------------------------------------------------------------------------=
