
     Program PWSCF v.7.2 starts on  1Nov2023 at 17:35: 4 

     This program is part of the open-source Quantum ESPRESSO suite
     for quantum simulation of materials; please cite
         "P. Giannozzi et al., J. Phys.:Condens. Matter 21 395502 (2009);
         "P. Giannozzi et al., J. Phys.:Condens. Matter 29 465901 (2017);
         "P. Giannozzi et al., J. Chem. Phys. 152 154105 (2020);
          URL http://www.quantum-espresso.org", 
     in publications or presentations arising from this work. More details at
     http://www.quantum-espresso.org/quote

     Parallel version (MPI), running on     4 processors

     MPI processes distributed on     4 nodes
     186302 MiB available memory on the printing compute node when the environment starts

     Waiting for input...
     Reading input from standard input

     Current dimensions of program PWSCF are:
     Max number of different atomic species (ntypx) = 10
     Max number of k-points (npk) =  40000
     Max angular momentum in pseudopotentials (lmaxx) =  4
     file Fe.pbe-nd-rrkjus.UPF: wavefunction(s)  4S renormalized
     Message from routine setup:
     using ibrav=0 with symmetry is DISCOURAGED, use correct ibrav instead

     R & G space division:  proc/nbgrp/npool/nimage =       4
     Subspace diagonalization in iterative solution of the eigenvalue problem:
     a serial algorithm will be used


     Parallelization info
     --------------------
     sticks:   dense  smooth     PW     G-vecs:    dense   smooth      PW
     Min          95      45     22                 1181      400     138
     Max          96      46     23                 1183      401     139
     Sum         383     181     91                 4729     1601     555

     Using Slab Decomposition



     bravais-lattice index     =            0
     lattice parameter (alat)  =       4.5899  a.u.
     unit-cell volume          =      74.4385 (a.u.)^3
     number of atoms/cell      =            1
     number of atomic types    =            1
     number of electrons       =         8.00
     number of Kohn-Sham states=            8
     kinetic-energy cutoff     =      30.0000  Ry
     charge density cutoff     =     240.0000  Ry
     scf convergence threshold =      1.0E-07
     mixing beta               =       0.5000
     number of iterations used =            8  plain     mixing
     energy convergence thresh.=      1.0E-04
     force convergence thresh. =      1.0E-03
     press convergence thresh. =      5.0E-01
     Exchange-correlation=  SLA  PW   PBE  PBE
                           (   1   4   3   4   0   0   0)
     nstep                     =           50


     celldm(1)=   4.589935  celldm(2)=   0.000000  celldm(3)=   0.000000
     celldm(4)=   0.000000  celldm(5)=   0.000000  celldm(6)=   0.000000

     crystal axes: (cart. coord. in units of alat)
               a(1) = (  -0.577350   0.577350   0.577350 )  
               a(2) = (   0.577350  -0.577350   0.577350 )  
               a(3) = (   0.577350   0.577350  -0.577350 )  

     reciprocal axes: (cart. coord. in units 2 pi/alat)
               b(1) = (  0.000000  0.866025  0.866025 )  
               b(2) = (  0.866025  0.000000  0.866025 )  
               b(3) = (  0.866025  0.866025  0.000000 )  


     PseudoPot. # 1 for Fe read from file:
     /home/gridsan/epan1/labutil/lab3_samples/pseudopotentials/Fe.pbe-nd-rrkjus.UPF
     MD5 check sum: 398036227a04b607635f6f5e8dfd8242
     Pseudo is Ultrasoft + core correction, Zval =  8.0
     Generated by new atomic code, or converted to UPF format
     Using radial grid of  957 points,  6 beta functions with: 
                l(1) =   0
                l(2) =   0
                l(3) =   1
                l(4) =   1
                l(5) =   2
                l(6) =   2
     Q(r) pseudized with 0 coefficients 


     atomic species   valence    mass     pseudopotential
        Fe             8.00    55.84500     Fe( 1.00)

     Starting magnetic structure 
     atomic species   magnetization
        Fe           0.700

     48 Sym. Ops., with inversion, found



   Cartesian axes

     site n.     atom                  positions (alat units)
         1           Fe  tau(   1) = (   0.0000000   0.0000000   0.0000000  )

     number of k points=    47  Methfessel-Paxton smearing, width (Ry)=  0.0200
                       cart. coord. in units 2pi/alat
        k(    1) = (   0.0000000   0.0000000   0.0000000), wk =   0.0010000
        k(    2) = (   0.0866025   0.0866025   0.0000000), wk =   0.0120000
        k(    3) = (   0.1732051   0.1732051   0.0000000), wk =   0.0120000
        k(    4) = (   0.2598076   0.2598076   0.0000000), wk =   0.0120000
        k(    5) = (   0.3464102   0.3464102   0.0000000), wk =   0.0120000
        k(    6) = (  -0.4330127  -0.4330127   0.0000000), wk =   0.0060000
        k(    7) = (   0.1732051   0.0866025   0.0866025), wk =   0.0240000
        k(    8) = (   0.2598076   0.1732051   0.0866025), wk =   0.0480000
        k(    9) = (   0.3464102   0.2598076   0.0866025), wk =   0.0480000
        k(   10) = (   0.4330127   0.3464102   0.0866025), wk =   0.0480000
        k(   11) = (   0.3464102   0.1732051   0.1732051), wk =   0.0240000
        k(   12) = (   0.4330127   0.2598076   0.1732051), wk =   0.0480000
        k(   13) = (   0.5196152   0.3464102   0.1732051), wk =   0.0240000
        k(   14) = (   0.5196152   0.2598076   0.2598076), wk =   0.0240000
        k(   15) = (   0.1732051   0.1732051   0.1732051), wk =   0.0080000
        k(   16) = (   0.2598076   0.2598076   0.1732051), wk =   0.0240000
        k(   17) = (   0.3464102   0.3464102   0.1732051), wk =   0.0240000
        k(   18) = (   0.4330127   0.4330127   0.1732051), wk =   0.0120000
        k(   19) = (   0.0000000   0.0000000   0.1732051), wk =   0.0060000
        k(   20) = (   0.3464102   0.2598076   0.2598076), wk =   0.0240000
        k(   21) = (   0.4330127   0.3464102   0.2598076), wk =   0.0480000
        k(   22) = (   0.0000000  -0.0866025   0.2598076), wk =   0.0240000
        k(   23) = (   0.5196152   0.3464102   0.3464102), wk =   0.0080000
        k(   24) = (   0.0000000  -0.1732051   0.3464102), wk =   0.0240000
        k(   25) = (   0.0866025  -0.0866025   0.3464102), wk =   0.0240000
        k(   26) = (   0.0000000  -0.2598076   0.4330127), wk =   0.0240000
        k(   27) = (   0.0866025  -0.1732051   0.4330127), wk =   0.0480000
        k(   28) = (  -0.8660254  -0.3464102  -0.3464102), wk =   0.0120000
        k(   29) = (  -0.7794229  -0.2598076  -0.3464102), wk =   0.0480000
        k(   30) = (  -0.6928203  -0.1732051  -0.3464102), wk =   0.0240000
        k(   31) = (  -0.6928203  -0.2598076  -0.2598076), wk =   0.0240000
        k(   32) = (   0.3464102   0.3464102   0.3464102), wk =   0.0080000
        k(   33) = (   0.4330127   0.4330127   0.3464102), wk =   0.0120000
        k(   34) = (   0.0000000   0.0000000   0.3464102), wk =   0.0060000
        k(   35) = (   0.0000000  -0.0866025   0.4330127), wk =   0.0240000
        k(   36) = (   0.0000000  -0.1732051   0.5196152), wk =   0.0240000
        k(   37) = (   0.0866025  -0.0866025   0.5196152), wk =   0.0240000
        k(   38) = (  -0.8660254  -0.2598076  -0.2598076), wk =   0.0120000
        k(   39) = (  -0.7794229  -0.1732051  -0.2598076), wk =   0.0480000
        k(   40) = (  -0.6928203  -0.1732051  -0.1732051), wk =   0.0080000
        k(   41) = (   0.0000000   0.0000000   0.5196152), wk =   0.0060000
        k(   42) = (   0.0000000  -0.0866025   0.6062178), wk =   0.0240000
        k(   43) = (  -0.8660254  -0.1732051  -0.1732051), wk =   0.0120000
        k(   44) = (  -0.7794229  -0.0866025  -0.1732051), wk =   0.0240000
        k(   45) = (   0.0000000   0.0000000   0.6928203), wk =   0.0060000
        k(   46) = (  -0.8660254  -0.0866025  -0.0866025), wk =   0.0120000
        k(   47) = (  -0.8660254  -0.8660254  -0.8660254), wk =   0.0010000

     Dense  grid:     4729 G-vectors     FFT dimensions: (  24,  24,  24)

     Smooth grid:     1601 G-vectors     FFT dimensions: (  15,  15,  15)

     Estimated max dynamical RAM per process >       7.97 MB

     Estimated total dynamical RAM >      31.86 MB
     Generating pointlists ...
     new r_m :   0.4125 (alat units)  1.8933 (a.u.) for type    1

     Initial potential from superposition of free atoms

     starting charge       7.9994, renormalised to       8.0000
     Starting wfcs are    6 randomized atomic wfcs +    2 random wfcs

     total cpu time spent up to now is        3.7 secs

     Self-consistent Calculation

     iteration #  1     ecut=    30.00 Ry     beta= 0.50
     Davidson diagonalization with overlap
     ethr =  1.00E-02,  avg # of iterations =  4.6

     total cpu time spent up to now is       12.1 secs

     total energy              =     -55.67109339 Ry
     estimated scf accuracy    <       0.32750126 Ry

     total magnetization       =     2.98 Bohr mag/cell
     absolute magnetization    =     2.98 Bohr mag/cell

     iteration #  2     ecut=    30.00 Ry     beta= 0.50
     Davidson diagonalization with overlap
     ethr =  4.09E-03,  avg # of iterations =  1.7

     total cpu time spent up to now is       18.7 secs

     total energy              =     -55.76999557 Ry
     estimated scf accuracy    <       0.04666938 Ry

     total magnetization       =     2.81 Bohr mag/cell
     absolute magnetization    =     2.81 Bohr mag/cell

     iteration #  3     ecut=    30.00 Ry     beta= 0.50
     Davidson diagonalization with overlap
     ethr =  5.83E-04,  avg # of iterations =  1.4

     total cpu time spent up to now is       25.7 secs

     total energy              =     -55.79300889 Ry
     estimated scf accuracy    <       0.00738772 Ry

     total magnetization       =     2.72 Bohr mag/cell
     absolute magnetization    =     2.75 Bohr mag/cell

     iteration #  4     ecut=    30.00 Ry     beta= 0.50
     Davidson diagonalization with overlap
     ethr =  9.23E-05,  avg # of iterations =  2.0

     total cpu time spent up to now is       30.7 secs

     total energy              =     -55.79946487 Ry
     estimated scf accuracy    <       0.00118222 Ry

     total magnetization       =     2.35 Bohr mag/cell
     absolute magnetization    =     2.49 Bohr mag/cell

     iteration #  5     ecut=    30.00 Ry     beta= 0.50
     Davidson diagonalization with overlap
     ethr =  1.48E-05,  avg # of iterations =  4.3

     total cpu time spent up to now is       38.4 secs

     total energy              =     -55.79995025 Ry
     estimated scf accuracy    <       0.00087644 Ry

     total magnetization       =     2.29 Bohr mag/cell
     absolute magnetization    =     2.45 Bohr mag/cell

     iteration #  6     ecut=    30.00 Ry     beta= 0.50
     Davidson diagonalization with overlap
     ethr =  1.10E-05,  avg # of iterations =  1.7

     total cpu time spent up to now is       44.5 secs

     total energy              =     -55.80072320 Ry
     estimated scf accuracy    <       0.00056179 Ry

     total magnetization       =     2.22 Bohr mag/cell
     absolute magnetization    =     2.35 Bohr mag/cell

     iteration #  7     ecut=    30.00 Ry     beta= 0.50
     Davidson diagonalization with overlap
     ethr =  7.02E-06,  avg # of iterations =  1.1

     total cpu time spent up to now is       49.6 secs

     total energy              =     -55.80098256 Ry
     estimated scf accuracy    <       0.00013419 Ry

     total magnetization       =     2.15 Bohr mag/cell
     absolute magnetization    =     2.30 Bohr mag/cell

     iteration #  8     ecut=    30.00 Ry     beta= 0.50
     Davidson diagonalization with overlap
     ethr =  1.68E-06,  avg # of iterations =  2.6

     total cpu time spent up to now is       55.7 secs

     total energy              =     -55.80106630 Ry
     estimated scf accuracy    <       0.00004641 Ry

     total magnetization       =     2.17 Bohr mag/cell
     absolute magnetization    =     2.32 Bohr mag/cell

     iteration #  9     ecut=    30.00 Ry     beta= 0.50
     Davidson diagonalization with overlap
     ethr =  5.80E-07,  avg # of iterations =  1.4

     total cpu time spent up to now is       62.0 secs

     total energy              =     -55.80108368 Ry
     estimated scf accuracy    <       0.00000380 Ry

     total magnetization       =     2.16 Bohr mag/cell
     absolute magnetization    =     2.31 Bohr mag/cell

     iteration # 10     ecut=    30.00 Ry     beta= 0.50
     Davidson diagonalization with overlap
     ethr =  4.75E-08,  avg # of iterations =  4.5

     total cpu time spent up to now is       82.0 secs

     total energy              =     -55.80108850 Ry
     estimated scf accuracy    <       0.00000374 Ry

     total magnetization       =     2.16 Bohr mag/cell
     absolute magnetization    =     2.31 Bohr mag/cell

     iteration # 11     ecut=    30.00 Ry     beta= 0.50
     Davidson diagonalization with overlap
     ethr =  4.68E-08,  avg # of iterations =  1.0

     total cpu time spent up to now is       86.9 secs

     total energy              =     -55.80108993 Ry
     estimated scf accuracy    <       0.00000056 Ry

     total magnetization       =     2.16 Bohr mag/cell
     absolute magnetization    =     2.31 Bohr mag/cell

     iteration # 12     ecut=    30.00 Ry     beta= 0.50
     Davidson diagonalization with overlap
     ethr =  7.02E-09,  avg # of iterations =  2.4

     Magnetic moment per site  (integrated on atomic sphere of radius R)
     atom   1 (R=0.413)  charge=  6.4347  magn=  2.2217

     total cpu time spent up to now is       97.1 secs

     End of self-consistent calculation

 ------ SPIN UP ------------


          k = 0.0000 0.0000 0.0000 (   201 PWs)   bands (ev):

     5.5574  11.6534  11.6534  11.6534  12.8995  12.8995  39.1309  39.1310

          k = 0.0866 0.0866 0.0000 (   207 PWs)   bands (ev):

     5.9806  11.5384  11.6388  11.8819  12.7955  12.9093  36.9205  38.5420

          k = 0.1732 0.1732 0.0000 (   201 PWs)   bands (ev):

     7.1407  11.2456  11.5388  12.5131  12.7001  12.9441  32.6267  36.6504

          k = 0.2598 0.2598 0.0000 (   198 PWs)   bands (ev):

     8.4845  10.8989  11.7533  12.8245  13.0049  13.3679  27.9830  34.5937

          k = 0.3464 0.3464 0.0000 (   200 PWs)   bands (ev):

     8.9658  10.6296  12.8383  13.0700  13.4730  14.1382  23.8373  33.1674

          k =-0.4330-0.4330 0.0000 (   194 PWs)   bands (ev):

     8.9720  10.5295  12.9799  13.0989  14.4564  14.7652  21.7358  32.6637

          k = 0.1732 0.0866 0.0866 (   206 PWs)   bands (ev):

     6.7804  11.3991  11.4644  12.3635  12.6557  12.9676  34.5514  35.8095

          k = 0.2598 0.1732 0.0866 (   205 PWs)   bands (ev):

     8.1235  11.0780  11.3115  12.6462  13.0522  13.2387  30.4428  33.4793

          k = 0.3464 0.2598 0.0866 (   203 PWs)   bands (ev):

     9.0898  10.7674  11.7940  12.8484  13.1975  14.3752  25.9653  31.9167

          k = 0.4330 0.3464 0.0866 (   200 PWs)   bands (ev):

     9.1870  10.5935  12.5257  12.9580  13.6466  15.8243  22.4289  31.0499

          k = 0.3464 0.1732 0.1732 (   202 PWs)   bands (ev):

     9.2982  10.8043  11.1681  12.6944  13.2025  14.5412  28.3340  29.2694

          k = 0.4330 0.2598 0.1732 (   204 PWs)   bands (ev):

     9.7386  10.6449  11.4903  12.8849  13.3630  16.4654  24.4403  27.6648

          k = 0.5196 0.3464 0.1732 (   203 PWs)   bands (ev):

     9.7055  10.6307  11.7066  12.9733  13.5037  18.1513  21.9279  27.2077

          k = 0.5196 0.2598 0.2598 (   211 PWs)   bands (ev):

    10.1654  10.6449  11.1351  13.0809  13.3388  19.2729  22.8114  24.4505

          k = 0.1732 0.1732 0.1732 (   210 PWs)   bands (ev):

     7.8638  11.0998  11.0998  12.8595  12.8595  13.2488  32.5770  32.5770

          k = 0.2598 0.2598 0.1732 (   199 PWs)   bands (ev):

     9.1858  10.7701  10.9963  12.8896  13.0045  14.4822  28.4108  30.9450

          k = 0.3464 0.3464 0.1732 (   202 PWs)   bands (ev):

     9.5688  10.5509  11.8528  12.9951  13.0853  16.1348  24.2308  29.8669

          k = 0.4330 0.4330 0.1732 (   206 PWs)   bands (ev):

     9.5188  10.4748  12.4419  13.0436  13.1113  17.5220  21.8784  29.4885

          k = 0.0000 0.0000 0.1732 (   209 PWs)   bands (ev):

     6.3908  11.6625  11.6625  11.8824  12.5210  13.0482  36.0422  38.1170

          k = 0.3464 0.2598 0.2598 (   204 PWs)   bands (ev):

    10.0722  10.6039  10.9349  12.9801  13.1043  16.2755  26.5785  27.4186

          k = 0.4330 0.3464 0.2598 (   208 PWs)   bands (ev):

    10.0728  10.5360  11.4736  13.0704  13.1589  18.6129  23.0586  26.2887

          k = 0.0000-0.0866 0.2598 (   208 PWs)   bands (ev):

     7.5068  11.4565  11.5725  12.3035  12.4556  13.1945  32.8316  35.8492

          k = 0.5196 0.3464 0.3464 (   204 PWs)   bands (ev):

    10.2236  10.9454  10.9454  13.1455  13.1455  21.5108  21.5109  23.9638

          k = 0.0000-0.1732 0.3464 (   203 PWs)   bands (ev):

     8.7832  11.1393  11.4080  12.5888  13.3183  13.4910  28.2716  34.0150

          k = 0.0866-0.0866 0.3464 (   204 PWs)   bands (ev):

     8.6816  11.1654  11.5112  12.2546  13.0631  13.5898  30.6360  31.7178

          k = 0.0000-0.2598 0.4330 (   206 PWs)   bands (ev):

     9.2185  10.8889  11.7845  12.8067  14.1032  14.7548  24.0505  32.8154

          k = 0.0866-0.1732 0.4330 (   207 PWs)   bands (ev):

     9.5331  10.8428  11.4192  12.5826  13.5548  14.9508  26.4907  29.7195

          k =-0.8660-0.3464-0.3464 (   210 PWs)   bands (ev):

     9.2038  10.7949  12.0383  12.7901  14.4288  16.1279  21.7943  32.3913

          k =-0.7794-0.2598-0.3464 (   209 PWs)   bands (ev):

     9.5857  10.9601  11.3352  12.7411  14.0320  17.1018  22.7130  28.8153

          k =-0.6928-0.1732-0.3464 (   214 PWs)   bands (ev):

    10.1304  10.4174  11.2787  12.8740  13.6595  17.4218  24.7937  25.7942

          k =-0.6928-0.2598-0.2598 (   208 PWs)   bands (ev):

    10.1356  10.7410  10.8647  13.1012  13.6927  19.7838  22.1020  25.0231

          k = 0.3464 0.3464 0.3464 (   204 PWs)   bands (ev):

    10.5379  10.5379  10.9264  13.1051  13.1051  18.6324  25.4798  25.4798

          k = 0.4330 0.4330 0.3464 (   210 PWs)   bands (ev):

    10.5303  10.5337  11.1004  13.1271  13.1320  21.0556  22.6249  25.1060

          k = 0.0000 0.0000 0.3464 (   205 PWs)   bands (ev):

     8.4522  11.5268  11.8611  11.8611  12.4947  13.5738  32.9279  34.0201

          k = 0.0000-0.0866 0.4330 (   207 PWs)   bands (ev):

     9.4216  10.8798  11.7925  12.2821  13.2097  14.3901  29.1070  31.8848

          k = 0.0000-0.1732 0.5196 (   215 PWs)   bands (ev):

     9.6971  10.6759  11.6175  12.5421  14.0130  16.3647  24.7267  30.3329

          k = 0.0866-0.0866 0.5196 (   209 PWs)   bands (ev):

     9.8822  10.3260  11.8948  12.6279  13.6575  16.1942  27.2663  27.8498

          k =-0.8660-0.2598-0.2598 (   208 PWs)   bands (ev):

     9.6175  10.7532  11.5466  12.5704  14.3574  18.3064  22.0379  29.7449

          k =-0.7794-0.1732-0.2598 (   210 PWs)   bands (ev):

     9.8406  10.2279  11.7214  12.9649  14.0518  18.9312  23.4301  26.6388

          k =-0.6928-0.1732-0.1732 (   209 PWs)   bands (ev):

     9.9816   9.9816  11.6076  13.6664  13.6664  21.9769  21.9770  24.0381

          k = 0.0000 0.0000 0.5196 (   205 PWs)   bands (ev):

     9.7481  10.3129  12.5151  12.5151  13.2738  15.7979  29.4962  29.4962

          k = 0.0000-0.0866 0.6062 (   214 PWs)   bands (ev):

     9.7007   9.8590  12.6452  12.9017  13.9105  18.1684  25.7746  27.7767

          k =-0.8660-0.1732-0.1732 (   210 PWs)   bands (ev):

     9.5551   9.7878  12.6236  13.0254  14.2699  20.6987  22.6359  27.1229

          k =-0.7794-0.0866-0.1732 (   218 PWs)   bands (ev):

     9.5139   9.5412  12.7504  13.5894  14.0644  20.9791  24.3707  24.9807

          k = 0.0000 0.0000 0.6928 (   212 PWs)   bands (ev):

     9.3547   9.3580  13.5538  13.5538  13.9216  20.4683  25.8961  25.8961

          k =-0.8660-0.0866-0.0866 (   216 PWs)   bands (ev):

     9.1779   9.1989  13.6900  13.8210  14.1995  23.0600  23.6680  25.1648

          k =-0.8660-0.8660-0.8660 (   236 PWs)   bands (ev):

     9.0006   9.0006  14.1725  14.1725  14.1725  24.3915  24.3915  24.3915

 ------ SPIN DOWN ----------


          k = 0.0000 0.0000 0.0000 (   201 PWs)   bands (ev):

     5.6165  13.7340  13.7340  13.7340  15.8949  15.8949  38.8269  38.8269

          k = 0.0866 0.0866 0.0000 (   207 PWs)   bands (ev):

     6.0428  13.5928  13.7007  13.9845  15.7487  15.9061  36.9574  38.3629

          k = 0.1732 0.1732 0.0000 (   201 PWs)   bands (ev):

     7.2394  13.2366  13.5259  14.6815  15.5449  15.9504  33.0812  36.6491

          k = 0.2598 0.2598 0.0000 (   198 PWs)   bands (ev):

     8.8668  12.8198  13.3512  15.5693  15.6391  16.0350  28.7463  34.6061

          k = 0.3464 0.3464 0.0000 (   200 PWs)   bands (ev):

    10.0496  12.4995  13.9444  15.7019  16.1307  16.5197  24.9412  33.1381

          k =-0.4330-0.4330 0.0000 (   194 PWs)   bands (ev):

    10.3200  12.3811  14.7611  15.7449  16.1745  16.8900  23.1587  32.6120

          k = 0.1732 0.0866 0.0866 (   206 PWs)   bands (ev):

     6.8581  13.4102  13.4929  14.5006  15.5346  15.9692  34.8199  36.0358

          k = 0.2598 0.1732 0.0866 (   205 PWs)   bands (ev):

     8.3124  13.0241  13.2150  15.3830  15.4367  16.0817  31.0386  33.8077

          k = 0.3464 0.2598 0.0866 (   203 PWs)   bands (ev):

     9.8399  12.6452  13.2170  15.5497  16.1333  16.5349  26.8515  32.2401

          k = 0.4330 0.3464 0.0866 (   200 PWs)   bands (ev):

    10.5032  12.4330  13.9031  15.6931  16.2796  17.4879  23.6923  31.3488

          k = 0.3464 0.1732 0.1732 (   202 PWs)   bands (ev):

     9.7954  12.6950  12.9014  15.4093  16.1133  16.6821  29.0555  29.8369

          k = 0.4330 0.2598 0.1732 (   204 PWs)   bands (ev):

    10.9335  12.4395  12.9566  15.5880  16.1907  18.1925  25.3926  28.2812

          k = 0.5196 0.3464 0.1732 (   203 PWs)   bands (ev):

    11.1666  12.4121  13.1880  15.7046  16.2212  19.4250  23.1898  27.8138

          k = 0.5196 0.2598 0.2598 (   211 PWs)   bands (ev):

    11.7098  12.3144  12.6955  15.7905  16.0847  20.5627  23.8329  25.2505

          k = 0.1732 0.1732 0.1732 (   210 PWs)   bands (ev):

     7.9886  13.0497  13.0497  15.4103  15.7929  15.7929  32.9753  32.9753

          k = 0.2598 0.2598 0.1732 (   199 PWs)   bands (ev):

     9.5612  12.6290  12.7495  15.7603  16.0070  16.5765  29.0882  31.3737

          k = 0.3464 0.3464 0.1732 (   202 PWs)   bands (ev):

    10.7056  12.3445  13.0446  15.8411  16.1435  17.8922  25.2068  30.2801

          k = 0.4330 0.4330 0.1732 (   206 PWs)   bands (ev):

    10.9115  12.2451  13.5695  15.8885  16.1912  18.8170  23.1800  29.8895

          k = 0.0000 0.0000 0.1732 (   209 PWs)   bands (ev):

     6.4587  13.7113  13.7113  13.9887  15.3900  16.0777  36.0977  38.2180

          k = 0.3464 0.2598 0.2598 (   204 PWs)   bands (ev):

    10.9520  12.3389  12.4603  15.8846  16.1231  18.0864  27.3332  28.0518

          k = 0.4330 0.3464 0.2598 (   208 PWs)   bands (ev):

    11.5043  12.2073  12.7732  15.9833  16.1832  19.9390  24.0711  26.9492

          k = 0.0000-0.0866 0.2598 (   208 PWs)   bands (ev):

     7.6227  13.4582  13.6056  14.6163  15.0003  16.2180  33.2809  36.0483

          k = 0.5196 0.3464 0.3464 (   204 PWs)   bands (ev):

    11.8132  12.4165  12.4165  16.1133  16.1133  22.5396  22.5397  24.8085

          k = 0.0000-0.1732 0.3464 (   203 PWs)   bands (ev):

     9.2003  13.0774  13.2848  15.0954  15.5811  16.3669  29.0241  34.1985

          k = 0.0866-0.0866 0.3464 (   204 PWs)   bands (ev):

     8.9678  13.2514  13.4312  14.7441  15.3159  16.4410  31.2728  32.2236

          k = 0.0000-0.2598 0.4330 (   206 PWs)   bands (ev):

    10.3590  12.7793  13.4046  15.3809  16.4790  16.8195  25.1147  32.9756

          k = 0.0866-0.1732 0.4330 (   207 PWs)   bands (ev):

    10.3835  12.7814  13.2518  15.0164  16.0744  17.0988  27.3367  30.2950

          k =-0.8660-0.3464-0.3464 (   210 PWs)   bands (ev):

    10.6221  12.6681  13.7428  15.4289  16.8587  17.4644  23.1712  32.5393

          k =-0.7794-0.2598-0.3464 (   209 PWs)   bands (ev):

    11.0416  12.8024  13.0802  15.2554  16.4771  18.5637  23.8786  29.3806

          k =-0.6928-0.1732-0.3464 (   214 PWs)   bands (ev):

    11.4483  12.3144  13.1117  15.2986  16.1686  18.9891  25.7535  26.4949

          k =-0.6928-0.2598-0.2598 (   208 PWs)   bands (ev):

    11.8101  12.4774  12.6807  15.5570  16.1538  20.9630  23.2461  25.7805

          k = 0.3464 0.3464 0.3464 (   204 PWs)   bands (ev):

    11.9964  12.1648  12.1648  16.1432  16.1432  20.0288  26.2406  26.2407

          k = 0.4330 0.4330 0.3464 (   210 PWs)   bands (ev):

    12.0051  12.1168  12.4793  16.1678  16.2195  22.0780  23.6157  25.8663

          k = 0.0000 0.0000 0.3464 (   205 PWs)   bands (ev):

     8.6731  13.8644  13.8644  14.0870  14.6729  16.4915  33.3944  34.5611

          k = 0.0000-0.0866 0.4330 (   207 PWs)   bands (ev):

    10.0358  13.1124  13.7774  14.4381  15.4597  16.8713  29.8229  32.4509

          k = 0.0000-0.1732 0.5196 (   215 PWs)   bands (ev):

    11.0419  12.5822  13.5726  14.8433  16.3746  18.0300  25.6684  30.8543

          k = 0.0866-0.0866 0.5196 (   209 PWs)   bands (ev):

    11.0537  12.4464  13.8887  14.7896  16.0063  17.9567  28.0847  28.4538

          k =-0.8660-0.2598-0.2598 (   208 PWs)   bands (ev):

    11.2782  12.5472  13.4893  14.8949  16.7779  19.4544  23.2554  30.2304

          k =-0.7794-0.1732-0.2598 (   210 PWs)   bands (ev):

    11.5897  12.0892  13.6586  15.2016  16.4311  20.1434  24.3900  27.2816

          k =-0.6928-0.1732-0.1732 (   209 PWs)   bands (ev):

    11.8711  11.8711  13.4468  15.9869  15.9869  22.9656  22.9656  24.7810

          k = 0.0000 0.0000 0.5196 (   205 PWs)   bands (ev):

    10.8774  12.5474  14.5484  14.5484  15.5495  17.6506  30.0411  30.0411

          k = 0.0000-0.0866 0.6062 (   214 PWs)   bands (ev):

    11.3407  11.9100  14.7148  15.0100  16.2589  19.3858  26.4744  28.2470

          k =-0.8660-0.1732-0.1732 (   210 PWs)   bands (ev):

    11.4798  11.6596  14.6969  15.1450  16.6789  21.5749  23.5365  27.5411

          k =-0.7794-0.0866-0.1732 (   218 PWs)   bands (ev):

    11.4010  11.4973  14.8002  15.8274  16.4268  21.8312  25.0518  25.5065

          k = 0.0000 0.0000 0.6928 (   212 PWs)   bands (ev):

    11.1900  11.3744  15.7629  15.7629  16.2834  21.2350  26.2500  26.2500

          k =-0.8660-0.0866-0.0866 (   216 PWs)   bands (ev):

    11.1231  11.1344  15.9579  16.0954  16.5994  23.5513  24.1168  25.4349

          k =-0.8660-0.8660-0.8660 (   236 PWs)   bands (ev):

    10.9432  10.9432  16.5688  16.5688  16.5688  24.5501  24.5502  24.5502

     the Fermi energy is    14.0726 ev

!    total energy              =     -55.80109032 Ry
     estimated scf accuracy    <       0.00000003 Ry
     smearing contrib. (-TS)   =       0.00007954 Ry
     internal energy E=F+TS    =     -55.80116986 Ry

     The total energy is F=E-TS. E is the sum of the following terms:
     one-electron contribution =       8.27581246 Ry
     hartree contribution      =       6.32626101 Ry
     xc contribution           =     -26.45778597 Ry
     ewald contribution        =     -43.94545736 Ry

     total magnetization       =     2.15 Bohr mag/cell
     absolute magnetization    =     2.31 Bohr mag/cell

     convergence has been achieved in  12 iterations

     Forces acting on atoms (cartesian axes, Ry/au):

     atom    1 type  1   force =     0.00000000    0.00000000    0.00000000
     The non-local contrib.  to forces
     atom    1 type  1   force =     0.00000000    0.00000000    0.00000000
     The ionic contribution  to forces
     atom    1 type  1   force =    -0.00000000   -0.00000000   -0.00000000
     The local contribution  to forces
     atom    1 type  1   force =    -0.00000000   -0.00000000   -0.00000000
     The core correction contribution to forces
     atom    1 type  1   force =    -0.00000000   -0.00000000   -0.00000000
     The Hubbard contrib.    to forces
     atom    1 type  1   force =     0.00000000    0.00000000    0.00000000
     The SCF correction term to forces
     atom    1 type  1   force =    -0.00000000    0.00000000   -0.00000000

     Total force =     0.000000     Total SCF correction =     0.000000


     Computing stress (Cartesian axis) and pressure

          total   stress  (Ry/bohr**3)                   (kbar)     P=       62.48
   0.00042474  -0.00000000  -0.00000000           62.48       -0.00       -0.00
  -0.00000000   0.00042474  -0.00000000           -0.00       62.48       -0.00
  -0.00000000  -0.00000000   0.00042474           -0.00       -0.00       62.48


     BFGS Geometry Optimization
     Energy error            =      0.0E+00 Ry
     Gradient error          =      0.0E+00 Ry/Bohr
     Cell gradient error     =      6.2E+01 kbar

     number of scf cycles    =   1
     number of bfgs steps    =   0

     enthalpy           new  =     -55.8010903213 Ry

     new trust radius        =       0.0183229970 bohr
     new conv_thr            =       0.0000001000 Ry

     new unit-cell volume =     76.83509 a.u.^3 (    11.38579 Ang^3 )
     density =      8.14461 g/cm^3

CELL_PARAMETERS (angstrom)
  -1.417210396   1.417210396   1.417210396
   1.417210396  -1.417210396   1.417210396
   1.417210396   1.417210396  -1.417210396

ATOMIC_POSITIONS (angstrom)
Fe            0.0000000000        0.0000000000        0.0000000000



     Writing config-only to output data dir /home/gridsan/epan1/labutil/lab3_samples/problem1/Lab3/Fe_bcc_a_2.8046394196999995_ecut_30_nk_10/pwscf.save/
     NEW-OLD atomic charge density approx. for the potential
     extrapolated charge    8.24951, renormalised to    8.00000
     Generating pointlists ...

     total cpu time spent up to now is      100.3 secs

     Self-consistent Calculation

     iteration #  1     ecut=    30.00 Ry     beta= 0.50
     Davidson diagonalization with overlap
     ethr =  1.00E-06,  avg # of iterations =  5.0

     total cpu time spent up to now is      114.7 secs

     total energy              =     -55.75854351 Ry
     estimated scf accuracy    <       0.04435197 Ry

     total magnetization       =     2.13 Bohr mag/cell
     absolute magnetization    =     2.26 Bohr mag/cell

     iteration #  2     ecut=    30.00 Ry     beta= 0.50
     Davidson diagonalization with overlap
     ethr =  5.54E-04,  avg # of iterations =  2.4

     total cpu time spent up to now is      121.0 secs

     total energy              =     -55.79886019 Ry
     estimated scf accuracy    <       0.10943828 Ry

     total magnetization       =     2.34 Bohr mag/cell
     absolute magnetization    =     2.46 Bohr mag/cell

     iteration #  3     ecut=    30.00 Ry     beta= 0.50
     Davidson diagonalization with overlap
     ethr =  5.54E-04,  avg # of iterations =  1.1

     total cpu time spent up to now is      129.3 secs

     total energy              =     -55.79391849 Ry
     estimated scf accuracy    <       0.01827889 Ry

     total magnetization       =     2.28 Bohr mag/cell
     absolute magnetization    =     2.40 Bohr mag/cell

     iteration #  4     ecut=    30.00 Ry     beta= 0.50
     Davidson diagonalization with overlap
     ethr =  2.28E-04,  avg # of iterations =  2.1

     total cpu time spent up to now is      139.1 secs

     total energy              =     -55.80201922 Ry
     estimated scf accuracy    <       0.01114683 Ry

     total magnetization       =     2.16 Bohr mag/cell
     absolute magnetization    =     2.32 Bohr mag/cell

     iteration #  5     ecut=    30.00 Ry     beta= 0.50
     Davidson diagonalization with overlap
     ethr =  1.39E-04,  avg # of iterations =  1.0

     total cpu time spent up to now is      145.4 secs

     total energy              =     -55.80068602 Ry
     estimated scf accuracy    <       0.00347722 Ry

     total magnetization       =     2.17 Bohr mag/cell
     absolute magnetization    =     2.33 Bohr mag/cell

     iteration #  6     ecut=    30.00 Ry     beta= 0.50
     Davidson diagonalization with overlap
     ethr =  4.35E-05,  avg # of iterations =  1.4

     total cpu time spent up to now is      154.6 secs

     total energy              =     -55.80145900 Ry
     estimated scf accuracy    <       0.00023253 Ry

     total magnetization       =     2.21 Bohr mag/cell
     absolute magnetization    =     2.36 Bohr mag/cell

     iteration #  7     ecut=    30.00 Ry     beta= 0.50
     Davidson diagonalization with overlap
     ethr =  2.91E-06,  avg # of iterations =  2.0

     total cpu time spent up to now is      157.8 secs

     total energy              =     -55.80148841 Ry
     estimated scf accuracy    <       0.00026730 Ry

     total magnetization       =     2.19 Bohr mag/cell
     absolute magnetization    =     2.35 Bohr mag/cell

     iteration #  8     ecut=    30.00 Ry     beta= 0.50
     Davidson diagonalization with overlap
     ethr =  2.91E-06,  avg # of iterations =  1.9

     total cpu time spent up to now is      169.4 secs

     total energy              =     -55.80157911 Ry
     estimated scf accuracy    <       0.00007951 Ry

     total magnetization       =     2.20 Bohr mag/cell
     absolute magnetization    =     2.36 Bohr mag/cell

     iteration #  9     ecut=    30.00 Ry     beta= 0.50
     Davidson diagonalization with overlap
     ethr =  9.94E-07,  avg # of iterations =  1.0

     total cpu time spent up to now is      173.3 secs

     total energy              =     -55.80157808 Ry
     estimated scf accuracy    <       0.00001865 Ry

     total magnetization       =     2.20 Bohr mag/cell
     absolute magnetization    =     2.36 Bohr mag/cell

     iteration # 10     ecut=    30.00 Ry     beta= 0.50
     Davidson diagonalization with overlap
     ethr =  2.33E-07,  avg # of iterations =  1.0

     total cpu time spent up to now is      181.5 secs

     total energy              =     -55.80157868 Ry
     estimated scf accuracy    <       0.00000273 Ry

     total magnetization       =     2.20 Bohr mag/cell
     absolute magnetization    =     2.36 Bohr mag/cell

     iteration # 11     ecut=    30.00 Ry     beta= 0.50
     Davidson diagonalization with overlap
     ethr =  3.42E-08,  avg # of iterations =  1.5

     total cpu time spent up to now is      185.9 secs

     total energy              =     -55.80157894 Ry
     estimated scf accuracy    <       0.00000038 Ry

     total magnetization       =     2.20 Bohr mag/cell
     absolute magnetization    =     2.36 Bohr mag/cell

     iteration # 12     ecut=    30.00 Ry     beta= 0.50
     Davidson diagonalization with overlap
     ethr =  4.73E-09,  avg # of iterations =  2.9

     Magnetic moment per site  (integrated on atomic sphere of radius R)
     atom   1 (R=0.413)  charge=  6.3977  magn=  2.2704

     total cpu time spent up to now is      194.1 secs

     End of self-consistent calculation

 ------ SPIN UP ------------


          k = 0.0000 0.0000 0.0000 (   201 PWs)   bands (ev):

     5.1680  11.1433  11.1433  11.1433  12.3256  12.3256  38.2635  38.2636

          k = 0.0857 0.0857 0.0000 (   207 PWs)   bands (ev):

     5.5809  11.0340  11.1298  11.3614  12.2273  12.3348  36.0116  37.6540

          k = 0.1714 0.1714 0.0000 (   201 PWs)   bands (ev):

     6.7168  10.7559  11.0356  11.9637  12.1370  12.3675  31.6923  35.7472

          k = 0.2571 0.2571 0.0000 (   198 PWs)   bands (ev):

     8.0525  10.4260  11.2375  12.2555  12.4244  12.7788  27.0720  33.7170

          k = 0.3428 0.3428 0.0000 (   200 PWs)   bands (ev):

     8.5558  10.1693  12.2691  12.4852  12.9062  13.5123  22.9627  32.3205

          k =-0.4285-0.4285 0.0000 (   194 PWs)   bands (ev):

     8.5708  10.0738  12.4012  12.5121  13.8149  14.1939  20.8700  31.8286

          k = 0.1714 0.0857 0.0857 (   206 PWs)   bands (ev):

     6.3628  10.9020  10.9646  11.8209  12.0952  12.3896  33.6382  34.8533

          k = 0.2571 0.1714 0.0857 (   205 PWs)   bands (ev):

     7.6844  10.5968  10.8187  12.0864  12.4699  12.6554  29.5205  32.5386

          k = 0.3428 0.2571 0.0857 (   203 PWs)   bands (ev):

     8.6615  10.3008  11.2769  12.2789  12.6080  13.7471  25.0753  31.0020

          k = 0.4285 0.3428 0.0857 (   200 PWs)   bands (ev):

     8.7762  10.1349  11.9769  12.3812  13.0474  15.1756  21.5663  30.1514

          k = 0.3428 0.1714 0.1714 (   202 PWs)   bands (ev):

     8.8496  10.3366  10.6800  12.1325  12.6118  13.9057  27.4511  28.3207

          k = 0.4285 0.2571 0.1714 (   204 PWs)   bands (ev):

     9.3034  10.1836  10.9879  12.3134  12.7670  15.7789  23.5775  26.7590

          k = 0.5142 0.3428 0.1714 (   203 PWs)   bands (ev):

     9.2778  10.1700  11.1963  12.3965  12.9044  17.4506  21.0788  26.3128

          k = 0.5142 0.2571 0.2571 (   211 PWs)   bands (ev):

     9.7208  10.1821  10.6496  12.5001  12.7453  18.5308  22.0076  23.5488

          k = 0.1714 0.1714 0.1714 (   210 PWs)   bands (ev):

     7.4248  10.6178  10.6178  12.2875  12.2875  12.6657  31.6644  31.6644

          k = 0.2571 0.2571 0.1714 (   199 PWs)   bands (ev):

     8.7334  10.3034  10.5165  12.3160  12.4239  13.8484  27.5105  30.0516

          k = 0.3428 0.3428 0.1714 (   202 PWs)   bands (ev):

     9.1385  10.0941  11.3352  12.4159  12.4995  15.4570  23.3644  28.9933

          k = 0.4285 0.4285 0.1714 (   206 PWs)   bands (ev):

     9.0971  10.0213  11.9047  12.4616  12.5238  16.8375  21.0224  28.6230

          k = 0.0000 0.0000 0.1714 (   209 PWs)   bands (ev):

     5.9816  11.1528  11.1528  11.3622  11.9680  12.4658  35.1697  37.1453

          k = 0.3428 0.2571 0.2571 (   204 PWs)   bands (ev):

     9.6182  10.1442  10.4533  12.4015  12.5179  15.5866  25.7220  26.5029

          k = 0.4285 0.3428 0.2571 (   208 PWs)   bands (ev):

     9.6305  10.0786  10.9731  12.4870  12.5700  17.8845  22.2190  25.4035

          k = 0.0000-0.0857 0.2571 (   208 PWs)   bands (ev):

     7.0755  10.9573  11.0682  11.7622  11.9092  12.6038  31.9071  34.9020

          k = 0.5142 0.3428 0.3428 (   204 PWs)   bands (ev):

     9.7784  10.4682  10.4682  12.5580  12.5580  20.7357  20.7357  23.0634

          k = 0.0000-0.1714 0.3428 (   203 PWs)   bands (ev):

     8.3445  10.6555  10.9099  12.0341  12.7317  12.8877  27.3579  33.1138

          k = 0.0857-0.0857 0.3428 (   204 PWs)   bands (ev):

     8.2355  10.6817  11.0094  11.7167  12.4871  12.9822  29.7283  30.7339

          k = 0.0000-0.2571 0.4285 (   206 PWs)   bands (ev):

     8.8009  10.4168  11.2687  12.2394  13.4791  14.1276  23.1765  31.9412

          k = 0.0857-0.1714 0.4285 (   207 PWs)   bands (ev):

     9.0932  10.3724  10.9216  12.0288  12.9532  14.3022  25.5982  28.7838

          k =-0.8569-0.3428-0.3428 (   210 PWs)   bands (ev):

     8.7954  10.3273  11.5118  12.2226  13.7887  15.4945  20.9320  31.5279

          k =-0.7712-0.2571-0.3428 (   209 PWs)   bands (ev):

     9.1627  10.4843  10.8411  12.1780  13.4110  16.4174  21.8569  27.8975

          k =-0.6855-0.1714-0.3428 (   214 PWs)   bands (ev):

     9.6812   9.9669  10.7883  12.3067  13.0539  16.7129  23.9499  24.8845

          k =-0.6855-0.2571-0.2571 (   208 PWs)   bands (ev):

     9.6939  10.2735  10.3926  12.5227  13.0870  19.0427  21.2751  24.1372

          k = 0.3428 0.3428 0.3428 (   204 PWs)   bands (ev):

    10.0802  10.0802  10.4434  12.5184  12.5184  17.8935  24.6420  24.6420

          k = 0.4285 0.4285 0.3428 (   210 PWs)   bands (ev):

    10.0726  10.0737  10.6164  12.5393  12.5434  20.2908  21.7996  24.2749

          k = 0.0000 0.0000 0.3428 (   205 PWs)   bands (ev):

     8.0066  11.0261  11.3436  11.3436  11.9472  12.9639  32.0584  32.9954

          k = 0.0000-0.0857 0.4285 (   207 PWs)   bands (ev):

     8.9736  10.4102  11.2788  11.7448  12.6288  13.7519  28.1829  30.8879

          k = 0.0000-0.1714 0.5142 (   215 PWs)   bands (ev):

     9.2674  10.2114  11.1122  11.9908  13.3935  15.6851  23.8526  29.3674

          k = 0.0857-0.0857 0.5142 (   209 PWs)   bands (ev):

     9.4384   9.8822  11.3764  12.0748  13.0544  15.5117  26.3775  26.9194

          k =-0.8569-0.2571-0.2571 (   208 PWs)   bands (ev):

     9.1980  10.2853  11.0447  12.0170  13.7210  17.6085  21.1855  28.7939

          k =-0.7712-0.1714-0.2571 (   210 PWs)   bands (ev):

     9.4139   9.7838  11.2108  12.3952  13.4302  18.1988  22.5830  25.7442

          k =-0.6855-0.1714-0.1714 (   209 PWs)   bands (ev):

     9.5502   9.5502  11.1017  13.0637  13.0637  21.1886  21.1886  23.1540

          k = 0.0000 0.0000 0.5142 (   205 PWs)   bands (ev):

     9.3083   9.8708  11.9682  11.9682  12.6901  15.1229  28.5480  28.5480

          k = 0.0000-0.0857 0.5998 (   214 PWs)   bands (ev):

     9.2778   9.4349  12.0924  12.3363  13.2961  17.4477  24.8996  26.8712

          k =-0.8569-0.1714-0.1714 (   210 PWs)   bands (ev):

     9.1442   9.3648  12.0720  12.4538  13.6378  19.9469  21.7986  26.2361

          k =-0.7712-0.0857-0.1714 (   218 PWs)   bands (ev):

     9.1062   9.1293  12.1926  12.9914  13.4426  20.2092  23.5401  24.1175

          k = 0.0000 0.0000 0.6855 (   212 PWs)   bands (ev):

     8.9506   8.9583  12.9578  12.9578  13.3066  19.7104  25.0425  25.0425

          k =-0.8569-0.0857-0.0857 (   216 PWs)   bands (ev):

     8.7853   8.8044  13.0871  13.2117  13.5708  22.2690  22.8495  24.3342

          k =-0.8569-0.8569-0.8569 (   236 PWs)   bands (ev):

     8.6160   8.6160  13.5452  13.5452  13.5452  23.5863  23.5863  23.5863

 ------ SPIN DOWN ----------


          k = 0.0000 0.0000 0.0000 (   201 PWs)   bands (ev):

     5.2204  13.2751  13.2751  13.2751  15.3599  15.3599  37.9413  37.9413

          k = 0.0857 0.0857 0.0000 (   207 PWs)   bands (ev):

     5.6361  13.1396  13.2428  13.5155  15.2202  15.3706  36.0415  37.4620

          k = 0.1714 0.1714 0.0000 (   201 PWs)   bands (ev):

     6.8072  12.7976  13.0722  14.1847  15.0239  15.4129  32.1446  35.7361

          k = 0.2571 0.2571 0.0000 (   198 PWs)   bands (ev):

     8.4203  12.3968  12.8860  15.0446  15.1038  15.4934  27.8347  33.7193

          k = 0.3428 0.3428 0.0000 (   200 PWs)   bands (ev):

     9.6442  12.0883  13.4074  15.1695  15.5843  15.9489  24.0738  32.2815

          k =-0.4285-0.4285 0.0000 (   194 PWs)   bands (ev):

     9.9436  11.9743  14.1773  15.2103  15.6258  16.3040  22.3144  31.7676

          k = 0.1714 0.0857 0.0857 (   206 PWs)   bands (ev):

     6.4330  12.9639  13.0432  14.0103  15.0152  15.4305  33.8999  35.0817

          k = 0.2571 0.1714 0.0857 (   205 PWs)   bands (ev):

     7.8630  12.5925  12.7710  14.8591  14.9166  15.5369  30.1139  32.8692

          k = 0.3428 0.2571 0.0857 (   203 PWs)   bands (ev):

     9.4007  12.2274  12.7439  15.0255  15.5845  15.9588  25.9628  31.3296

          k = 0.4285 0.3428 0.0857 (   200 PWs)   bands (ev):

    10.1130  12.0228  13.3737  15.1612  15.7229  16.8697  22.8437  30.4561

          k = 0.3428 0.1714 0.1714 (   202 PWs)   bands (ev):

     9.3354  12.2709  12.4655  14.8923  15.5642  16.0976  28.1684  28.8932

          k = 0.4285 0.2571 0.1714 (   204 PWs)   bands (ev):

    10.5064  12.0205  12.4935  15.0620  15.6380  17.5426  24.5321  27.3784

          k = 0.5142 0.3428 0.1714 (   203 PWs)   bands (ev):

    10.7683  11.9972  12.7009  15.1728  15.6669  18.7376  22.3564  26.9214

          k = 0.5142 0.2571 0.2571 (   211 PWs)   bands (ev):

    11.2985  11.8860  12.2438  15.2555  15.5364  19.8361  23.0320  24.3572

          k = 0.1714 0.1714 0.1714 (   210 PWs)   bands (ev):

     7.5416  12.6166  12.6166  14.8808  15.2615  15.2615  32.0572  32.0572

          k = 0.2571 0.2571 0.1714 (   199 PWs)   bands (ev):

     9.0980  12.2104  12.3187  15.2288  15.4659  15.9960  28.1867  30.4767

          k = 0.3428 0.3428 0.1714 (   202 PWs)   bands (ev):

    10.2818  11.9351  12.5637  15.3046  15.5962  17.2563  24.3449  29.4051

          k = 0.4285 0.4285 0.1714 (   206 PWs)   bands (ev):

    10.5178  11.8387  13.0568  15.3494  15.6418  18.1512  22.3422  29.0235

          k = 0.0000 0.0000 0.1714 (   209 PWs)   bands (ev):

     6.0422  13.2526  13.2526  13.5203  14.8776  15.5341  35.2079  37.2545

          k = 0.3428 0.2571 0.2571 (   204 PWs)   bands (ev):

    10.4905  11.9219  12.0345  15.3477  15.5761  17.4416  26.4760  27.1390

          k = 0.4285 0.3428 0.2571 (   208 PWs)   bands (ev):

    11.0896  11.7935  12.3047  15.4415  15.6335  19.2331  23.2384  26.0668

          k = 0.0000-0.0857 0.2571 (   208 PWs)   bands (ev):

     7.1828  13.0097  13.1499  14.1225  14.5032  15.6665  32.3525  35.0946

          k = 0.5142 0.3428 0.3428 (   204 PWs)   bands (ev):

    11.4094  11.9733  11.9733  15.5663  15.5663  21.7724  21.7724  23.9174

          k = 0.0000-0.1714 0.3428 (   203 PWs)   bands (ev):

     8.7478  12.6436  12.8310  14.5895  15.0484  15.8047  28.1088  33.2900

          k = 0.0857-0.0857 0.3428 (   204 PWs)   bands (ev):

     8.5103  12.8115  12.9803  14.2543  14.7932  15.8744  30.3580  31.2453

          k = 0.0000-0.2571 0.4285 (   206 PWs)   bands (ev):

     9.9463  12.3567  12.9144  14.8607  15.9099  16.2268  24.2462  32.0946

          k = 0.0857-0.1714 0.4285 (   207 PWs)   bands (ev):

     9.9360  12.3522  12.8020  14.5117  15.5233  16.4916  26.4428  29.3612

          k =-0.8569-0.3428-0.3428 (   210 PWs)   bands (ev):

    10.2391  12.2495  13.2323  14.9072  16.2740  16.8409  22.3285  31.6686

          k =-0.7712-0.2571-0.3428 (   209 PWs)   bands (ev):

    10.6403  12.3640  12.6209  14.7401  15.9079  17.8975  23.0319  28.4635

          k =-0.6855-0.1714-0.3428 (   214 PWs)   bands (ev):

    11.0141  11.9001  12.6643  14.7813  15.6128  18.3043  24.9075  25.5908

          k =-0.6855-0.2571-0.2571 (   208 PWs)   bands (ev):

    11.3994  12.0364  12.2530  15.0282  15.5990  20.2270  22.4274  24.9002

          k = 0.3428 0.3428 0.3428 (   204 PWs)   bands (ev):

    11.5338  11.7492  11.7492  15.5955  15.5955  19.3164  25.4052  25.4052

          k = 0.4285 0.4285 0.3428 (   210 PWs)   bands (ev):

    11.5813  11.7010  12.0294  15.6189  15.6688  21.3233  22.7998  25.0386

          k = 0.0000 0.0000 0.3428 (   205 PWs)   bands (ev):

     8.2168  13.3976  13.3976  13.6287  14.1784  15.9224  32.5052  33.5405

          k = 0.0000-0.0857 0.4285 (   207 PWs)   bands (ev):

     9.5768  12.6833  13.3142  13.9518  14.9327  16.2742  28.8941  31.4558

          k = 0.0000-0.1714 0.5142 (   215 PWs)   bands (ev):

    10.6182  12.1542  13.1175  14.3415  15.8101  17.3751  24.7959  29.8893

          k = 0.0857-0.0857 0.5142 (   209 PWs)   bands (ev):

    10.6135  12.0415  13.4195  14.2881  15.4568  17.3027  27.1899  27.5264

          k =-0.8569-0.2571-0.2571 (   208 PWs)   bands (ev):

    10.8868  12.1034  13.0374  14.3906  16.1968  18.7594  22.4172  29.2796

          k =-0.7712-0.1714-0.2571 (   210 PWs)   bands (ev):

    11.1854  11.6795  13.1968  14.6832  15.8635  19.4201  23.5453  26.3878

          k =-0.6855-0.1714-0.1714 (   209 PWs)   bands (ev):

    11.4715  11.4715  12.9873  15.4372  15.4372  22.1765  22.1765  23.9062

          k = 0.0000 0.0000 0.5142 (   205 PWs)   bands (ev):

    10.4375  12.1461  14.0528  14.0528  15.0200  17.0061  29.0934  29.0934

          k = 0.0000-0.0857 0.5998 (   214 PWs)   bands (ev):

    10.9349  11.5263  14.2138  14.4959  15.6994  18.6772  25.5976  27.3406

          k =-0.8569-0.1714-0.1714 (   210 PWs)   bands (ev):

    11.1027  11.2670  14.1971  14.6239  16.1020  20.8215  22.7053  26.6527

          k =-0.7712-0.0857-0.1714 (   218 PWs)   bands (ev):

    11.0199  11.1255  14.2932  15.2828  15.8596  21.0625  24.2174  24.6452

          k = 0.0000 0.0000 0.6855 (   212 PWs)   bands (ev):

    10.8163  11.0125  15.2204  15.2204  15.7234  20.4785  25.3934  25.3934

          k =-0.8569-0.0857-0.0857 (   216 PWs)   bands (ev):

    10.7635  10.7781  15.4091  15.5401  16.0258  22.7566  23.2971  24.6004

          k =-0.8569-0.8569-0.8569 (   236 PWs)   bands (ev):

    10.5951  10.5951  15.9966  15.9966  15.9966  23.7399  23.7399  23.7399

     the Fermi energy is    13.4860 ev

!    total energy              =     -55.80157902 Ry
     estimated scf accuracy    <       0.00000003 Ry
     smearing contrib. (-TS)   =      -0.00003165 Ry
     internal energy E=F+TS    =     -55.80154737 Ry

     The total energy is F=E-TS. E is the sum of the following terms:
     one-electron contribution =       7.62379945 Ry
     hartree contribution      =       6.50027670 Ry
     xc contribution           =     -26.44190281 Ry
     ewald contribution        =     -43.48372071 Ry

     total magnetization       =     2.20 Bohr mag/cell
     absolute magnetization    =     2.36 Bohr mag/cell

     convergence has been achieved in  12 iterations

     Forces acting on atoms (cartesian axes, Ry/au):

     atom    1 type  1   force =     0.00000000    0.00000000    0.00000000
     The non-local contrib.  to forces
     atom    1 type  1   force =     0.00000000    0.00000000    0.00000000
     The ionic contribution  to forces
     atom    1 type  1   force =    -0.00000000   -0.00000000   -0.00000000
     The local contribution  to forces
     atom    1 type  1   force =     0.00000000    0.00000000   -0.00000000
     The core correction contribution to forces
     atom    1 type  1   force =    -0.00000000   -0.00000000    0.00000000
     The Hubbard contrib.    to forces
     atom    1 type  1   force =     0.00000000    0.00000000    0.00000000
     The SCF correction term to forces
     atom    1 type  1   force =     0.00000000    0.00000000    0.00000000

     Total force =     0.000000     Total SCF correction =     0.000000


     Computing stress (Cartesian axis) and pressure

          total   stress  (Ry/bohr**3)                   (kbar)     P=        4.19
   0.00002848  -0.00000000  -0.00000000            4.19       -0.00       -0.00
  -0.00000000   0.00002848  -0.00000000           -0.00        4.19       -0.00
  -0.00000000  -0.00000000   0.00002848           -0.00       -0.00        4.19

     Energy error            =      4.9E-04 Ry
     Gradient error          =      0.0E+00 Ry/Bohr
     Cell gradient error     =      4.2E+00 kbar

     number of scf cycles    =   2
     number of bfgs steps    =   1

     enthalpy           old  =     -55.8010903213 Ry
     enthalpy           new  =     -55.8015790236 Ry

     CASE: enthalpy          _new < enthalpy          _old

     new trust radius        =       0.0013542224 bohr
     new conv_thr            =       0.0000000010 Ry

     new unit-cell volume =     77.01328 a.u.^3 (    11.41219 Ang^3 )
     density =      8.12577 g/cm^3

CELL_PARAMETERS (angstrom)
  -1.418305145   1.418305145   1.418305145
   1.418305145  -1.418305145   1.418305145
   1.418305145   1.418305145  -1.418305145

ATOMIC_POSITIONS (angstrom)
Fe            0.0000000000        0.0000000000        0.0000000000



     Writing config-only to output data dir /home/gridsan/epan1/labutil/lab3_samples/problem1/Lab3/Fe_bcc_a_2.8046394196999995_ecut_30_nk_10/pwscf.save/
     NEW-OLD atomic charge density approx. for the potential
     extrapolated charge    8.01851, renormalised to    8.00000
     Generating pointlists ...

     total cpu time spent up to now is      197.5 secs

     Self-consistent Calculation

     iteration #  1     ecut=    30.00 Ry     beta= 0.50
     Davidson diagonalization with overlap
     ethr =  1.00E-06,  avg # of iterations =  2.1

     total cpu time spent up to now is      205.5 secs

     total energy              =     -55.80127120 Ry
     estimated scf accuracy    <       0.00034262 Ry

     total magnetization       =     2.19 Bohr mag/cell
     absolute magnetization    =     2.35 Bohr mag/cell

     iteration #  2     ecut=    30.00 Ry     beta= 0.50
     Davidson diagonalization with overlap
     ethr =  4.28E-06,  avg # of iterations =  2.2

     total cpu time spent up to now is      212.8 secs

     total energy              =     -55.80154392 Ry
     estimated scf accuracy    <       0.00089513 Ry

     total magnetization       =     2.22 Bohr mag/cell
     absolute magnetization    =     2.38 Bohr mag/cell

     iteration #  3     ecut=    30.00 Ry     beta= 0.50
     Davidson diagonalization with overlap
     ethr =  4.28E-06,  avg # of iterations =  1.1

     total cpu time spent up to now is      218.1 secs

     total energy              =     -55.80153616 Ry
     estimated scf accuracy    <       0.00012122 Ry

     total magnetization       =     2.21 Bohr mag/cell
     absolute magnetization    =     2.37 Bohr mag/cell

     iteration #  4     ecut=    30.00 Ry     beta= 0.50
     Davidson diagonalization with overlap
     ethr =  1.52E-06,  avg # of iterations =  1.9

     total cpu time spent up to now is      225.8 secs

     total energy              =     -55.80158558 Ry
     estimated scf accuracy    <       0.00003389 Ry

     total magnetization       =     2.20 Bohr mag/cell
     absolute magnetization    =     2.36 Bohr mag/cell

     iteration #  5     ecut=    30.00 Ry     beta= 0.50
     Davidson diagonalization with overlap
     ethr =  4.24E-07,  avg # of iterations =  1.0

     total cpu time spent up to now is      230.8 secs

     total energy              =     -55.80157253 Ry
     estimated scf accuracy    <       0.00003468 Ry

     total magnetization       =     2.20 Bohr mag/cell
     absolute magnetization    =     2.36 Bohr mag/cell

     iteration #  6     ecut=    30.00 Ry     beta= 0.50
     Davidson diagonalization with overlap
     ethr =  4.24E-07,  avg # of iterations =  1.1

     total cpu time spent up to now is      235.1 secs

     total energy              =     -55.80157766 Ry
     estimated scf accuracy    <       0.00000015 Ry

     total magnetization       =     2.20 Bohr mag/cell
     absolute magnetization    =     2.36 Bohr mag/cell

     iteration #  7     ecut=    30.00 Ry     beta= 0.50
     Davidson diagonalization with overlap
     ethr =  1.86E-09,  avg # of iterations =  3.8

     total cpu time spent up to now is      243.9 secs

     total energy              =     -55.80157821 Ry
     estimated scf accuracy    <       0.00000193 Ry

     total magnetization       =     2.21 Bohr mag/cell
     absolute magnetization    =     2.37 Bohr mag/cell

     iteration #  8     ecut=    30.00 Ry     beta= 0.50
     Davidson diagonalization with overlap
     ethr =  1.86E-09,  avg # of iterations =  1.0

     total cpu time spent up to now is      250.6 secs

     total energy              =     -55.80157800 Ry
     estimated scf accuracy    <       0.00000168 Ry

     total magnetization       =     2.21 Bohr mag/cell
     absolute magnetization    =     2.37 Bohr mag/cell

     iteration #  9     ecut=    30.00 Ry     beta= 0.50
     Davidson diagonalization with overlap
     ethr =  1.86E-09,  avg # of iterations =  1.1

     total cpu time spent up to now is      253.8 secs

     total energy              =     -55.80157773 Ry
     estimated scf accuracy    <       0.00000087 Ry

     total magnetization       =     2.21 Bohr mag/cell
     absolute magnetization    =     2.37 Bohr mag/cell

     iteration # 10     ecut=    30.00 Ry     beta= 0.50
     Davidson diagonalization with overlap
     ethr =  1.86E-09,  avg # of iterations =  2.1

     total cpu time spent up to now is      264.4 secs

     total energy              =     -55.80157781 Ry
     estimated scf accuracy    <       0.00000004 Ry

     total magnetization       =     2.20 Bohr mag/cell
     absolute magnetization    =     2.37 Bohr mag/cell

     iteration # 11     ecut=    30.00 Ry     beta= 0.50
     Davidson diagonalization with overlap
     ethr =  5.23E-10,  avg # of iterations =  2.0

     Magnetic moment per site  (integrated on atomic sphere of radius R)
     atom   1 (R=0.413)  charge=  6.3950  magn=  2.2756

     total cpu time spent up to now is      269.2 secs

     End of self-consistent calculation

 ------ SPIN UP ------------


          k = 0.0000 0.0000 0.0000 (   201 PWs)   bands (ev):

     5.1401  11.1065  11.1065  11.1065  12.2850  12.2850  38.2007  38.2007

          k = 0.0856 0.0856 0.0000 (   207 PWs)   bands (ev):

     5.5522  10.9977  11.0932  11.3239  12.1872  12.2942  35.9459  37.5897

          k = 0.1713 0.1713 0.0000 (   201 PWs)   bands (ev):

     6.6864  10.7206  10.9994  11.9242  12.0971  12.3268  31.6249  35.6819

          k = 0.2569 0.2569 0.0000 (   198 PWs)   bands (ev):

     8.0214  10.3919  11.2006  12.2150  12.3834  12.7364  27.0065  33.6536

          k = 0.3425 0.3425 0.0000 (   200 PWs)   bands (ev):

     8.5263  10.1361  12.2287  12.4439  12.8655  13.4674  22.9000  32.2592

          k =-0.4281-0.4281 0.0000 (   194 PWs)   bands (ev):

     8.5420  10.0409  12.3601  12.4706  13.7689  14.1528  20.8078  31.7683

          k = 0.1713 0.0856 0.0856 (   206 PWs)   bands (ev):

     6.3329  10.8662  10.9287  11.7818  12.0555  12.3488  33.5723  34.7841

          k = 0.2569 0.1713 0.0856 (   205 PWs)   bands (ev):

     7.6529  10.5622  10.7833  12.0467  12.4287  12.6136  29.4540  32.4707

          k = 0.3425 0.2569 0.0856 (   203 PWs)   bands (ev):

     8.6308  10.2672  11.2399  12.2383  12.5663  13.7020  25.0113  30.9359

          k = 0.4281 0.3425 0.0856 (   200 PWs)   bands (ev):

     8.7468  10.1018  11.9379  12.3402  13.0046  15.1291  21.5044  30.0865

          k = 0.3425 0.1713 0.1713 (   202 PWs)   bands (ev):

     8.8174  10.3031  10.6448  12.0925  12.5700  13.8601  27.3876  28.2523

          k = 0.4281 0.2569 0.1713 (   204 PWs)   bands (ev):

     9.2721  10.1505  10.9519  12.2727  12.7246  15.7297  23.5155  26.6938

          k = 0.5138 0.3425 0.1713 (   203 PWs)   bands (ev):

     9.2471  10.1368  11.1599  12.3555  12.8616  17.4004  21.0178  26.2483

          k = 0.5138 0.2569 0.2569 (   211 PWs)   bands (ev):

     9.6888  10.1490  10.6149  12.4588  12.7031  18.4776  21.9499  23.4839

          k = 0.1713 0.1713 0.1713 (   210 PWs)   bands (ev):

     7.3933  10.5831  10.5831  12.2470  12.2470  12.6238  31.5986  31.5986

          k = 0.2569 0.2569 0.1713 (   199 PWs)   bands (ev):

     8.7009  10.2697  10.4820  12.2754  12.3829  13.8029  27.4456  29.9873

          k = 0.3425 0.3425 0.1713 (   202 PWs)   bands (ev):

     9.1076  10.0611  11.2980  12.3748  12.4582  15.4084  23.3021  28.9304

          k = 0.4281 0.4281 0.1713 (   206 PWs)   bands (ev):

     9.0668   9.9886  11.8660  12.4203  12.4823  16.7883  20.9610  28.5606

          k = 0.0000 0.0000 0.1713 (   209 PWs)   bands (ev):

     5.9522  11.1161  11.1161  11.3247  11.9289  12.4247  35.1067  37.0747

          k = 0.3425 0.2569 0.2569 (   204 PWs)   bands (ev):

     9.5855  10.1111  10.4186  12.3605  12.4765  15.5372  25.6604  26.4369

          k = 0.4281 0.3425 0.2569 (   208 PWs)   bands (ev):

     9.5987  10.0457  10.9371  12.4456  12.5283  17.8322  22.1587  25.3397

          k = 0.0000-0.0856 0.2569 (   208 PWs)   bands (ev):

     7.0445  10.9213  11.0320  11.7238  11.8699  12.5621  31.8404  34.8335

          k = 0.5138 0.3425 0.3425 (   204 PWs)   bands (ev):

     9.7463  10.4340  10.4340  12.5164  12.5164  20.6800  20.6800  22.9986

          k = 0.0000-0.1713 0.3425 (   203 PWs)   bands (ev):

     8.3130  10.6206  10.8744  11.9945  12.6896  12.8450  27.2921  33.0488

          k = 0.0856-0.0856 0.3425 (   204 PWs)   bands (ev):

     8.2035  10.6472  10.9733  11.6783  12.4458  12.9391  29.6630  30.6629

          k = 0.0000-0.2569 0.4281 (   206 PWs)   bands (ev):

     8.7710  10.3828  11.2321  12.1990  13.4343  14.0829  23.1137  31.8780

          k = 0.0856-0.1713 0.4281 (   207 PWs)   bands (ev):

     9.0617  10.3389  10.8859  11.9892  12.9102  14.2559  25.5340  28.7164

          k =-0.8563-0.3425-0.3425 (   210 PWs)   bands (ev):

     8.7661  10.2935  11.4744  12.1822  13.7428  15.4492  20.8701  31.4656

          k =-0.7706-0.2569-0.3425 (   209 PWs)   bands (ev):

     9.1325  10.4501  10.8059  12.1378  13.3665  16.3684  21.7954  27.8314

          k =-0.6850-0.1713-0.3425 (   214 PWs)   bands (ev):

     9.6490   9.9349  10.7531  12.2662  13.0105  16.6621  23.8893  24.8190

          k =-0.6850-0.2569-0.2569 (   208 PWs)   bands (ev):

     9.6624  10.2403  10.3587  12.4813  13.0436  18.9896  21.2158  24.0735

          k = 0.3425 0.3425 0.3425 (   204 PWs)   bands (ev):

    10.0473  10.0473  10.4086  12.4769  12.4769  17.8404  24.5818  24.5818

          k = 0.4281 0.4281 0.3425 (   210 PWs)   bands (ev):

    10.0396  10.0405  10.5816  12.4977  12.5018  20.2359  21.7403  24.2152

          k = 0.0000 0.0000 0.3425 (   205 PWs)   bands (ev):

     7.9747  10.9907  11.3063  11.3063  11.9078  12.9207  31.9959  32.9214

          k = 0.0000-0.0856 0.4281 (   207 PWs)   bands (ev):

     8.9416  10.3768  11.2418  11.7062  12.5871  13.7065  28.1164  30.8160

          k = 0.0000-0.1713 0.5138 (   215 PWs)   bands (ev):

     9.2367  10.1784  11.0758  11.9513  13.3490  15.6365  23.7898  29.2978

          k = 0.0856-0.0856 0.5138 (   209 PWs)   bands (ev):

     9.4068   9.8507  11.3391  12.0351  13.0111  15.4629  26.3136  26.8524

          k =-0.8563-0.2569-0.2569 (   208 PWs)   bands (ev):

     9.1681  10.2521  11.0085  11.9774  13.6753  17.5586  21.1243  28.7254

          k =-0.7706-0.1713-0.2569 (   210 PWs)   bands (ev):

     9.3835   9.7523  11.1740  12.3543  13.3856  18.1463  22.5222  25.6798

          k =-0.6850-0.1713-0.1713 (   209 PWs)   bands (ev):

     9.5196   9.5196  11.0653  13.0204  13.0204  21.1321  21.1321  23.0903

          k = 0.0000 0.0000 0.5138 (   205 PWs)   bands (ev):

     9.2769   9.8395  11.9289  11.9289  12.6481  15.0748  28.4797  28.4797

          k = 0.0000-0.0856 0.5994 (   214 PWs)   bands (ev):

     9.2477   9.4048  12.0527  12.2957  13.2520  17.3961  24.8367  26.8060

          k =-0.8563-0.1713-0.1713 (   210 PWs)   bands (ev):

     9.1150   9.3348  12.0323  12.4127  13.5924  19.8930  21.7384  26.1721

          k =-0.7706-0.0856-0.1713 (   218 PWs)   bands (ev):

     9.0772   9.1000  12.1525  12.9484  13.3979  20.1540  23.4804  24.0553

          k = 0.0000 0.0000 0.6850 (   212 PWs)   bands (ev):

     8.9220   8.9300  12.9150  12.9150  13.2624  19.6560  24.9810  24.9810

          k =-0.8563-0.0856-0.0856 (   216 PWs)   bands (ev):

     8.7575   8.7764  13.0437  13.1680  13.5257  22.2122  22.7906  24.2743

          k =-0.8563-0.8563-0.8563 (   236 PWs)   bands (ev):

     8.5888   8.5888  13.5001  13.5001  13.5001  23.5282  23.5282  23.5282

 ------ SPIN DOWN ----------


          k = 0.0000 0.0000 0.0000 (   201 PWs)   bands (ev):

     5.1923  13.2446  13.2446  13.2446  15.3233  15.3233  37.8772  37.8772

          k = 0.0856 0.0856 0.0000 (   207 PWs)   bands (ev):

     5.6072  13.1095  13.2124  13.4843  15.1840  15.3340  35.9755  37.3968

          k = 0.1713 0.1713 0.0000 (   201 PWs)   bands (ev):

     6.7765  12.7684  13.0419  14.1516  14.9883  15.3761  32.0777  35.6702

          k = 0.2569 0.2569 0.0000 (   198 PWs)   bands (ev):

     8.3886  12.3687  12.8543  15.0089  15.0680  15.4563  27.7700  33.6552

          k = 0.3425 0.3425 0.0000 (   200 PWs)   bands (ev):

     9.6159  12.0610  13.3697  15.1333  15.5469  15.9107  24.0128  32.2196

          k =-0.4281-0.4281 0.0000 (   194 PWs)   bands (ev):

     9.9177  11.9473  14.1355  15.1739  15.5883  16.2649  22.2554  31.7065

          k = 0.1713 0.0856 0.0856 (   206 PWs)   bands (ev):

     6.4028  12.9342  13.0132  13.9777  14.9796  15.3936  33.8339  35.0131

          k = 0.2569 0.1713 0.0856 (   205 PWs)   bands (ev):

     7.8311  12.5637  12.7412  14.8239  14.8813  15.4996  30.0480  32.8018

          k = 0.3425 0.2569 0.0856 (   203 PWs)   bands (ev):

     9.3697  12.1995  12.7114  14.9899  15.5471  15.9199  25.9000  31.2643

          k = 0.4281 0.3425 0.0856 (   200 PWs)   bands (ev):

    10.0861  11.9955  13.3365  15.1251  15.6850  16.8276  22.7842  30.3920

          k = 0.3425 0.1713 0.1713 (   202 PWs)   bands (ev):

     9.3028  12.2423  12.4363  14.8571  15.5269  16.0580  28.1055  28.8259

          k = 0.4281 0.2569 0.1713 (   204 PWs)   bands (ev):

    10.4766  11.9922  12.4618  15.0263  15.6004  17.4980  24.4714  27.3142

          k = 0.5138 0.3425 0.1713 (   203 PWs)   bands (ev):

    10.7411  11.9694  12.6670  15.1366  15.6293  18.6900  22.2981  26.8579

          k = 0.5138 0.2569 0.2569 (   211 PWs)   bands (ev):

    11.2705  11.8566  12.2128  15.2192  15.4992  19.7855  22.9757  24.2939

          k = 0.1713 0.1713 0.1713 (   210 PWs)   bands (ev):

     7.5099  12.5877  12.5877  14.8454  15.2251  15.2251  31.9915  31.9915

          k = 0.2569 0.2569 0.1713 (   199 PWs)   bands (ev):

     9.0652  12.1825  12.2897  15.1925  15.4289  15.9570  28.1226  30.4127

          k = 0.3425 0.3425 0.1713 (   202 PWs)   bands (ev):

    10.2523  11.9077  12.5306  15.2681  15.5588  17.2130  24.2842  29.3426

          k = 0.4281 0.4281 0.1713 (   206 PWs)   bands (ev):

    10.4908  11.8116  13.0211  15.3127  15.6042  18.1054  22.2835  28.9616

          k = 0.0000 0.0000 0.1713 (   209 PWs)   bands (ev):

     6.0126  13.2221  13.2221  13.4891  14.8424  15.4968  35.1439  37.1852

          k = 0.3425 0.2569 0.2569 (   204 PWs)   bands (ev):

    10.4581  11.8938  12.0059  15.3111  15.5388  17.3977  26.4153  27.0740

          k = 0.4281 0.3425 0.2569 (   208 PWs)   bands (ev):

    11.0612  11.7657  12.2724  15.4046  15.5960  19.1843  23.1798  26.0041

          k = 0.0000-0.0856 0.2569 (   208 PWs)   bands (ev):

     7.1515  12.9798  13.1194  14.0896  14.4691  15.6287  32.2861  35.0260

          k = 0.5138 0.3425 0.3425 (   204 PWs)   bands (ev):

    11.3823  11.9429  11.9429  15.5290  15.5290  21.7186  21.7186  23.8543

          k = 0.0000-0.1713 0.3425 (   203 PWs)   bands (ev):

     8.7157  12.6147  12.8001  14.5551  15.0129  15.7661  28.0438  33.2245

          k = 0.0856-0.0856 0.3425 (   204 PWs)   bands (ev):

     8.4778  12.7818  12.9502  14.2210  14.7583  15.8356  30.2929  31.1754

          k = 0.0000-0.2569 0.4281 (   206 PWs)   bands (ev):

     9.9174  12.3285  12.8802  14.8254  15.8719  16.1859  24.1851  32.0311

          k = 0.0856-0.1713 0.4281 (   207 PWs)   bands (ev):

     9.9044  12.3229  12.7717  14.4775  15.4862  16.4499  26.3795  29.2947

          k =-0.8563-0.3425-0.3425 (   210 PWs)   bands (ev):

    10.2128  12.2216  13.1963  14.8718  16.2350  16.7975  22.2696  31.6058

          k =-0.7706-0.2569-0.3425 (   209 PWs)   bands (ev):

    10.6126  12.3341  12.5895  14.7052  15.8696  17.8512  22.9724  28.3981

          k =-0.6850-0.1713-0.3425 (   214 PWs)   bands (ev):

    10.9839  11.8717  12.6341  14.7464  15.5753  18.2569  24.8478  25.5266

          k =-0.6850-0.2569-0.2569 (   208 PWs)   bands (ev):

    11.3712  12.0058  12.2242  14.9925  15.5616  20.1755  22.3699  24.8379

          k = 0.3425 0.3425 0.3425 (   204 PWs)   bands (ev):

    11.5017  11.7212  11.7212  15.5581  15.5581  19.2672  25.3461  25.3461

          k = 0.4281 0.4281 0.3425 (   210 PWs)   bands (ev):

    11.5525  11.6730  11.9987  15.5814  15.6311  21.2706  22.7425  24.9802

          k = 0.0000 0.0000 0.3425 (   205 PWs)   bands (ev):

     8.1844  13.3665  13.3665  13.5971  14.1455  15.8833  32.4416  33.4679

          k = 0.0000-0.0856 0.4281 (   207 PWs)   bands (ev):

     9.5442  12.6539  13.2833  13.9190  14.8975  16.2331  28.8281  31.3851

          k = 0.0000-0.1713 0.5138 (   215 PWs)   bands (ev):

    10.5885  12.1245  13.0871  14.3076  15.7724  17.3295  24.7343  29.8207

          k = 0.0856-0.0856 0.5138 (   209 PWs)   bands (ev):

    10.5825  12.0136  13.3881  14.2544  15.4200  17.2573  27.1265  27.4605

          k =-0.8563-0.2569-0.2569 (   208 PWs)   bands (ev):

    10.8598  12.0724  13.0072  14.3564  16.1579  18.7106  22.3584  29.2119

          k =-0.7706-0.1713-0.2569 (   210 PWs)   bands (ev):

    11.1573  11.6511  13.1658  14.6484  15.8255  19.3694  23.4858  26.3243

          k =-0.6850-0.1713-0.1713 (   209 PWs)   bands (ev):

    11.4438  11.4438  12.9564  15.4003  15.4003  22.1209  22.1209  23.8442

          k = 0.0000 0.0000 0.5138 (   205 PWs)   bands (ev):

    10.4064  12.1185  14.0196  14.0196  14.9847  16.9613  29.0261  29.0261

          k = 0.0000-0.0856 0.5994 (   214 PWs)   bands (ev):

    10.9066  11.4998  14.1803  14.4613  15.6621  18.6274  25.5355  27.2762

          k =-0.8563-0.1713-0.1713 (   210 PWs)   bands (ev):

    11.0767  11.2398  14.1636  14.5888  16.0635  20.7682  22.6466  26.5896

          k =-0.7706-0.0856-0.1713 (   218 PWs)   bands (ev):

    10.9935  11.0999  14.2592  15.2464  15.8217  21.0082  24.1583  24.5840

          k = 0.0000 0.0000 0.6850 (   212 PWs)   bands (ev):

    10.7903  10.9876  15.1841  15.1841  15.6860  20.4249  25.3325  25.3325

          k =-0.8563-0.0856-0.0856 (   216 PWs)   bands (ev):

    10.7386  10.7535  15.3724  15.5029  15.9875  22.7000  23.2388  24.5409

          k =-0.8563-0.8563-0.8563 (   236 PWs)   bands (ev):

    10.5710  10.5710  15.9584  15.9584  15.9584  23.6821  23.6821  23.6821

     the Fermi energy is    13.4452 ev

!    total energy              =     -55.80157782 Ry
     estimated scf accuracy    <          8.3E-10 Ry
     smearing contrib. (-TS)   =      -0.00004043 Ry
     internal energy E=F+TS    =     -55.80153739 Ry

     The total energy is F=E-TS. E is the sum of the following terms:
     one-electron contribution =       7.57677376 Ry
     hartree contribution      =       6.51257649 Ry
     xc contribution           =     -26.44073076 Ry
     ewald contribution        =     -43.45015687 Ry

     total magnetization       =     2.20 Bohr mag/cell
     absolute magnetization    =     2.37 Bohr mag/cell

     convergence has been achieved in  11 iterations

     Forces acting on atoms (cartesian axes, Ry/au):

     atom    1 type  1   force =     0.00000000    0.00000000    0.00000000
     The non-local contrib.  to forces
     atom    1 type  1   force =     0.00000000    0.00000000    0.00000000
     The ionic contribution  to forces
     atom    1 type  1   force =    -0.00000000   -0.00000000   -0.00000000
     The local contribution  to forces
     atom    1 type  1   force =    -0.00000000   -0.00000000   -0.00000000
     The core correction contribution to forces
     atom    1 type  1   force =    -0.00000000    0.00000000   -0.00000000
     The Hubbard contrib.    to forces
     atom    1 type  1   force =     0.00000000    0.00000000    0.00000000
     The SCF correction term to forces
     atom    1 type  1   force =     0.00000000    0.00000000    0.00000000

     Total force =     0.000000     Total SCF correction =     0.000000


     Computing stress (Cartesian axis) and pressure

          total   stress  (Ry/bohr**3)                   (kbar)     P=       -3.43
  -0.00002331   0.00000000   0.00000000           -3.43        0.00        0.00
   0.00000000  -0.00002331   0.00000000            0.00       -3.43        0.00
   0.00000000   0.00000000  -0.00002331            0.00        0.00       -3.43

     Energy error            =      1.2E-06 Ry
     Gradient error          =      0.0E+00 Ry/Bohr
     Cell gradient error     =      3.4E+00 kbar

     number of scf cycles    =   3
     number of bfgs steps    =   2

     enthalpy           old  =     -55.8015790236 Ry
     enthalpy           new  =     -55.8015778188 Ry

     CASE: enthalpy          _new > enthalpy          _old

     new trust radius        =       0.0005473433 bohr
     new conv_thr            =       0.0000000010 Ry

     new unit-cell volume =     76.90705 a.u.^3 (    11.39645 Ang^3 )
     density =      8.13699 g/cm^3

CELL_PARAMETERS (angstrom)
  -1.417652695   1.417652695   1.417652695
   1.417652695  -1.417652695   1.417652695
   1.417652695   1.417652695  -1.417652695

ATOMIC_POSITIONS (angstrom)
Fe            0.0000000000        0.0000000000        0.0000000000



     Writing config-only to output data dir /home/gridsan/epan1/labutil/lab3_samples/problem1/Lab3/Fe_bcc_a_2.8046394196999995_ecut_30_nk_10/pwscf.save/
     NEW-OLD atomic charge density approx. for the potential
     extrapolated charge    7.98895, renormalised to    8.00000
     Generating pointlists ...

     total cpu time spent up to now is      272.3 secs

     Self-consistent Calculation

     iteration #  1     ecut=    30.00 Ry     beta= 0.50
     Davidson diagonalization with overlap
     ethr =  1.00E-06,  avg # of iterations =  2.0

     total cpu time spent up to now is      278.7 secs

     total energy              =     -55.80146520 Ry
     estimated scf accuracy    <       0.00012743 Ry

     total magnetization       =     2.21 Bohr mag/cell
     absolute magnetization    =     2.37 Bohr mag/cell

     iteration #  2     ecut=    30.00 Ry     beta= 0.50
     Davidson diagonalization with overlap
     ethr =  1.59E-06,  avg # of iterations =  2.2

     total cpu time spent up to now is      286.7 secs

     total energy              =     -55.80156849 Ry
     estimated scf accuracy    <       0.00032082 Ry

     total magnetization       =     2.19 Bohr mag/cell
     absolute magnetization    =     2.36 Bohr mag/cell

     iteration #  3     ecut=    30.00 Ry     beta= 0.50
     Davidson diagonalization with overlap
     ethr =  1.59E-06,  avg # of iterations =  1.1

     total cpu time spent up to now is      293.6 secs

     total energy              =     -55.80155471 Ry
     estimated scf accuracy    <       0.00004698 Ry

     total magnetization       =     2.20 Bohr mag/cell
     absolute magnetization    =     2.36 Bohr mag/cell

     iteration #  4     ecut=    30.00 Ry     beta= 0.50
     Davidson diagonalization with overlap
     ethr =  5.87E-07,  avg # of iterations =  2.2

     total cpu time spent up to now is      299.8 secs

     total energy              =     -55.80157943 Ry
     estimated scf accuracy    <       0.00009889 Ry

     total magnetization       =     2.21 Bohr mag/cell
     absolute magnetization    =     2.37 Bohr mag/cell

     iteration #  5     ecut=    30.00 Ry     beta= 0.50
     Davidson diagonalization with overlap
     ethr =  5.87E-07,  avg # of iterations =  1.0

     total cpu time spent up to now is      303.5 secs

     total energy              =     -55.80157749 Ry
     estimated scf accuracy    <       0.00002182 Ry

     total magnetization       =     2.20 Bohr mag/cell
     absolute magnetization    =     2.36 Bohr mag/cell

     iteration #  6     ecut=    30.00 Ry     beta= 0.50
     Davidson diagonalization with overlap
     ethr =  2.73E-07,  avg # of iterations =  1.1

     total cpu time spent up to now is      310.9 secs

     total energy              =     -55.80157824 Ry
     estimated scf accuracy    <       0.00000178 Ry

     total magnetization       =     2.20 Bohr mag/cell
     absolute magnetization    =     2.36 Bohr mag/cell

     iteration #  7     ecut=    30.00 Ry     beta= 0.50
     Davidson diagonalization with overlap
     ethr =  2.22E-08,  avg # of iterations =  2.1

     total cpu time spent up to now is      319.2 secs

     total energy              =     -55.80157969 Ry
     estimated scf accuracy    <       0.00000165 Ry

     total magnetization       =     2.20 Bohr mag/cell
     absolute magnetization    =     2.36 Bohr mag/cell

     iteration #  8     ecut=    30.00 Ry     beta= 0.50
     Davidson diagonalization with overlap
     ethr =  2.06E-08,  avg # of iterations =  1.0

     total cpu time spent up to now is      324.5 secs

     total energy              =     -55.80157953 Ry
     estimated scf accuracy    <       0.00000256 Ry

     total magnetization       =     2.20 Bohr mag/cell
     absolute magnetization    =     2.36 Bohr mag/cell

     iteration #  9     ecut=    30.00 Ry     beta= 0.50
     Davidson diagonalization with overlap
     ethr =  2.06E-08,  avg # of iterations =  1.0

     total cpu time spent up to now is      331.0 secs

     total energy              =     -55.80157915 Ry
     estimated scf accuracy    <       0.00000182 Ry

     total magnetization       =     2.20 Bohr mag/cell
     absolute magnetization    =     2.36 Bohr mag/cell

     iteration # 10     ecut=    30.00 Ry     beta= 0.50
     Davidson diagonalization with overlap
     ethr =  2.06E-08,  avg # of iterations =  1.0

     total cpu time spent up to now is      338.0 secs

     total energy              =     -55.80157901 Ry
     estimated scf accuracy    <       0.00000049 Ry

     total magnetization       =     2.20 Bohr mag/cell
     absolute magnetization    =     2.36 Bohr mag/cell

     iteration # 11     ecut=    30.00 Ry     beta= 0.50
     Davidson diagonalization with overlap
     ethr =  6.17E-09,  avg # of iterations =  1.3

     total cpu time spent up to now is      348.3 secs

     total energy              =     -55.80157911 Ry
     estimated scf accuracy    <          2.1E-09 Ry

     total magnetization       =     2.20 Bohr mag/cell
     absolute magnetization    =     2.36 Bohr mag/cell

     iteration # 12     ecut=    30.00 Ry     beta= 0.50
     Davidson diagonalization with overlap
     ethr =  2.64E-11,  avg # of iterations =  4.4

     total cpu time spent up to now is      361.0 secs

     total energy              =     -55.80157911 Ry
     estimated scf accuracy    <          1.5E-09 Ry

     total magnetization       =     2.20 Bohr mag/cell
     absolute magnetization    =     2.36 Bohr mag/cell

     iteration # 13     ecut=    30.00 Ry     beta= 0.50
     Davidson diagonalization with overlap
     ethr =  1.88E-11,  avg # of iterations =  1.1

     Magnetic moment per site  (integrated on atomic sphere of radius R)
     atom   1 (R=0.413)  charge=  6.3966  magn=  2.2725

     total cpu time spent up to now is      366.2 secs

     End of self-consistent calculation

 ------ SPIN UP ------------


          k = 0.0000 0.0000 0.0000 (   201 PWs)   bands (ev):

     5.1568  11.1286  11.1286  11.1286  12.3094  12.3094  38.2381  38.2381

          k = 0.0857 0.0857 0.0000 (   207 PWs)   bands (ev):

     5.5693  11.0195  11.1152  11.3464  12.2113  12.3186  35.9850  37.6280

          k = 0.1713 0.1713 0.0000 (   201 PWs)   bands (ev):

     6.7045  10.7418  11.0211  11.9480  12.1211  12.3512  31.6651  35.7207

          k = 0.2570 0.2570 0.0000 (   198 PWs)   bands (ev):

     8.0400  10.4124  11.2227  12.2393  12.4080  12.7619  27.0455  33.6913

          k = 0.3427 0.3427 0.0000 (   200 PWs)   bands (ev):

     8.5440  10.1561  12.2529  12.4687  12.8898  13.4944  22.9374  32.2957

          k =-0.4283-0.4283 0.0000 (   194 PWs)   bands (ev):

     8.5593  10.0607  12.3848  12.4955  13.7966  14.1772  20.8449  31.8042

          k = 0.1713 0.0857 0.0857 (   206 PWs)   bands (ev):

     6.3507  10.8877  10.9503  11.8053  12.0793  12.3733  33.6116  34.8254

          k = 0.2570 0.1713 0.0857 (   205 PWs)   bands (ev):

     7.6717  10.5830  10.8045  12.0705  12.4535  12.6387  29.4937  32.5111

          k = 0.3427 0.2570 0.0857 (   203 PWs)   bands (ev):

     8.6491  10.2874  11.2621  12.2627  12.5913  13.7291  25.0495  30.9753

          k = 0.4283 0.3427 0.0857 (   200 PWs)   bands (ev):

     8.7644  10.1217  11.9613  12.3648  13.0303  15.1569  21.5414  30.1252

          k = 0.3427 0.1713 0.1713 (   202 PWs)   bands (ev):

     8.8366  10.3232  10.6659  12.1165  12.5951  13.8874  27.4255  28.2930

          k = 0.4283 0.2570 0.1713 (   204 PWs)   bands (ev):

     9.2908  10.1704  10.9735  12.2971  12.7500  15.7591  23.5525  26.7326

          k = 0.5140 0.3427 0.1713 (   203 PWs)   bands (ev):

     9.2655  10.1567  11.1818  12.3801  12.8873  17.4304  21.0542  26.2867

          k = 0.5140 0.2570 0.2570 (   211 PWs)   bands (ev):

     9.7080  10.1688  10.6357  12.4836  12.7284  18.5094  21.9843  23.5226

[...]
     Davidson diagonalization with overlap
     ethr =  3.39E-06,  avg # of iterations =  2.2

     total cpu time spent up to now is      427.9 secs

     total energy              =     -55.80165312 Ry
     estimated scf accuracy    <       0.00005879 Ry

     total magnetization       =     2.19 Bohr mag/cell
     absolute magnetization    =     2.35 Bohr mag/cell

     iteration #  6     ecut=    30.00 Ry     beta= 0.50
     Davidson diagonalization with overlap
     ethr =  7.35E-07,  avg # of iterations =  1.9

     total cpu time spent up to now is      438.3 secs

     total energy              =     -55.80167605 Ry
     estimated scf accuracy    <       0.00000358 Ry

     total magnetization       =     2.19 Bohr mag/cell
     absolute magnetization    =     2.35 Bohr mag/cell

     iteration #  7     ecut=    30.00 Ry     beta= 0.50
     Davidson diagonalization with overlap
     ethr =  4.48E-08,  avg # of iterations =  4.7

     total cpu time spent up to now is      451.5 secs

     total energy              =     -55.80168045 Ry
     estimated scf accuracy    <       0.00000231 Ry

     total magnetization       =     2.20 Bohr mag/cell
     absolute magnetization    =     2.36 Bohr mag/cell

     iteration #  8     ecut=    30.00 Ry     beta= 0.50
     Davidson diagonalization with overlap
     ethr =  2.88E-08,  avg # of iterations =  2.0

     total cpu time spent up to now is      462.9 secs

     total energy              =     -55.80168266 Ry
     estimated scf accuracy    <       0.00000063 Ry

     total magnetization       =     2.20 Bohr mag/cell
     absolute magnetization    =     2.36 Bohr mag/cell

     iteration #  9     ecut=    30.00 Ry     beta= 0.50
     Davidson diagonalization with overlap
     ethr =  7.85E-09,  avg # of iterations =  2.1

     total cpu time spent up to now is      472.4 secs

     total energy              =     -55.80168290 Ry
     estimated scf accuracy    <          2.3E-09 Ry

     total magnetization       =     2.20 Bohr mag/cell
     absolute magnetization    =     2.36 Bohr mag/cell

     iteration # 10     ecut=    30.00 Ry     beta= 0.50
     Davidson diagonalization with overlap
     ethr =  2.92E-11,  avg # of iterations =  8.9

     Magnetic moment per site  (integrated on atomic sphere of radius R)
     atom   1 (R=0.413)  charge=  6.3966  magn=  2.2727

     total cpu time spent up to now is      486.4 secs

     End of self-consistent calculation

 ------ SPIN UP ------------


          k = 0.0000 0.0000 0.0000 (   201 PWs)   bands (ev):

     5.1568  11.1282  11.1282  11.1282  12.3089  12.3089  38.2380  38.2380

          k = 0.0857 0.0857 0.0000 (   207 PWs)   bands (ev):

     5.5694  11.0191  11.1147  11.3460  12.2108  12.3181  35.9849  37.6279

          k = 0.1713 0.1713 0.0000 (   213 PWs)   bands (ev):

     6.7045  10.7407  11.0203  11.9471  12.1206  12.3504  31.6648  35.7201

          k = 0.2570 0.2570 0.0000 (   211 PWs)   bands (ev):

     8.0398  10.4113  11.2221  12.2385  12.4075  12.7610  27.0452  33.6909

          k = 0.3427 0.3427 0.0000 (   206 PWs)   bands (ev):

     8.5437  10.1552  12.2525  12.4680  12.8896  13.4938  22.9372  32.2954

          k =-0.4283-0.4283 0.0000 (   214 PWs)   bands (ev):

     8.5589  10.0593  12.3841  12.4942  13.7955  14.1771  20.8447  31.8039

          k = 0.1713 0.0857 0.0857 (   210 PWs)   bands (ev):

     6.3508  10.8871  10.9497  11.8047  12.0788  12.3728  33.6108  34.8250

          k = 0.2570 0.1713 0.0857 (   211 PWs)   bands (ev):

     7.6717  10.5823  10.8038  12.0700  12.4528  12.6381  29.4934  32.5110

          k = 0.3427 0.2570 0.0857 (   209 PWs)   bands (ev):

     8.6488  10.2868  11.2616  12.2622  12.5907  13.7286  25.0492  30.9752

          k = 0.4283 0.3427 0.0857 (   212 PWs)   bands (ev):

     8.7641  10.1208  11.9607  12.3640  13.0295  15.1565  21.5412  30.1250

          k = 0.3427 0.1713 0.1713 (   207 PWs)   bands (ev):

     8.8364  10.3227  10.6654  12.1161  12.5945  13.8868  27.4252  28.2930

          k = 0.4283 0.2570 0.1713 (   214 PWs)   bands (ev):

     9.2904  10.1696  10.9729  12.2966  12.7492  15.7587  23.5522  26.7326

          k = 0.5140 0.3427 0.1713 (   213 PWs)   bands (ev):

     9.2651  10.1559  11.1812  12.3794  12.8866  17.4300  21.0540  26.2866

          k = 0.5140 0.2570 0.2570 (   215 PWs)   bands (ev):

     9.7076  10.1683  10.6353  12.4830  12.7279  18.5091  21.9841  23.5226

          k = 0.1713 0.1713 0.1713 (   210 PWs)   bands (ev):

     7.4122  10.6036  10.6036  12.2708  12.2708  12.6485  31.6376  31.6376

          k = 0.2570 0.2570 0.1713 (   211 PWs)   bands (ev):

     8.7200  10.2892  10.5020  12.2991  12.4067  13.8294  27.4839  30.0253

          k = 0.3427 0.3427 0.1713 (   209 PWs)   bands (ev):

     9.1258  10.0803  11.3198  12.3988  12.4823  15.4370  23.3391  28.9676

          k = 0.4283 0.4283 0.1713 (   210 PWs)   bands (ev):

     9.0846  10.0076  11.8888  12.4444  12.5067  16.8174  20.9975  28.5975

          k = 0.0000 0.0000 0.1713 (   213 PWs)   bands (ev):

     5.9697  11.1375  11.1375  11.3468  11.9519  12.4486  35.1439  37.1157

          k = 0.3427 0.2570 0.2570 (   214 PWs)   bands (ev):

     9.6046  10.1304  10.4388  12.3846  12.5004  15.5662  25.6968  26.4761

          k = 0.4283 0.3427 0.2570 (   212 PWs)   bands (ev):

     9.6174  10.0648  10.9583  12.4699  12.5528  17.8631  22.1945  25.3777

          k = 0.0000-0.0857 0.2570 (   210 PWs)   bands (ev):

     7.0630  10.9423  11.0533  11.7464  11.8930  12.5867  31.8800  34.8741

          k = 0.5140 0.3427 0.3427 (   213 PWs)   bands (ev):

     9.7651  10.4541  10.4541  12.5405  12.5405  20.7129  20.7129  23.0373

          k = 0.0000-0.1713 0.3427 (   219 PWs)   bands (ev):

     8.3314  10.6405  10.8950  12.0175  12.7139  12.8697  27.3309  33.0870

          k = 0.0857-0.0857 0.3427 (   213 PWs)   bands (ev):

     8.2224  10.6674  10.9942  11.7008  12.4697  12.9644  29.7016  30.7051

          k = 0.0000-0.2570 0.4283 (   216 PWs)   bands (ev):

     8.7885  10.4025  11.2535  12.2224  13.4603  14.1093  23.1510  31.9154

          k = 0.0857-0.1713 0.4283 (   214 PWs)   bands (ev):

     9.0803  10.3586  10.9066  12.0124  12.9353  14.2832  25.5721  28.7565

          k =-0.8567-0.3427-0.3427 (   210 PWs)   bands (ev):

     8.7834  10.3134  11.4965  12.2060  13.7698  15.4761  20.9069  31.5027

          k =-0.7710-0.2570-0.3427 (   214 PWs)   bands (ev):

     9.1503  10.4700  10.8266  12.1613  13.3925  16.3975  21.8319  27.8707

          k =-0.6853-0.1713-0.3427 (   218 PWs)   bands (ev):

     9.6680   9.9535  10.7738  12.2900  13.0359  16.6922  23.9252  24.8581

          k =-0.6853-0.2570-0.2570 (   214 PWs)   bands (ev):

     9.6810  10.2599  10.3784  12.5055  13.0688  19.0210  21.2510  24.1114

          k = 0.3427 0.3427 0.3427 (   222 PWs)   bands (ev):

    10.0660  10.0660  10.4291  12.5007  12.5007  17.8718  24.6173  24.6174

          k = 0.4283 0.4283 0.3427 (   216 PWs)   bands (ev):

    10.0586  10.0599  10.6021  12.5219  12.5263  20.2684  21.7755  24.2506

          k = 0.0000 0.0000 0.3427 (   213 PWs)   bands (ev):

     7.9935  11.0113  11.3280  11.3280  11.9310  12.9460  32.0320  32.9650

          k = 0.0000-0.0857 0.4283 (   213 PWs)   bands (ev):

     8.9606  10.3963  11.2635  11.7286  12.6114  13.7332  28.1558  30.8589

          k = 0.0000-0.1713 0.5140 (   215 PWs)   bands (ev):

     9.2548  10.1979  11.0972  11.9746  13.3751  15.6654  23.8271  29.3394

          k = 0.0857-0.0857 0.5140 (   217 PWs)   bands (ev):

     9.4255   9.8690  11.3608  12.0583  13.0362  15.4918  26.3514  26.8923

          k =-0.8567-0.2570-0.2570 (   216 PWs)   bands (ev):

     9.1857  10.2717  11.0292  12.0006  13.7018  17.5882  21.1607  28.7662

          k =-0.7710-0.1713-0.2570 (   217 PWs)   bands (ev):

     9.4013   9.7708  11.1954  12.3781  13.4117  18.1774  22.5583  25.7182

          k =-0.6853-0.1713-0.1713 (   215 PWs)   bands (ev):

     9.5375   9.5375  11.0866  13.0458  13.0458  21.1656  21.1656  23.1282

          k = 0.0000 0.0000 0.5140 (   213 PWs)   bands (ev):

     9.2955   9.8579  11.9515  11.9515  12.6727  15.1033  28.5203  28.5203

          k = 0.0000-0.0857 0.5997 (   218 PWs)   bands (ev):

     9.2655   9.4224  12.0760  12.3192  13.2779  17.4268  24.8742  26.8449

          k =-0.8567-0.1713-0.1713 (   216 PWs)   bands (ev):

     9.1320   9.3525  12.0555  12.4366  13.6188  19.9251  21.7743  26.2103

          k =-0.7710-0.0857-0.1713 (   218 PWs)   bands (ev):

     9.0943   9.1173  12.1761  12.9737  13.4241  20.1869  23.5160  24.0925

          k = 0.0000 0.0000 0.6853 (   220 PWs)   bands (ev):

     8.9387   8.9464  12.9401  12.9401  13.2880  19.6885  25.0178  25.0178

          k =-0.8567-0.0857-0.0857 (   228 PWs)   bands (ev):

     8.7735   8.7926  13.0688  13.1934  13.5520  22.2461  22.8257  24.3101

          k =-0.8567-0.8567-0.8567 (   236 PWs)   bands (ev):

     8.6049   8.6049  13.5266  13.5266  13.5266  23.5631  23.5631  23.5631

 ------ SPIN DOWN ----------


          k = 0.0000 0.0000 0.0000 (   201 PWs)   bands (ev):

     5.2094  13.2629  13.2629  13.2629  15.3449  15.3449  37.9156  37.9156

          k = 0.0857 0.0857 0.0000 (   207 PWs)   bands (ev):

     5.6247  13.1276  13.2306  13.5030  15.2054  15.3556  36.0149  37.4357

          k = 0.1713 0.1713 0.0000 (   213 PWs)   bands (ev):

     6.7951  12.7851  13.0595  14.1707  15.0094  15.3973  32.1175  35.7093

          k = 0.2570 0.2570 0.0000 (   211 PWs)   bands (ev):

     8.4077  12.3848  12.8729  15.0295  15.0888  15.4781  27.8085  33.6933

          k = 0.3427 0.3427 0.0000 (   206 PWs)   bands (ev):

     9.6329  12.0769  13.3922  15.1547  15.5687  15.9334  24.0492  32.2565

          k =-0.4283-0.4283 0.0000 (   214 PWs)   bands (ev):

     9.9332  11.9623  14.1605  15.1951  15.6091  16.2875  22.2906  31.7428

          k = 0.1713 0.0857 0.0857 (   210 PWs)   bands (ev):

     6.4211  12.9517  13.0310  13.9970  15.0005  15.4154  33.8728  35.0539

          k = 0.2570 0.1713 0.0857 (   211 PWs)   bands (ev):

     7.8505  12.5805  12.7587  14.8448  14.9021  15.5215  30.0873  32.8420

          k = 0.3427 0.2570 0.0857 (   209 PWs)   bands (ev):

     9.3883  12.2160  12.7304  15.0109  15.5690  15.9429  25.9375  31.3033

          k = 0.4283 0.3427 0.0857 (   212 PWs)   bands (ev):

    10.1021  12.0112  13.3586  15.1460  15.7068  16.8525  22.8197  30.4302

          k = 0.3427 0.1713 0.1713 (   207 PWs)   bands (ev):

     9.3224  12.2593  12.4536  14.8779  15.5488  16.0813  28.1430  28.8662

          k = 0.4283 0.2570 0.1713 (   214 PWs)   bands (ev):

    10.4944  12.0088  12.4803  15.0474  15.6221  17.5245  24.5077  27.3526

          k = 0.5140 0.3427 0.1713 (   213 PWs)   bands (ev):

    10.7572  11.9855  12.6871  15.1577  15.6512  18.7183  22.3329  26.8960

          k = 0.5140 0.2570 0.2570 (   215 PWs)   bands (ev):

    11.2873  11.8740  12.2312  15.2406  15.5212  19.8156  23.0092  24.3320

          k = 0.1713 0.1713 0.1713 (   210 PWs)   bands (ev):

     7.5291  12.6050  12.6050  14.8665  15.2466  15.2466  32.0307  32.0307

          k = 0.2570 0.2570 0.1713 (   211 PWs)   bands (ev):

     9.0849  12.1988  12.3065  15.2137  15.4503  15.9798  28.1608  30.4507

          k = 0.3427 0.3427 0.1713 (   209 PWs)   bands (ev):

    10.2700  11.9239  12.5502  15.2894  15.5806  17.2386  24.3205  29.3798

          k = 0.4283 0.4283 0.1713 (   210 PWs)   bands (ev):

    10.5069  11.8275  13.0426  15.3341  15.6264  18.1327  22.3186  28.9985

          k = 0.0000 0.0000 0.1713 (   213 PWs)   bands (ev):

     6.0305  13.2402  13.2402  13.5078  14.8632  15.5184  35.1820  37.2261

          k = 0.3427 0.2570 0.2570 (   214 PWs)   bands (ev):

    10.4776  11.9103  12.0226  15.3326  15.5600  17.4237  26.4515  27.1128

          k = 0.4283 0.3427 0.2570 (   212 PWs)   bands (ev):

    11.0783  11.7821  12.2918  15.4263  15.6180  19.2134  23.2148  26.0417

          k = 0.0000-0.0857 0.2570 (   210 PWs)   bands (ev):

     7.1705  12.9974  13.1376  14.1092  14.4893  15.6510  32.3257  35.0669

          k = 0.5140 0.3427 0.3427 (   213 PWs)   bands (ev):

    11.3985  11.9610  11.9610  15.5504  15.5504  21.7506  21.7506  23.8922

          k = 0.0000-0.1713 0.3427 (   219 PWs)   bands (ev):

     8.7349  12.6313  12.8179  14.5751  15.0334  15.7882  28.0825  33.2634

          k = 0.0857-0.0857 0.3427 (   213 PWs)   bands (ev):

     8.4974  12.7994  12.9678  14.2407  14.7786  15.8580  30.3316  31.2172

          k = 0.0000-0.2570 0.4283 (   216 PWs)   bands (ev):

     9.9347  12.3450  12.9004  14.8460  15.8941  16.2098  24.2216  32.0690

          k = 0.0857-0.1713 0.4283 (   214 PWs)   bands (ev):

     9.9234  12.3403  12.7894  14.4977  15.5079  16.4744  26.4173  29.3345

          k =-0.8567-0.3427-0.3427 (   210 PWs)   bands (ev):

    10.2287  12.2384  13.2178  14.8928  16.2582  16.8233  22.3048  31.6434

          k =-0.7710-0.2570-0.3427 (   214 PWs)   bands (ev):

    10.6292  12.3518  12.6082  14.7257  15.8920  17.8787  23.0080  28.4373

          k =-0.6853-0.1713-0.3427 (   218 PWs)   bands (ev):

    11.0020  11.8883  12.6521  14.7671  15.5973  18.2851  24.8834  25.5652

          k =-0.6853-0.2570-0.2570 (   214 PWs)   bands (ev):

    11.3881  12.0241  12.2411  15.0135  15.5833  20.2062  22.4043  24.8753

          k = 0.3427 0.3427 0.3427 (   222 PWs)   bands (ev):

    11.5210  11.7371  11.7371  15.5793  15.5793  19.2965  25.3812  25.3814

          k = 0.4283 0.4283 0.3427 (   216 PWs)   bands (ev):

    11.5696  11.6893  12.0172  15.6031  15.6533  21.3020  22.7767  25.0150

          k = 0.0000 0.0000 0.3427 (   213 PWs)   bands (ev):

     8.2039  13.3848  13.3848  13.6154  14.1651  15.9059  32.4788  33.5111

          k = 0.0000-0.0857 0.4283 (   213 PWs)   bands (ev):

     9.5638  12.6711  13.3018  13.9382  14.9182  16.2573  28.8675  31.4275

          k = 0.0000-0.1713 0.5140 (   215 PWs)   bands (ev):

    10.6064  12.1422  13.1054  14.3278  15.7948  17.3567  24.7711  29.8620

          k = 0.0857-0.0857 0.5140 (   217 PWs)   bands (ev):

    10.6011  12.0298  13.4066  14.2743  15.4414  17.2843  27.1643  27.5000

          k =-0.8567-0.2570-0.2570 (   216 PWs)   bands (ev):

    10.8758  12.0909  13.0246  14.3766  16.1806  18.7397  22.3935  29.2526

          k =-0.7710-0.1713-0.2570 (   217 PWs)   bands (ev):

    11.1739  11.6679  13.1840  14.6688  15.8478  19.3997  23.5214  26.3624

          k =-0.6853-0.1713-0.1713 (   215 PWs)   bands (ev):

    11.4600  11.4600  12.9747  15.4222  15.4222  22.1541  22.1541  23.8815

          k = 0.0000 0.0000 0.5140 (   213 PWs)   bands (ev):

    10.4251  12.1348  14.0388  14.0388  15.0056  16.9879  29.0663  29.0663

          k = 0.0000-0.0857 0.5997 (   218 PWs)   bands (ev):

    10.9235  11.5154  14.2003  14.4815  15.6842  18.6572  25.5727  27.3150

          k =-0.8567-0.1713-0.1713 (   216 PWs)   bands (ev):

    11.0920  11.2561  14.1835  14.6094  16.0861  20.8001  22.6818  26.6276

          k =-0.7710-0.0857-0.1713 (   218 PWs)   bands (ev):

    11.0093  11.1152  14.2796  15.2681  15.8442  21.0408  24.1938  24.6208

          k = 0.0000 0.0000 0.6853 (   220 PWs)   bands (ev):

    10.8055  11.0021  15.2056  15.2056  15.7076  20.4572  25.3692  25.3692

          k =-0.8567-0.0857-0.0857 (   228 PWs)   bands (ev):

    10.7530  10.7676  15.3937  15.5247  16.0100  22.7340  23.2739  24.5767

          k =-0.8567-0.8567-0.8567 (   236 PWs)   bands (ev):

    10.5854  10.5854  15.9811  15.9811  15.9811  23.7171  23.7171  23.7171

     the Fermi energy is    13.4692 ev

!    total energy              =     -55.80168295 Ry
     estimated scf accuracy    <          7.5E-10 Ry
     smearing contrib. (-TS)   =      -0.00003592 Ry
     internal energy E=F+TS    =     -55.80164704 Ry

     The total energy is F=E-TS. E is the sum of the following terms:
     one-electron contribution =       7.60473496 Ry
     hartree contribution      =       6.50490355 Ry
     xc contribution           =     -26.44113152 Ry
     ewald contribution        =     -43.47015403 Ry

     total magnetization       =     2.20 Bohr mag/cell
     absolute magnetization    =     2.36 Bohr mag/cell

     convergence has been achieved in  10 iterations

     Forces acting on atoms (cartesian axes, Ry/au):

     atom    1 type  1   force =     0.00000000    0.00000000    0.00000000
     The non-local contrib.  to forces
     atom    1 type  1   force =     0.00000000    0.00000000    0.00000000
     The ionic contribution  to forces
     atom    1 type  1   force =    -0.00000000   -0.00000000   -0.00000000
     The local contribution  to forces
     atom    1 type  1   force =    -0.00000000    0.00000000   -0.00000000
     The core correction contribution to forces
     atom    1 type  1   force =    -0.00000000   -0.00000000   -0.00000000
     The Hubbard contrib.    to forces
     atom    1 type  1   force =     0.00000000    0.00000000    0.00000000
     The SCF correction term to forces
     atom    1 type  1   force =    -0.00000000   -0.00000000    0.00000000

     Total force =     0.000000     Total SCF correction =     0.000000


     Computing stress (Cartesian axis) and pressure

          total   stress  (Ry/bohr**3)                   (kbar)     P=       -2.27
  -0.00001546  -0.00000000  -0.00000000           -2.27       -0.00       -0.00
  -0.00000000  -0.00001546  -0.00000000           -0.00       -2.27       -0.00
  -0.00000000  -0.00000000  -0.00001546           -0.00       -0.00       -2.27


     init_run     :      3.22s CPU      7.11s WALL (       2 calls)
     electrons    :    210.59s CPU    465.39s WALL (       5 calls)
     update_pot   :      0.41s CPU      1.02s WALL (       3 calls)
     forces       :      2.24s CPU      4.59s WALL (       5 calls)
     stress       :      4.11s CPU      9.45s WALL (       5 calls)

     Called by init_run:
     wfcinit      :      1.96s CPU      4.33s WALL (       2 calls)
     potinit      :      0.34s CPU      0.68s WALL (       2 calls)
     hinit0       :      0.80s CPU      1.69s WALL (       2 calls)

     Called by electrons:
     c_bands      :    186.31s CPU    412.68s WALL (      58 calls)
     sum_band     :     15.58s CPU     33.73s WALL (      58 calls)
     v_of_rho     :      3.61s CPU      7.90s WALL (      63 calls)
     newd         :      1.02s CPU      2.21s WALL (      63 calls)
     mix_rho      :      2.39s CPU      4.88s WALL (      58 calls)

     Called by c_bands:
     init_us_2    :      0.36s CPU      0.79s WALL (   12032 calls)
     init_us_2:cp :      0.34s CPU      0.72s WALL (   12032 calls)
     cegterg      :    136.03s CPU    284.49s WALL (    5452 calls)

     Called by *egterg:
     cdiaghg      :      2.27s CPU      5.20s WALL (   18077 calls)
     h_psi        :    102.06s CPU    212.62s WALL (   18547 calls)
     s_psi        :      0.16s CPU      0.28s WALL (   18547 calls)
     g_psi        :      0.04s CPU      0.12s WALL (   12907 calls)

     Called by h_psi:
     h_psi:calbec :     11.48s CPU     23.11s WALL (   18547 calls)
     vloc_psi     :     90.30s CPU    188.55s WALL (   18547 calls)
     add_vuspsi   :      0.18s CPU      0.47s WALL (   18547 calls)

     General routines
     calbec       :     17.84s CPU     36.14s WALL (   26349 calls)
     fft          :      3.60s CPU      7.45s WALL (    1768 calls)
     ffts         :      0.49s CPU      1.04s WALL (     242 calls)
     fftw         :    100.08s CPU    209.55s WALL (  268708 calls)
     interpolate  :      0.62s CPU      1.26s WALL (     126 calls)

     Parallel routines

     PWSCF        :   3m41.62s CPU   8m10.53s WALL


   This run was terminated on:  17:43:14   1Nov2023            

=------------------------------------------------------------------------------=
   JOB DONE.
=------------------------------------------------------------------------------=
