
     Program PWSCF v.7.2 starts on  3Nov2023 at 11: 5:56 

     This program is part of the open-source Quantum ESPRESSO suite
     for quantum simulation of materials; please cite
         "P. Giannozzi et al., J. Phys.:Condens. Matter 21 395502 (2009);
         "P. Giannozzi et al., J. Phys.:Condens. Matter 29 465901 (2017);
         "P. Giannozzi et al., J. Chem. Phys. 152 154105 (2020);
          URL http://www.quantum-espresso.org", 
     in publications or presentations arising from this work. More details at
     http://www.quantum-espresso.org/quote

     Parallel version (MPI), running on     8 processors

     MPI processes distributed on     8 nodes
     185445 MiB available memory on the printing compute node when the environment starts

     Waiting for input...
     Reading input from standard input

     Current dimensions of program PWSCF are:
     Max number of different atomic species (ntypx) = 10
     Max number of k-points (npk) =  40000
     Max angular momentum in pseudopotentials (lmaxx) =  4
     Message from routine setup:
     using ibrav=0 with symmetry is DISCOURAGED, use correct ibrav instead

     R & G space division:  proc/nbgrp/npool/nimage =       8
     Subspace diagonalization in iterative solution of the eigenvalue problem:
     a serial algorithm will be used


     Parallelization info
     --------------------
     sticks:   dense  smooth     PW     G-vecs:    dense   smooth      PW
     Min          79      39     12                 1301      461      80
     Max          80      40     13                 1303      463      81
     Sum         637     313     97                10417     3695     645

     Using Slab Decomposition



     bravais-lattice index     =            0
     lattice parameter (alat)  =       5.3450  a.u.
     unit-cell volume          =     107.9734 (a.u.)^3
     number of atoms/cell      =            1
     number of atomic types    =            1
     number of electrons       =        11.00
     number of Kohn-Sham states=           10
     kinetic-energy cutoff     =      40.0000  Ry
     charge density cutoff     =     320.0000  Ry
     scf convergence threshold =      1.0E-07
     mixing beta               =       0.5000
     number of iterations used =            8  plain     mixing
     energy convergence thresh.=      1.0E-04
     force convergence thresh. =      1.0E-03
     press convergence thresh. =      5.0E-01
     Exchange-correlation=  SLA  PZ   NOGX NOGC
                           (   1   1   0   0   0   0   0)
     nstep                     =           50


     celldm(1)=   5.344953  celldm(2)=   0.000000  celldm(3)=   0.000000
     celldm(4)=   0.000000  celldm(5)=   0.000000  celldm(6)=   0.000000

     crystal axes: (cart. coord. in units of alat)
               a(1) = (   0.000000   0.707107   0.707107 )  
               a(2) = (   0.707107   0.000000   0.707107 )  
               a(3) = (   0.707107   0.707107   0.000000 )  

     reciprocal axes: (cart. coord. in units 2 pi/alat)
               b(1) = ( -0.707107  0.707107  0.707107 )  
               b(2) = (  0.707107 -0.707107  0.707107 )  
               b(3) = (  0.707107  0.707107 -0.707107 )  


     PseudoPot. # 1 for Au read from file:
     /home/gridsan/epan1/labutil/lab3_samples/pseudopotentials/Au.pz-d-rrkjus.UPF
     MD5 check sum: 424ffd4ac9c90487cbadcd287136c95b
     Pseudo is Ultrasoft, Zval = 11.0
     Generated by new atomic code, or converted to UPF format
     Using radial grid of 1279 points,  3 beta functions with: 
                l(1) =   2
                l(2) =   2
                l(3) =   1
     Q(r) pseudized with 0 coefficients 


     atomic species   valence    mass     pseudopotential
        Au            11.00   196.96657     Au( 1.00)

     Starting magnetic structure 
     atomic species   magnetization
        Au           0.700

     48 Sym. Ops., with inversion, found



   Cartesian axes

     site n.     atom                  positions (alat units)
         1           Au  tau(   1) = (   0.0000000   0.0000000   0.0000000  )

     number of k points=     4  Methfessel-Paxton smearing, width (Ry)=  0.0200
                       cart. coord. in units 2pi/alat
        k(    1) = (   0.0000000   0.0000000   0.0000000), wk =   0.0370370
        k(    2) = (   0.2357023   0.2357023  -0.2357023), wk =   0.2962963
        k(    3) = (   0.4714045   0.0000000   0.0000000), wk =   0.2222222
        k(    4) = (  -0.0000000  -0.4714045   0.4714045), wk =   0.4444444

     Dense  grid:    10417 G-vectors     FFT dimensions: (  32,  32,  32)

     Smooth grid:     3695 G-vectors     FFT dimensions: (  24,  24,  24)

     Estimated max dynamical RAM per process >       4.72 MB

     Estimated total dynamical RAM >      37.73 MB
     Generating pointlists ...
     new r_m :   0.4125 (alat units)  2.2048 (a.u.) for type    1

     Initial potential from superposition of free atoms

     starting charge      10.9999, renormalised to      11.0000
     Starting wfcs are    9 randomized atomic wfcs +    1 random wfcs

     total cpu time spent up to now is        0.4 secs

     Self-consistent Calculation

     iteration #  1     ecut=    40.00 Ry     beta= 0.50
     Davidson diagonalization with overlap
     ethr =  1.00E-02,  avg # of iterations =  5.8

     total cpu time spent up to now is        0.5 secs

     total energy              =     -66.52872907 Ry
     estimated scf accuracy    <       0.46928516 Ry

     total magnetization       =     1.00 Bohr mag/cell
     absolute magnetization    =     1.14 Bohr mag/cell

     iteration #  2     ecut=    40.00 Ry     beta= 0.50
     Davidson diagonalization with overlap
     ethr =  4.27E-03,  avg # of iterations =  1.5

     total cpu time spent up to now is        0.5 secs

     total energy              =     -66.82144687 Ry
     estimated scf accuracy    <       0.14547769 Ry

     total magnetization       =     0.11 Bohr mag/cell
     absolute magnetization    =     0.51 Bohr mag/cell

     iteration #  3     ecut=    40.00 Ry     beta= 0.50
     Davidson diagonalization with overlap
     ethr =  1.32E-03,  avg # of iterations =  1.0

     total cpu time spent up to now is        0.6 secs

     total energy              =     -66.89912454 Ry
     estimated scf accuracy    <       0.03928415 Ry

     total magnetization       =     0.11 Bohr mag/cell
     absolute magnetization    =     0.36 Bohr mag/cell

     iteration #  4     ecut=    40.00 Ry     beta= 0.50
     Davidson diagonalization with overlap
     ethr =  3.57E-04,  avg # of iterations =  1.9

     total cpu time spent up to now is        0.6 secs

     total energy              =     -66.90288423 Ry
     estimated scf accuracy    <       0.00180926 Ry

     total magnetization       =     0.02 Bohr mag/cell
     absolute magnetization    =     0.07 Bohr mag/cell

     iteration #  5     ecut=    40.00 Ry     beta= 0.50
     Davidson diagonalization with overlap
     ethr =  1.64E-05,  avg # of iterations =  1.6

     total cpu time spent up to now is        0.7 secs

     total energy              =     -66.90355956 Ry
     estimated scf accuracy    <       0.00012683 Ry

     total magnetization       =     0.03 Bohr mag/cell
     absolute magnetization    =     0.05 Bohr mag/cell

     iteration #  6     ecut=    40.00 Ry     beta= 0.50
     Davidson diagonalization with overlap
     ethr =  1.15E-06,  avg # of iterations =  1.5

     total cpu time spent up to now is        0.7 secs

     total energy              =     -66.90364889 Ry
     estimated scf accuracy    <       0.00001486 Ry

     total magnetization       =     0.09 Bohr mag/cell
     absolute magnetization    =     0.10 Bohr mag/cell

     iteration #  7     ecut=    40.00 Ry     beta= 0.50
     Davidson diagonalization with overlap
     ethr =  1.35E-07,  avg # of iterations =  1.5

     total cpu time spent up to now is        0.7 secs

     total energy              =     -66.90365424 Ry
     estimated scf accuracy    <       0.00000322 Ry

     total magnetization       =     0.11 Bohr mag/cell
     absolute magnetization    =     0.11 Bohr mag/cell

     iteration #  8     ecut=    40.00 Ry     beta= 0.50
     Davidson diagonalization with overlap
     ethr =  2.93E-08,  avg # of iterations =  2.0

     total cpu time spent up to now is        0.8 secs

     total energy              =     -66.90341068 Ry
     estimated scf accuracy    <       0.00000347 Ry

     total magnetization       =     0.13 Bohr mag/cell
     absolute magnetization    =     0.14 Bohr mag/cell

     iteration #  9     ecut=    40.00 Ry     beta= 0.50
     Davidson diagonalization with overlap
     ethr =  2.93E-08,  avg # of iterations =  2.2

     total cpu time spent up to now is        0.8 secs

     total energy              =     -66.90359305 Ry
     estimated scf accuracy    <       0.00000190 Ry

     total magnetization       =     0.03 Bohr mag/cell
     absolute magnetization    =     0.03 Bohr mag/cell

     iteration # 10     ecut=    40.00 Ry     beta= 0.50
     Davidson diagonalization with overlap
     ethr =  1.73E-08,  avg # of iterations =  2.0

     total cpu time spent up to now is        0.9 secs

     total energy              =     -66.90288905 Ry
     estimated scf accuracy    <       0.00000176 Ry

     total magnetization       =    -0.01 Bohr mag/cell
     absolute magnetization    =     0.01 Bohr mag/cell

     iteration # 11     ecut=    40.00 Ry     beta= 0.50
     Davidson diagonalization with overlap
     ethr =  1.60E-08,  avg # of iterations =  3.0

     total cpu time spent up to now is        1.0 secs

     total energy              =     -66.90332118 Ry
     estimated scf accuracy    <       0.00000174 Ry

     total magnetization       =     0.16 Bohr mag/cell
     absolute magnetization    =     0.17 Bohr mag/cell

     iteration # 12     ecut=    40.00 Ry     beta= 0.50
     Davidson diagonalization with overlap
     ethr =  1.58E-08,  avg # of iterations =  3.0

     total cpu time spent up to now is        1.0 secs

     total energy              =     -66.90362764 Ry
     estimated scf accuracy    <       0.00000127 Ry

     total magnetization       =     0.05 Bohr mag/cell
     absolute magnetization    =     0.05 Bohr mag/cell

     iteration # 13     ecut=    40.00 Ry     beta= 0.50
     Davidson diagonalization with overlap
     ethr =  1.15E-08,  avg # of iterations =  1.1

     total cpu time spent up to now is        1.0 secs

     total energy              =     -66.90362406 Ry
     estimated scf accuracy    <       0.00000160 Ry

     total magnetization       =     0.06 Bohr mag/cell
     absolute magnetization    =     0.06 Bohr mag/cell

     iteration # 14     ecut=    40.00 Ry     beta= 0.50
     Davidson diagonalization with overlap
     ethr =  1.15E-08,  avg # of iterations =  1.1

     total cpu time spent up to now is        1.1 secs

     total energy              =     -66.90362691 Ry
     estimated scf accuracy    <       0.00000117 Ry

     total magnetization       =     0.05 Bohr mag/cell
     absolute magnetization    =     0.05 Bohr mag/cell

     iteration # 15     ecut=    40.00 Ry     beta= 0.50
     Davidson diagonalization with overlap
     ethr =  1.07E-08,  avg # of iterations =  1.0

     total cpu time spent up to now is        1.1 secs

     total energy              =     -66.90362834 Ry
     estimated scf accuracy    <       0.00000133 Ry

     total magnetization       =     0.05 Bohr mag/cell
     absolute magnetization    =     0.05 Bohr mag/cell

     iteration # 16     ecut=    40.00 Ry     beta= 0.50
     Davidson diagonalization with overlap
     ethr =  1.07E-08,  avg # of iterations =  1.0

     total cpu time spent up to now is        1.2 secs

     total energy              =     -66.90309103 Ry
     estimated scf accuracy    <       0.00000146 Ry

     total magnetization       =     0.06 Bohr mag/cell
     absolute magnetization    =     0.06 Bohr mag/cell

     iteration # 17     ecut=    40.00 Ry     beta= 0.50
     Davidson diagonalization with overlap
     ethr =  1.07E-08,  avg # of iterations =  3.0
     Minimization algorithm failed to find Fermi energy: reverting to bisection
     Possible cause: smearing is larger than the electronic band-gap.

     total cpu time spent up to now is        1.2 secs

     total energy              =     -66.90366175 Ry
     estimated scf accuracy    <       0.00001602 Ry

     total magnetization       =     0.17 Bohr mag/cell
     absolute magnetization    =     0.18 Bohr mag/cell

     iteration # 18     ecut=    40.00 Ry     beta= 0.50
     Davidson diagonalization with overlap
     ethr =  1.07E-08,  avg # of iterations =  1.0
     Minimization algorithm failed to find Fermi energy: reverting to bisection
     Possible cause: smearing is larger than the electronic band-gap.

     total cpu time spent up to now is        1.3 secs

     total energy              =     -66.90366783 Ry
     estimated scf accuracy    <       0.00001105 Ry

     total magnetization       =     0.17 Bohr mag/cell
     absolute magnetization    =     0.18 Bohr mag/cell

     iteration # 19     ecut=    40.00 Ry     beta= 0.50
     Davidson diagonalization with overlap
     ethr =  1.07E-08,  avg # of iterations =  2.0

     total cpu time spent up to now is        1.3 secs

     total energy              =     -66.90367807 Ry
     estimated scf accuracy    <       0.00000015 Ry

     total magnetization       =     0.15 Bohr mag/cell
     absolute magnetization    =     0.16 Bohr mag/cell

     iteration # 20     ecut=    40.00 Ry     beta= 0.50
     Davidson diagonalization with overlap
     ethr =  1.34E-09,  avg # of iterations =  2.1

     total cpu time spent up to now is        1.4 secs

     total energy              =     -66.90363974 Ry
     estimated scf accuracy    <       0.00000115 Ry

     total magnetization       =     0.14 Bohr mag/cell
     absolute magnetization    =     0.15 Bohr mag/cell

     iteration # 21     ecut=    40.00 Ry     beta= 0.50
     Davidson diagonalization with overlap
     ethr =  1.34E-09,  avg # of iterations =  3.0
     Minimization algorithm failed to find Fermi energy: reverting to bisection
     Possible cause: smearing is larger than the electronic band-gap.

     total cpu time spent up to now is        1.4 secs

     total energy              =     -66.90368094 Ry
     estimated scf accuracy    <       0.00000406 Ry

     total magnetization       =     0.17 Bohr mag/cell
     absolute magnetization    =     0.18 Bohr mag/cell

     iteration # 22     ecut=    40.00 Ry     beta= 0.50
     Davidson diagonalization with overlap
     ethr =  1.34E-09,  avg # of iterations =  2.0

     total cpu time spent up to now is        1.5 secs

     total energy              =     -66.90364351 Ry
     estimated scf accuracy    <       0.00000231 Ry

     total magnetization       =     0.17 Bohr mag/cell
     absolute magnetization    =     0.18 Bohr mag/cell

     iteration # 23     ecut=    40.00 Ry     beta= 0.50
     Davidson diagonalization with overlap
     ethr =  1.34E-09,  avg # of iterations =  3.0

     total cpu time spent up to now is        1.5 secs

     total energy              =     -66.90367959 Ry
     estimated scf accuracy    <       0.00000176 Ry

     total magnetization       =     0.14 Bohr mag/cell
     absolute magnetization    =     0.14 Bohr mag/cell

     iteration # 24     ecut=    40.00 Ry     beta= 0.50
     Davidson diagonalization with overlap
     ethr =  1.34E-09,  avg # of iterations =  1.4

     total cpu time spent up to now is        1.6 secs

     total energy              =     -66.90368128 Ry
     estimated scf accuracy    <       0.00000154 Ry

     total magnetization       =     0.14 Bohr mag/cell
     absolute magnetization    =     0.15 Bohr mag/cell

     iteration # 25     ecut=    40.00 Ry     beta= 0.50
     Davidson diagonalization with overlap
     ethr =  1.34E-09,  avg # of iterations =  2.0

     total cpu time spent up to now is        1.6 secs

     total energy              =     -66.90368331 Ry
     estimated scf accuracy    <       0.00000125 Ry

     total magnetization       =     0.14 Bohr mag/cell
     absolute magnetization    =     0.15 Bohr mag/cell

     iteration # 26     ecut=    40.00 Ry     beta= 0.50
     Davidson diagonalization with overlap
     ethr =  1.34E-09,  avg # of iterations =  2.0

     total cpu time spent up to now is        1.6 secs

     total energy              =     -66.90368408 Ry
     estimated scf accuracy    <       0.00000082 Ry

     total magnetization       =     0.15 Bohr mag/cell
     absolute magnetization    =     0.15 Bohr mag/cell

     iteration # 27     ecut=    40.00 Ry     beta= 0.50
     Davidson diagonalization with overlap
     ethr =  1.34E-09,  avg # of iterations =  2.0

     Magnetic moment per site  (integrated on atomic sphere of radius R)
     atom   1 (R=0.413)  charge=  9.2850  magn=  0.1578

     total cpu time spent up to now is        1.7 secs

     End of self-consistent calculation

 ------ SPIN UP ------------


          k = 0.0000 0.0000 0.0000 (   459 PWs)   bands (ev):

     6.3838  11.8937  11.8937  11.8937  13.5534  13.5534  33.5698  37.3908
    37.3908  37.3908

          k = 0.2357 0.2357-0.2357 (   468 PWs)   bands (ev):

     8.9030  12.0499  12.0499  12.6843  14.2512  14.2512  25.2297  33.5700
    36.9827  36.9827

          k = 0.4714 0.0000 0.0000 (   452 PWs)   bands (ev):

     9.5330  10.1266  13.7120  14.1491  14.1491  14.4995  29.5947  30.1485
    30.1485  34.1582

          k =-0.0000-0.4714 0.4714 (   456 PWs)   bands (ev):

    10.2754  11.1529  12.1183  13.4296  14.4298  19.5682  23.7479  24.4758
    32.0796  35.1226

 ------ SPIN DOWN ----------


          k = 0.0000 0.0000 0.0000 (   459 PWs)   bands (ev):

     6.4165  12.0254  12.0254  12.0254  13.7273  13.7273  33.5740  37.4192
    37.4192  37.4192

          k = 0.2357 0.2357-0.2357 (   468 PWs)   bands (ev):

     8.9692  12.1939  12.1939  12.7605  14.4154  14.4154  25.3028  33.5794
    37.0344  37.0344

          k = 0.4714 0.0000 0.0000 (   452 PWs)   bands (ev):

     9.6223  10.2403  13.7957  14.2951  14.2951  14.6820  29.6711  30.1928
    30.1928  34.2123

          k =-0.0000-0.4714 0.4714 (   456 PWs)   bands (ev):

    10.3904  11.2642  12.2302  13.5960  14.5811  19.6488  23.8176  24.5618
    32.1332  35.1692

     the Fermi energy is    14.7057 ev

!    total energy              =     -66.90368742 Ry
     estimated scf accuracy    <       0.00000006 Ry
     smearing contrib. (-TS)   =       0.00107479 Ry
     internal energy E=F+TS    =     -66.90476221 Ry

     The total energy is F=E-TS. E is the sum of the following terms:
     one-electron contribution =      10.18355852 Ry
     hartree contribution      =       6.78857083 Ry
     xc contribution           =     -10.48420468 Ry
     ewald contribution        =     -73.39268687 Ry

     total magnetization       =     0.15 Bohr mag/cell
     absolute magnetization    =     0.16 Bohr mag/cell

     convergence has been achieved in  27 iterations

     Forces acting on atoms (cartesian axes, Ry/au):

     atom    1 type  1   force =     0.00000000    0.00000000    0.00000000
     The non-local contrib.  to forces
     atom    1 type  1   force =     0.00000000    0.00000000    0.00000000
     The ionic contribution  to forces
     atom    1 type  1   force =    -0.00000000   -0.00000000   -0.00000000
     The local contribution  to forces
     atom    1 type  1   force =     0.00000000    0.00000000    0.00000000
     The core correction contribution to forces
     atom    1 type  1   force =     0.00000000    0.00000000    0.00000000
     The Hubbard contrib.    to forces
     atom    1 type  1   force =     0.00000000    0.00000000    0.00000000
     The SCF correction term to forces
     atom    1 type  1   force =     0.00000000    0.00000000    0.00000000

     Total force =     0.000000     Total SCF correction =     0.000000


     Computing stress (Cartesian axis) and pressure

          total   stress  (Ry/bohr**3)                   (kbar)     P=        9.22
   0.00006266   0.00000000   0.00000000            9.22        0.00        0.00
   0.00000000   0.00006266   0.00000000            0.00        9.22        0.00
   0.00000000   0.00000000   0.00006266            0.00        0.00        9.22


     BFGS Geometry Optimization
     Energy error            =      0.0E+00 Ry
     Gradient error          =      0.0E+00 Ry/Bohr
     Cell gradient error     =      9.2E+00 kbar

     number of scf cycles    =   1
     number of bfgs steps    =   0

     enthalpy           new  =     -66.9036874198 Ry

     new trust radius        =       0.0032556813 bohr
     new conv_thr            =       0.0000001000 Ry

     new unit-cell volume =    108.48160 a.u.^3 (    16.07531 Ang^3 )
     density =     20.34615 g/cm^3

CELL_PARAMETERS (angstrom)
   0.000000000   2.003133167   2.003133167
   2.003133167   0.000000000   2.003133167
   2.003133167   2.003133167   0.000000000

ATOMIC_POSITIONS (angstrom)
Au            0.0000000000        0.0000000000        0.0000000000



     Writing config-only to output data dir /home/gridsan/epan1/labutil/lab3_samples/problem3/Lab3/Au_a_4.0_ecut_40_nk_3/pwscf.save/
     NEW-OLD atomic charge density approx. for the potential
     extrapolated charge   11.05154, renormalised to   11.00000
     Generating pointlists ...

     total cpu time spent up to now is        2.0 secs

     Self-consistent Calculation

     iteration #  1     ecut=    40.00 Ry     beta= 0.50
     Davidson diagonalization with overlap
     ethr =  1.00E-06,  avg # of iterations =  2.0

     total cpu time spent up to now is        2.1 secs

     total energy              =     -66.90332632 Ry
     estimated scf accuracy    <       0.00032212 Ry

     total magnetization       =     0.16 Bohr mag/cell
     absolute magnetization    =     0.16 Bohr mag/cell

     iteration #  2     ecut=    40.00 Ry     beta= 0.50
     Davidson diagonalization with overlap
     ethr =  2.93E-06,  avg # of iterations =  2.0

     total cpu time spent up to now is        2.1 secs

     total energy              =     -66.90370925 Ry
     estimated scf accuracy    <       0.00032286 Ry

     total magnetization       =     0.16 Bohr mag/cell
     absolute magnetization    =     0.17 Bohr mag/cell

     iteration #  3     ecut=    40.00 Ry     beta= 0.50
     Davidson diagonalization with overlap
     ethr =  2.93E-06,  avg # of iterations =  1.0

     total cpu time spent up to now is        2.1 secs

     total energy              =     -66.90369968 Ry
     estimated scf accuracy    <       0.00007045 Ry

     total magnetization       =     0.16 Bohr mag/cell
     absolute magnetization    =     0.17 Bohr mag/cell

     iteration #  4     ecut=    40.00 Ry     beta= 0.50
     Davidson diagonalization with overlap
     ethr =  6.40E-07,  avg # of iterations =  1.0

     total cpu time spent up to now is        2.2 secs

     total energy              =     -66.90369792 Ry
     estimated scf accuracy    <       0.00000993 Ry

     total magnetization       =     0.16 Bohr mag/cell
     absolute magnetization    =     0.17 Bohr mag/cell

     iteration #  5     ecut=    40.00 Ry     beta= 0.50
     Davidson diagonalization with overlap
     ethr =  9.03E-08,  avg # of iterations =  2.0

     total cpu time spent up to now is        2.2 secs

     total energy              =     -66.90370320 Ry
     estimated scf accuracy    <       0.00000347 Ry

     total magnetization       =     0.16 Bohr mag/cell
     absolute magnetization    =     0.17 Bohr mag/cell

     iteration #  6     ecut=    40.00 Ry     beta= 0.50
     Davidson diagonalization with overlap
     ethr =  3.16E-08,  avg # of iterations =  1.0

     total cpu time spent up to now is        2.3 secs

     total energy              =     -66.90370007 Ry
     estimated scf accuracy    <       0.00000428 Ry

     total magnetization       =     0.16 Bohr mag/cell
     absolute magnetization    =     0.17 Bohr mag/cell

     iteration #  7     ecut=    40.00 Ry     beta= 0.50
     Davidson diagonalization with overlap
     ethr =  3.16E-08,  avg # of iterations =  2.0

     total cpu time spent up to now is        2.3 secs

     total energy              =     -66.90370176 Ry
     estimated scf accuracy    <       0.00000136 Ry

     total magnetization       =     0.16 Bohr mag/cell
     absolute magnetization    =     0.17 Bohr mag/cell

     iteration #  8     ecut=    40.00 Ry     beta= 0.50
     Davidson diagonalization with overlap
     ethr =  1.24E-08,  avg # of iterations =  1.0

     total cpu time spent up to now is        2.4 secs

     total energy              =     -66.90370157 Ry
     estimated scf accuracy    <       0.00000044 Ry

     total magnetization       =     0.16 Bohr mag/cell
     absolute magnetization    =     0.17 Bohr mag/cell

     iteration #  9     ecut=    40.00 Ry     beta= 0.50
     Davidson diagonalization with overlap
     ethr =  3.99E-09,  avg # of iterations =  2.0

     Magnetic moment per site  (integrated on atomic sphere of radius R)
     atom   1 (R=0.413)  charge=  9.2785  magn=  0.1613

     total cpu time spent up to now is        2.4 secs

     End of self-consistent calculation

 ------ SPIN UP ------------


          k = 0.0000 0.0000 0.0000 (   459 PWs)   bands (ev):

     6.3208  11.8037  11.8037  11.8037  13.4492  13.4492  33.4446  37.2359
    37.2359  37.2359

          k = 0.2353 0.2353-0.2353 (   468 PWs)   bands (ev):

     8.8318  11.9589  11.9589  12.5938  14.1419  14.1419  25.0823  33.4412
    36.8065  36.8065

          k = 0.4707 0.0000 0.0000 (   452 PWs)   bands (ev):

     9.4604  10.0508  13.6145  14.0413  14.0413  14.3874  29.4281  29.9992
    29.9992  34.0005

          k =-0.0000-0.4707 0.4707 (   456 PWs)   bands (ev):

    10.1984  11.0710  12.0286  13.3277  14.3192  19.4390  23.6084  24.3292
    31.9201  34.9657

 ------ SPIN DOWN ----------


          k = 0.0000 0.0000 0.0000 (   459 PWs)   bands (ev):

     6.3547  11.9405  11.9405  11.9405  13.6293  13.6293  33.4488  37.2653
    37.2653  37.2653

          k = 0.2353 0.2353-0.2353 (   468 PWs)   bands (ev):

     8.9004  12.1082  12.1082  12.6731  14.3121  14.3121  25.1580  33.4508
    36.8600  36.8600

          k = 0.4707 0.0000 0.0000 (   452 PWs)   bands (ev):

     9.5529  10.1689  13.7012  14.1929  14.1929  14.5764  29.5070  30.0450
    30.0450  34.0564

          k =-0.0000-0.4707 0.4707 (   456 PWs)   bands (ev):

    10.3177  11.1866  12.1449  13.5000  14.4763  19.5225  23.6805  24.4180
    31.9755  35.0138

     the Fermi energy is    14.5996 ev

!    total energy              =     -66.90370165 Ry
     estimated scf accuracy    <          1.2E-09 Ry
     smearing contrib. (-TS)   =       0.00108460 Ry
     internal energy E=F+TS    =     -66.90478625 Ry

     The total energy is F=E-TS. E is the sum of the following terms:
     one-electron contribution =      10.02426903 Ry
     hartree contribution      =       6.82870195 Ry
     xc contribution           =     -10.47986631 Ry
     ewald contribution        =     -73.27789093 Ry

     total magnetization       =     0.16 Bohr mag/cell
     absolute magnetization    =     0.17 Bohr mag/cell

     convergence has been achieved in   9 iterations

     Forces acting on atoms (cartesian axes, Ry/au):

     atom    1 type  1   force =     0.00000000    0.00000000    0.00000000
     The non-local contrib.  to forces
     atom    1 type  1   force =    -0.00000000   -0.00000000    0.00000000
     The ionic contribution  to forces
     atom    1 type  1   force =    -0.00000000   -0.00000000   -0.00000000
     The local contribution  to forces
     atom    1 type  1   force =     0.00000000    0.00000000    0.00000000
     The core correction contribution to forces
     atom    1 type  1   force =     0.00000000    0.00000000    0.00000000
     The Hubbard contrib.    to forces
     atom    1 type  1   force =     0.00000000    0.00000000    0.00000000
     The SCF correction term to forces
     atom    1 type  1   force =     0.00000000    0.00000000    0.00000000

     Total force =     0.000000     Total SCF correction =     0.000000


     Computing stress (Cartesian axis) and pressure

          total   stress  (Ry/bohr**3)                   (kbar)     P=       -0.68
  -0.00000461   0.00000000   0.00000000           -0.68        0.00        0.00
   0.00000000  -0.00000461   0.00000000            0.00       -0.68        0.00
   0.00000000   0.00000000  -0.00000461            0.00        0.00       -0.68

     Energy error            =      1.4E-05 Ry
     Gradient error          =      0.0E+00 Ry/Bohr
     Cell gradient error     =      6.8E-01 kbar

     number of scf cycles    =   2
     number of bfgs steps    =   1

     enthalpy           old  =     -66.9036874198 Ry
     enthalpy           new  =     -66.9037016475 Ry

     CASE: enthalpy          _new < enthalpy          _old

     new trust radius        =       0.0002239174 bohr
     new conv_thr            =       0.0000000010 Ry

     new unit-cell volume =    108.44662 a.u.^3 (    16.07013 Ang^3 )
     density =     20.35271 g/cm^3

CELL_PARAMETERS (angstrom)
   0.000000000   2.002917845   2.002917845
   2.002917845   0.000000000   2.002917845
   2.002917845   2.002917845   0.000000000

ATOMIC_POSITIONS (angstrom)
Au            0.0000000000        0.0000000000        0.0000000000



     Writing config-only to output data dir /home/gridsan/epan1/labutil/lab3_samples/problem3/Lab3/Au_a_4.0_ecut_40_nk_3/pwscf.save/
     NEW-OLD atomic charge density approx. for the potential
     extrapolated charge   10.99645, renormalised to   11.00000
     Generating pointlists ...

     total cpu time spent up to now is        2.6 secs

     Self-consistent Calculation

     iteration #  1     ecut=    40.00 Ry     beta= 0.50
     Davidson diagonalization with overlap
     ethr =  1.00E-06,  avg # of iterations =  2.0

     Threshold (ethr) on eigenvalues was too large:
     Diagonalizing with lowered threshold

     Davidson diagonalization with overlap
     ethr =  1.30E-08,  avg # of iterations =  1.0

     total cpu time spent up to now is        2.7 secs

     total energy              =     -66.90370008 Ry
     estimated scf accuracy    <       0.00000144 Ry

     total magnetization       =     0.16 Bohr mag/cell
     absolute magnetization    =     0.17 Bohr mag/cell

     iteration #  2     ecut=    40.00 Ry     beta= 0.50
     Davidson diagonalization with overlap
     ethr =  1.31E-08,  avg # of iterations =  2.0

     total cpu time spent up to now is        2.7 secs

     total energy              =     -66.90370185 Ry
     estimated scf accuracy    <       0.00000152 Ry

     total magnetization       =     0.16 Bohr mag/cell
     absolute magnetization    =     0.17 Bohr mag/cell

     iteration #  3     ecut=    40.00 Ry     beta= 0.50
     Davidson diagonalization with overlap
     ethr =  1.31E-08,  avg # of iterations =  1.0

     total cpu time spent up to now is        2.8 secs

     total energy              =     -66.90370181 Ry
     estimated scf accuracy    <       0.00000034 Ry

     total magnetization       =     0.16 Bohr mag/cell
     absolute magnetization    =     0.17 Bohr mag/cell

     iteration #  4     ecut=    40.00 Ry     beta= 0.50
     Davidson diagonalization with overlap
     ethr =  3.11E-09,  avg # of iterations =  1.0

     total cpu time spent up to now is        2.8 secs

     total energy              =     -66.90370180 Ry
     estimated scf accuracy    <       0.00000007 Ry

     total magnetization       =     0.16 Bohr mag/cell
     absolute magnetization    =     0.17 Bohr mag/cell

     iteration #  5     ecut=    40.00 Ry     beta= 0.50
     Davidson diagonalization with overlap
     ethr =  6.65E-10,  avg # of iterations =  1.0

     total cpu time spent up to now is        2.9 secs

     total energy              =     -66.90370180 Ry
     estimated scf accuracy    <       0.00000001 Ry

     total magnetization       =     0.16 Bohr mag/cell
     absolute magnetization    =     0.17 Bohr mag/cell

     iteration #  6     ecut=    40.00 Ry     beta= 0.50
     Davidson diagonalization with overlap
     ethr =  9.14E-11,  avg # of iterations =  2.0

     total cpu time spent up to now is        2.9 secs

     total energy              =     -66.90370181 Ry
     estimated scf accuracy    <          6.0E-09 Ry

     total magnetization       =     0.16 Bohr mag/cell
     absolute magnetization    =     0.17 Bohr mag/cell

     iteration #  7     ecut=    40.00 Ry     beta= 0.50
     Davidson diagonalization with overlap
     ethr =  5.43E-11,  avg # of iterations =  1.0

     total cpu time spent up to now is        2.9 secs

     total energy              =     -66.90370181 Ry
     estimated scf accuracy    <          1.3E-09 Ry

     total magnetization       =     0.16 Bohr mag/cell
     absolute magnetization    =     0.17 Bohr mag/cell

     iteration #  8     ecut=    40.00 Ry     beta= 0.50
     Davidson diagonalization with overlap
     ethr =  1.21E-11,  avg # of iterations =  2.0

     Magnetic moment per site  (integrated on atomic sphere of radius R)
     atom   1 (R=0.413)  charge=  9.2789  magn=  0.1613

     total cpu time spent up to now is        3.0 secs

     End of self-consistent calculation

 ------ SPIN UP ------------


          k = 0.0000 0.0000 0.0000 (   459 PWs)   bands (ev):

     6.3251  11.8099  11.8099  11.8099  13.4563  13.4563  33.4531  37.2465
    37.2465  37.2465

          k = 0.2354 0.2354-0.2354 (   468 PWs)   bands (ev):

     8.8366  11.9651  11.9651  12.6000  14.1494  14.1494  25.0924  33.4500
    36.8186  36.8186

          k = 0.4707 0.0000 0.0000 (   452 PWs)   bands (ev):

     9.4654  10.0560  13.6211  14.0487  14.0487  14.3951  29.4395  30.0094
    30.0094  34.0113

          k =-0.0000-0.4707 0.4707 (   456 PWs)   bands (ev):

    10.2037  11.0766  12.0348  13.3347  14.3268  19.4479  23.6180  24.3392
    31.9310  34.9764

 ------ SPIN DOWN ----------


          k = 0.0000 0.0000 0.0000 (   459 PWs)   bands (ev):

     6.3589  11.9466  11.9466  11.9466  13.6364  13.6364  33.4574  37.2759
    37.2759  37.2759

          k = 0.2354 0.2354-0.2354 (   468 PWs)   bands (ev):

     8.9052  12.1144  12.1144  12.6792  14.3196  14.3196  25.1680  33.4596
    36.8720  36.8720

          k = 0.4707 0.0000 0.0000 (   452 PWs)   bands (ev):

     9.5579  10.1741  13.7078  14.2003  14.2003  14.5841  29.5184  30.0552
    30.0552  34.0671

          k =-0.0000-0.4707 0.4707 (   456 PWs)   bands (ev):

    10.3229  11.1921  12.1510  13.5069  14.4839  19.5313  23.6900  24.4280
    31.9863  35.0245

     the Fermi energy is    14.6072 ev

!    total energy              =     -66.90370181 Ry
     estimated scf accuracy    <          3.6E-10 Ry
     smearing contrib. (-TS)   =       0.00108411 Ry
     internal energy E=F+TS    =     -66.90478591 Ry

     The total energy is F=E-TS. E is the sum of the following terms:
     one-electron contribution =      10.03531879 Ry
     hartree contribution      =       6.82579352 Ry
     xc contribution           =     -10.48012960 Ry
     ewald contribution        =     -73.28576863 Ry

     total magnetization       =     0.16 Bohr mag/cell
     absolute magnetization    =     0.17 Bohr mag/cell

     convergence has been achieved in   8 iterations

     Forces acting on atoms (cartesian axes, Ry/au):

     atom    1 type  1   force =     0.00000000    0.00000000    0.00000000
     The non-local contrib.  to forces
     atom    1 type  1   force =     0.00000000    0.00000000   -0.00000000
     The ionic contribution  to forces
     atom    1 type  1   force =    -0.00000000   -0.00000000   -0.00000000
     The local contribution  to forces
     atom    1 type  1   force =     0.00000000    0.00000000    0.00000000
     The core correction contribution to forces
     atom    1 type  1   force =     0.00000000    0.00000000    0.00000000
     The Hubbard contrib.    to forces
     atom    1 type  1   force =     0.00000000    0.00000000    0.00000000
     The SCF correction term to forces
     atom    1 type  1   force =     0.00000000    0.00000000    0.00000000

     Total force =     0.000000     Total SCF correction =     0.000000


     Computing stress (Cartesian axis) and pressure

          total   stress  (Ry/bohr**3)                   (kbar)     P=       -0.49
  -0.00000332   0.00000000   0.00000000           -0.49        0.00        0.00
   0.00000000  -0.00000332   0.00000000            0.00       -0.49        0.00
   0.00000000   0.00000000  -0.00000332            0.00        0.00       -0.49

     Energy error            =      1.6E-07 Ry
     Gradient error          =      0.0E+00 Ry/Bohr
     Cell gradient error     =      4.9E-01 kbar

     bfgs converged in   3 scf cycles and   2 bfgs steps
     (criteria: energy <  1.0E-04 Ry, force <  1.0E-03 Ry/Bohr, cell <  5.0E-01 kbar)

     End of BFGS Geometry Optimization

     Final enthalpy           =     -66.9037018055 Ry

     File /home/gridsan/epan1/labutil/lab3_samples/problem3/Lab3/Au_a_4.0_ecut_40_nk_3/pwscf.bfgs deleted, as requested
Begin final coordinates
     new unit-cell volume =    108.44662 a.u.^3 (    16.07013 Ang^3 )
     density =     20.35271 g/cm^3

CELL_PARAMETERS (angstrom)
   0.000000000   2.002917845   2.002917845
   2.002917845   0.000000000   2.002917845
   2.002917845   2.002917845   0.000000000

ATOMIC_POSITIONS (angstrom)
Au            0.0000000000        0.0000000000        0.0000000000
End final coordinates



     Writing config-only to output data dir /home/gridsan/epan1/labutil/lab3_samples/problem3/Lab3/Au_a_4.0_ecut_40_nk_3/pwscf.save/

     Final scf calculation at the relaxed structure.
     The G-vectors are recalculated for the final unit cell
     Results may differ from those at the preceding step.

     Parallelization info
     --------------------
     sticks:   dense  smooth     PW     G-vecs:    dense   smooth      PW
     Min          79      39     12                 1309      464      80
     Max          80      40     13                 1312      466      81
     Sum         637     313     97                10489     3719     645

     Using Slab Decomposition



     bravais-lattice index     =            0
     lattice parameter (alat)  =       5.3450  a.u.
     unit-cell volume          =     108.4466 (a.u.)^3
     number of atoms/cell      =            1
     number of atomic types    =            1
     number of electrons       =        11.00
     number of Kohn-Sham states=           10
     kinetic-energy cutoff     =      40.0000  Ry
     charge density cutoff     =     320.0000  Ry
     scf convergence threshold =      1.0E-09
     mixing beta               =       0.5000
     number of iterations used =            8  plain     mixing
     press convergence thresh. =      5.0E-01
     Exchange-correlation=  SLA  PZ   NOGX NOGC
                           (   1   1   0   0   0   0   0)

     celldm(1)=   5.344953  celldm(2)=   0.000000  celldm(3)=   0.000000
     celldm(4)=   0.000000  celldm(5)=   0.000000  celldm(6)=   0.000000

     crystal axes: (cart. coord. in units of alat)
               a(1) = (   0.000000   0.708138   0.708138 )  
               a(2) = (   0.708138   0.000000   0.708138 )  
               a(3) = (   0.708138   0.708138   0.000000 )  

     reciprocal axes: (cart. coord. in units 2 pi/alat)
               b(1) = ( -0.706077  0.706077  0.706077 )  
               b(2) = (  0.706077 -0.706077  0.706077 )  
               b(3) = (  0.706077  0.706077 -0.706077 )  


     PseudoPot. # 1 for Au read from file:
     /home/gridsan/epan1/labutil/lab3_samples/pseudopotentials/Au.pz-d-rrkjus.UPF
     MD5 check sum: 424ffd4ac9c90487cbadcd287136c95b
     Pseudo is Ultrasoft, Zval = 11.0
     Generated by new atomic code, or converted to UPF format
     Using radial grid of 1279 points,  3 beta functions with: 
                l(1) =   2
                l(2) =   2
                l(3) =   1
     Q(r) pseudized with 0 coefficients 


     atomic species   valence    mass     pseudopotential
        Au            11.00   196.96657     Au( 1.00)

     Starting magnetic structure 
     atomic species   magnetization
        Au           0.017

     48 Sym. Ops., with inversion, found



   Cartesian axes

     site n.     atom                  positions (alat units)
         1           Au  tau(   1) = (   0.0000000   0.0000000   0.0000000  )

     number of k points=     4  Methfessel-Paxton smearing, width (Ry)=  0.0200
                       cart. coord. in units 2pi/alat
        k(    1) = (   0.0000000   0.0000000   0.0000000), wk =   0.0370370
        k(    2) = (   0.2353589   0.2353589  -0.2353589), wk =   0.2962963
        k(    3) = (   0.4707178   0.0000000   0.0000000), wk =   0.2222222
        k(    4) = (  -0.0000000  -0.4707178   0.4707178), wk =   0.4444444

     Dense  grid:    10489 G-vectors     FFT dimensions: (  32,  32,  32)

     Smooth grid:     3719 G-vectors     FFT dimensions: (  24,  24,  24)

     Estimated max dynamical RAM per process >       4.74 MB

     Estimated total dynamical RAM >      37.95 MB
     Generating pointlists ...

     Initial potential from superposition of free atoms

     starting charge      10.9999, renormalised to      11.0000
     Starting wfcs are    9 randomized atomic wfcs +    1 random wfcs

     total cpu time spent up to now is        3.3 secs

     Self-consistent Calculation

     iteration #  1     ecut=    40.00 Ry     beta= 0.50
     Davidson diagonalization with overlap
     ethr =  1.00E-06,  avg # of iterations = 11.2

     total cpu time spent up to now is        3.4 secs

     total energy              =     -66.88511911 Ry
     estimated scf accuracy    <       0.08268084 Ry

     total magnetization       =     0.14 Bohr mag/cell
     absolute magnetization    =     0.14 Bohr mag/cell

     iteration #  2     ecut=    40.00 Ry     beta= 0.50
     Davidson diagonalization with overlap
     ethr =  7.52E-04,  avg # of iterations =  2.0

     total cpu time spent up to now is        3.4 secs

     total energy              =     -66.90353737 Ry
     estimated scf accuracy    <       0.00121569 Ry

     total magnetization       =     0.15 Bohr mag/cell
     absolute magnetization    =     0.15 Bohr mag/cell

     iteration #  3     ecut=    40.00 Ry     beta= 0.50
     Davidson diagonalization with overlap
     ethr =  1.11E-05,  avg # of iterations =  1.8

     total cpu time spent up to now is        3.5 secs

     total energy              =     -66.90369603 Ry
     estimated scf accuracy    <       0.00013308 Ry

     total magnetization       =     0.15 Bohr mag/cell
     absolute magnetization    =     0.15 Bohr mag/cell

     iteration #  4     ecut=    40.00 Ry     beta= 0.50
     Davidson diagonalization with overlap
     ethr =  1.21E-06,  avg # of iterations =  1.2

     total cpu time spent up to now is        3.5 secs

     total energy              =     -66.90369981 Ry
     estimated scf accuracy    <       0.00000278 Ry

     total magnetization       =     0.15 Bohr mag/cell
     absolute magnetization    =     0.16 Bohr mag/cell

     iteration #  5     ecut=    40.00 Ry     beta= 0.50
     Davidson diagonalization with overlap
     ethr =  2.52E-08,  avg # of iterations =  1.5

     total cpu time spent up to now is        3.6 secs

     total energy              =     -66.90370052 Ry
     estimated scf accuracy    <       0.00000081 Ry

     total magnetization       =     0.15 Bohr mag/cell
     absolute magnetization    =     0.16 Bohr mag/cell

     iteration #  6     ecut=    40.00 Ry     beta= 0.50
     Davidson diagonalization with overlap
     ethr =  7.39E-09,  avg # of iterations =  1.5

     total cpu time spent up to now is        3.6 secs

     total energy              =     -66.90370177 Ry
     estimated scf accuracy    <       0.00000020 Ry

     total magnetization       =     0.16 Bohr mag/cell
     absolute magnetization    =     0.17 Bohr mag/cell

     iteration #  7     ecut=    40.00 Ry     beta= 0.50
     Davidson diagonalization with overlap
     ethr =  1.80E-09,  avg # of iterations =  1.2

     total cpu time spent up to now is        3.7 secs

     total energy              =     -66.90370180 Ry
     estimated scf accuracy    <          1.3E-09 Ry

     total magnetization       =     0.16 Bohr mag/cell
     absolute magnetization    =     0.17 Bohr mag/cell

     iteration #  8     ecut=    40.00 Ry     beta= 0.50
     Davidson diagonalization with overlap
     ethr =  1.22E-11,  avg # of iterations =  2.0

     Magnetic moment per site  (integrated on atomic sphere of radius R)
     atom   1 (R=0.413)  charge=  9.2790  magn=  0.1613

     total cpu time spent up to now is        3.7 secs

     End of self-consistent calculation

 ------ SPIN UP ------------


          k = 0.0000 0.0000 0.0000 (   459 PWs)   bands (ev):

     6.3251  11.8097  11.8097  11.8097  13.4562  13.4562  33.4531  37.2465
    37.2465  37.2465

          k = 0.2354 0.2354-0.2354 (   468 PWs)   bands (ev):

     8.8366  11.9650  11.9650  12.5999  14.1493  14.1493  25.0924  33.4500
    36.8186  36.8186

          k = 0.4707 0.0000 0.0000 (   452 PWs)   bands (ev):

     9.4653  10.0559  13.6211  14.0485  14.0485  14.3949  29.4395  30.0094
    30.0094  34.0113

          k =-0.0000-0.4707 0.4707 (   456 PWs)   bands (ev):

    10.2036  11.0765  12.0347  13.3346  14.3266  19.4478  23.6179  24.3392
    31.9310  34.9764

 ------ SPIN DOWN ----------


          k = 0.0000 0.0000 0.0000 (   459 PWs)   bands (ev):

     6.3589  11.9466  11.9466  11.9466  13.6363  13.6363  33.4574  37.2758
    37.2758  37.2758

          k = 0.2354 0.2354-0.2354 (   468 PWs)   bands (ev):

     8.9052  12.1143  12.1143  12.6792  14.3195  14.3195  25.1680  33.4596
    36.8720  36.8720

          k = 0.4707 0.0000 0.0000 (   452 PWs)   bands (ev):

     9.5578  10.1741  13.7078  14.2002  14.2002  14.5840  29.5184  30.0552
    30.0552  34.0671

          k =-0.0000-0.4707 0.4707 (   456 PWs)   bands (ev):

    10.3229  11.1921  12.1510  13.5069  14.4838  19.5312  23.6900  24.4280
    31.9863  35.0245

     the Fermi energy is    14.6072 ev

!    total energy              =     -66.90370180 Ry
     estimated scf accuracy    <          1.1E-10 Ry
     smearing contrib. (-TS)   =       0.00108413 Ry
     internal energy E=F+TS    =     -66.90478593 Ry

     The total energy is F=E-TS. E is the sum of the following terms:
     one-electron contribution =      10.03526885 Ry
     hartree contribution      =       6.82585901 Ry
     xc contribution           =     -10.48014517 Ry
     ewald contribution        =     -73.28576863 Ry

     total magnetization       =     0.16 Bohr mag/cell
     absolute magnetization    =     0.17 Bohr mag/cell

     convergence has been achieved in   8 iterations

     Forces acting on atoms (cartesian axes, Ry/au):

     atom    1 type  1   force =     0.00000000    0.00000000    0.00000000
     The non-local contrib.  to forces
     atom    1 type  1   force =     0.00000000    0.00000000    0.00000000
     The ionic contribution  to forces
     atom    1 type  1   force =    -0.00000000   -0.00000000   -0.00000000
     The local contribution  to forces
     atom    1 type  1   force =     0.00000000    0.00000000    0.00000000
     The core correction contribution to forces
     atom    1 type  1   force =     0.00000000    0.00000000    0.00000000
     The Hubbard contrib.    to forces
     atom    1 type  1   force =     0.00000000    0.00000000    0.00000000
     The SCF correction term to forces
     atom    1 type  1   force =     0.00000000    0.00000000    0.00000000

     Total force =     0.000000     Total SCF correction =     0.000000


     Computing stress (Cartesian axis) and pressure

          total   stress  (Ry/bohr**3)                   (kbar)     P=       -0.27
  -0.00000185   0.00000000  -0.00000000           -0.27        0.00       -0.00
   0.00000000  -0.00000185  -0.00000000            0.00       -0.27       -0.00
  -0.00000000  -0.00000000  -0.00000185           -0.00       -0.00       -0.27


     init_run     :      0.50s CPU      0.48s WALL (       2 calls)
     electrons    :      2.72s CPU      2.41s WALL (       4 calls)
     update_pot   :      0.14s CPU      0.13s WALL (       2 calls)
     forces       :      0.13s CPU      0.14s WALL (       4 calls)
     stress       :      0.39s CPU      0.34s WALL (       4 calls)

     Called by init_run:
     wfcinit      :      0.01s CPU      0.02s WALL (       2 calls)
     potinit      :      0.16s CPU      0.16s WALL (       2 calls)
     hinit0       :      0.31s CPU      0.29s WALL (       2 calls)

     Called by electrons:
     c_bands      :      1.73s CPU      1.61s WALL (      53 calls)
     sum_band     :      0.59s CPU      0.48s WALL (      53 calls)
     v_of_rho     :      0.10s CPU      0.08s WALL (      56 calls)
     newd         :      0.17s CPU      0.14s WALL (      56 calls)
     mix_rho      :      0.07s CPU      0.05s WALL (      53 calls)

     Called by c_bands:
     init_us_2    :      0.03s CPU      0.03s WALL (     928 calls)
     init_us_2:cp :      0.03s CPU      0.03s WALL (     928 calls)
     cegterg      :      1.52s CPU      1.32s WALL (     424 calls)

     Called by *egterg:
     cdiaghg      :      0.25s CPU      0.22s WALL (    1234 calls)
     h_psi        :      1.06s CPU      0.92s WALL (    1274 calls)
     s_psi        :      0.01s CPU      0.01s WALL (    1274 calls)
     g_psi        :      0.00s CPU      0.00s WALL (     834 calls)

     Called by h_psi:
     h_psi:calbec :      0.06s CPU      0.06s WALL (    1274 calls)
     vloc_psi     :      0.97s CPU      0.85s WALL (    1274 calls)
     add_vuspsi   :      0.01s CPU      0.01s WALL (    1274 calls)

     General routines
     calbec       :      0.09s CPU      0.08s WALL (    1858 calls)
     fft          :      0.15s CPU      0.14s WALL (     624 calls)
     ffts         :      0.13s CPU      0.13s WALL (     218 calls)
     fftw         :      1.03s CPU      0.89s WALL (   25438 calls)
     interpolate  :      0.13s CPU      0.13s WALL (     112 calls)

     Parallel routines

     PWSCF        :      4.22s CPU      4.02s WALL


   This run was terminated on:  11: 6: 0   3Nov2023            

=------------------------------------------------------------------------------=
   JOB DONE.
=------------------------------------------------------------------------------=
