
     Program PWSCF v.7.2 starts on  2Nov2023 at 18: 2: 0 

     This program is part of the open-source Quantum ESPRESSO suite
     for quantum simulation of materials; please cite
         "P. Giannozzi et al., J. Phys.:Condens. Matter 21 395502 (2009);
         "P. Giannozzi et al., J. Phys.:Condens. Matter 29 465901 (2017);
         "P. Giannozzi et al., J. Chem. Phys. 152 154105 (2020);
          URL http://www.quantum-espresso.org", 
     in publications or presentations arising from this work. More details at
     http://www.quantum-espresso.org/quote

     Parallel version (MPI), running on     2 processors

     MPI processes distributed on     2 nodes
     187060 MiB available memory on the printing compute node when the environment starts

     Waiting for input...
     Reading input from standard input
Warning: card &CELL ignored
Warning: card / ignored

     Current dimensions of program PWSCF are:
     Max number of different atomic species (ntypx) = 10
     Max number of k-points (npk) =  40000
     Max angular momentum in pseudopotentials (lmaxx) =  4
     file O.pz-rrkjus.UPF: wavefunction(s)  2S renormalized
     Message from routine setup:
     using ibrav=0 with symmetry is DISCOURAGED, use correct ibrav instead

     R & G space division:  proc/nbgrp/npool/nimage =       2
     Subspace diagonalization in iterative solution of the eigenvalue problem:
     a serial algorithm will be used


     Parallelization info
     --------------------
     sticks:   dense  smooth     PW     G-vecs:    dense   smooth      PW
     Min         516     254     74                12418     4366     709
     Max         517     255     75                12419     4367     710
     Sum        1033     509    149                24837     8733    1419

     Using Slab Decomposition



     bravais-lattice index     =            0
     lattice parameter (alat)  =       7.3321  a.u.
     unit-cell volume          =     394.1775 (a.u.)^3
     number of atoms/cell      =            5
     number of atomic types    =            3
     number of electrons       =        44.00
     number of Kohn-Sham states=           22
     kinetic-energy cutoff     =      30.0000  Ry
     charge density cutoff     =     240.0000  Ry
     scf convergence threshold =      1.0E-07
     mixing beta               =       0.7000
     number of iterations used =            8  plain     mixing
     energy convergence thresh.=      1.0E-04
     force convergence thresh. =      1.0E-03
     Exchange-correlation= SLA  PZ   NOGX NOGC
                           (   1   1   0   0   0   0   0)
     nstep                     =           50


     celldm(1)=   7.332137  celldm(2)=   0.000000  celldm(3)=   0.000000
     celldm(4)=   0.000000  celldm(5)=   0.000000  celldm(6)=   0.000000

     crystal axes: (cart. coord. in units of alat)
               a(1) = (   1.000000   0.000000   0.000000 )  
               a(2) = (   0.000000   1.000000   0.000000 )  
               a(3) = (   0.000000   0.000000   1.000000 )  

     reciprocal axes: (cart. coord. in units 2 pi/alat)
               b(1) = (  1.000000  0.000000  0.000000 )  
               b(2) = (  0.000000  1.000000  0.000000 )  
               b(3) = (  0.000000  0.000000  1.000000 )  


     PseudoPot. # 1 for O  read from file:
     /home/gridsan/epan1/labutil/lab3_samples/pseudopotentials/O.pz-rrkjus.UPF
     MD5 check sum: 24fb942a68ef5d262e498166c462ef4a
     Pseudo is Ultrasoft, Zval =  6.0
     Generated by new atomic code, or converted to UPF format
     Using radial grid of 1269 points,  4 beta functions with: 
                l(1) =   0
                l(2) =   0
                l(3) =   1
                l(4) =   1
     Q(r) pseudized with 0 coefficients 


     PseudoPot. # 2 for Pb read from file:
     /home/gridsan/epan1/labutil/lab3_samples/pseudopotentials/Pb.pz-d-van.UPF
     MD5 check sum: 4e1e5920686a026ae26139ac417581ff
     Pseudo is Ultrasoft, Zval = 14.0
     Generated by new atomic code, or converted to UPF format
     Using radial grid of  899 points,  6 beta functions with: 
                l(1) =   0
                l(2) =   0
                l(3) =   1
                l(4) =   1
                l(5) =   2
                l(6) =   2
     Q(r) pseudized with  8 coefficients,  rinner =    1.000   1.000   1.000
                                                       1.000   1.000

     PseudoPot. # 3 for Ti read from file:
     /home/gridsan/epan1/labutil/lab3_samples/pseudopotentials/Ti.pz-sp-van_ak.UPF
     MD5 check sum: 545d0e6e05332b8871a8093f427cb0ca
     Pseudo is Ultrasoft, Zval = 12.0
     Generated by new atomic code, or converted to UPF format
     Using radial grid of  851 points,  6 beta functions with: 
                l(1) =   0
                l(2) =   0
                l(3) =   1
                l(4) =   1
                l(5) =   2
                l(6) =   2
     Q(r) pseudized with  8 coefficients,  rinner =    1.000   1.000   1.000
                                                       1.000   1.000

     atomic species   valence    mass     pseudopotential
        O              6.00    15.99900     O ( 1.00)
        Pb            14.00   207.20000     Pb( 1.00)
        Ti            12.00    47.86700     Ti( 1.00)

      8 Sym. Ops. (no inversion) found



   Cartesian axes

     site n.     atom                  positions (alat units)
         1           Pb  tau(   1) = (   0.0000000   0.0000000   0.0000000  )
         2           Ti  tau(   2) = (   0.5000000   0.5000000   0.4631572  )
         3           O   tau(   3) = (   0.0000000   0.5000000   0.5000000  )
         4           O   tau(   4) = (   0.5000000   0.0000000   0.5000000  )
         5           O   tau(   5) = (   0.5000000   0.5000000   0.0000000  )

     number of k points=     6
                       cart. coord. in units 2pi/alat
        k(    1) = (   0.1250000   0.1250000   0.1250000), wk =   0.2500000
        k(    2) = (   0.1250000   0.1250000   0.3750000), wk =   0.2500000
        k(    3) = (   0.1250000   0.3750000   0.3750000), wk =   0.5000000
        k(    4) = (   0.3750000   0.3750000   0.3750000), wk =   0.2500000
        k(    5) = (   0.3750000  -0.1250000   0.1250000), wk =   0.5000000
        k(    6) = (   0.3750000  -0.3750000   0.1250000), wk =   0.2500000

     Dense  grid:    24837 G-vectors     FFT dimensions: (  40,  40,  40)

     Smooth grid:     8733 G-vectors     FFT dimensions: (  25,  25,  25)

     Estimated max dynamical RAM per process >      51.66 MB

     Estimated total dynamical RAM >     103.32 MB

     Initial potential from superposition of free atoms

     starting charge      42.9982, renormalised to      44.0000
     Starting wfcs are   31 randomized atomic wfcs

     total cpu time spent up to now is        1.0 secs

     Self-consistent Calculation

     iteration #  1     ecut=    30.00 Ry     beta= 0.70
     Davidson diagonalization with overlap
     ethr =  1.00E-02,  avg # of iterations =  2.0

     total cpu time spent up to now is        1.3 secs

     total energy              =    -332.62508230 Ry
     estimated scf accuracy    <       1.08795435 Ry

     iteration #  2     ecut=    30.00 Ry     beta= 0.70
     Davidson diagonalization with overlap
     ethr =  2.47E-03,  avg # of iterations =  5.8

     total cpu time spent up to now is        1.7 secs

     total energy              =    -332.42338298 Ry
     estimated scf accuracy    <       3.84664080 Ry

     iteration #  3     ecut=    30.00 Ry     beta= 0.70
     Davidson diagonalization with overlap
     ethr =  2.47E-03,  avg # of iterations =  5.2

     total cpu time spent up to now is        2.0 secs

     total energy              =    -333.15590782 Ry
     estimated scf accuracy    <       0.21394511 Ry

     iteration #  4     ecut=    30.00 Ry     beta= 0.70
     Davidson diagonalization with overlap
     ethr =  4.86E-04,  avg # of iterations =  2.0

     total cpu time spent up to now is        2.3 secs

     total energy              =    -333.15259022 Ry
     estimated scf accuracy    <       0.05820740 Ry

     iteration #  5     ecut=    30.00 Ry     beta= 0.70
     Davidson diagonalization with overlap
     ethr =  1.32E-04,  avg # of iterations =  4.8

     total cpu time spent up to now is        2.7 secs

     total energy              =    -333.18078512 Ry
     estimated scf accuracy    <       0.02583937 Ry

     iteration #  6     ecut=    30.00 Ry     beta= 0.70
     Davidson diagonalization with overlap
     ethr =  5.87E-05,  avg # of iterations =  1.7

     total cpu time spent up to now is        2.9 secs

     total energy              =    -333.17800559 Ry
     estimated scf accuracy    <       0.01215887 Ry

     iteration #  7     ecut=    30.00 Ry     beta= 0.70
     Davidson diagonalization with overlap
     ethr =  2.76E-05,  avg # of iterations =  4.0

     total cpu time spent up to now is        3.2 secs

     total energy              =    -333.18060948 Ry
     estimated scf accuracy    <       0.00004440 Ry

     iteration #  8     ecut=    30.00 Ry     beta= 0.70
     Davidson diagonalization with overlap
     ethr =  1.01E-07,  avg # of iterations =  8.2

     total cpu time spent up to now is        3.7 secs

     total energy              =    -333.18078587 Ry
     estimated scf accuracy    <       0.00031920 Ry

     iteration #  9     ecut=    30.00 Ry     beta= 0.70
     Davidson diagonalization with overlap
     ethr =  1.01E-07,  avg # of iterations =  4.3

     total cpu time spent up to now is        4.0 secs

     total energy              =    -333.18076748 Ry
     estimated scf accuracy    <       0.00012069 Ry

     iteration # 10     ecut=    30.00 Ry     beta= 0.70
     Davidson diagonalization with overlap
     ethr =  1.01E-07,  avg # of iterations =  4.2

     total cpu time spent up to now is        4.3 secs

     total energy              =    -333.18077432 Ry
     estimated scf accuracy    <       0.00001271 Ry

     iteration # 11     ecut=    30.00 Ry     beta= 0.70
     Davidson diagonalization with overlap
     ethr =  2.89E-08,  avg # of iterations =  4.5

     total cpu time spent up to now is        4.6 secs

     total energy              =    -333.18077734 Ry
     estimated scf accuracy    <       0.00000017 Ry

     iteration # 12     ecut=    30.00 Ry     beta= 0.70
     Davidson diagonalization with overlap
     ethr =  3.85E-10,  avg # of iterations =  6.7

     total cpu time spent up to now is        5.0 secs

     total energy              =    -333.18077759 Ry
     estimated scf accuracy    <       0.00000062 Ry

     iteration # 13     ecut=    30.00 Ry     beta= 0.70
     Davidson diagonalization with overlap
     ethr =  3.85E-10,  avg # of iterations =  4.5

     total cpu time spent up to now is        5.3 secs

     End of self-consistent calculation

          k = 0.1250 0.1250 0.1250 (  1096 PWs)   bands (ev):

   -44.6239 -21.3095 -21.2249 -21.2240  -6.3681  -5.3338  -5.2522  -4.0509
    -4.0414  -4.0296  -3.8634  -3.8535   4.5785   7.2406   7.2855   8.0255
     8.9405   9.0410   9.6334   9.7898  10.0092  10.1135

          k = 0.1250 0.1250 0.3750 (  1095 PWs)   bands (ev):

   -44.6226 -21.3671 -21.2225 -21.2216  -5.9221  -5.1990  -5.1256  -4.1089
    -4.0463  -4.0242  -3.9513  -3.8355   3.8163   6.7729   7.1679   7.8086
     8.4493   8.5683   9.3793   9.8434  10.1373  10.8607

          k = 0.1250 0.3750 0.3750 (  1093 PWs)   bands (ev):

   -44.6214 -21.3638 -21.2776 -21.2201  -5.7108  -5.1049  -4.9744  -4.0828
    -4.0383  -3.9838  -3.8926  -3.7262   3.4782   6.6248   6.9315   7.1483
     7.4740   8.6744   9.3038   9.4838   9.9768  10.6226

          k = 0.3750 0.3750 0.3750 (  1082 PWs)   bands (ev):

   -44.6201 -21.3611 -21.2750 -21.2748  -5.3742  -5.2044  -5.1520  -3.9974
    -3.9864  -3.7090  -3.6403  -3.6161   4.1048   5.8600   5.9335   6.6473
     7.0731   7.1240   7.9291  10.5488  10.6080  10.7225

          k = 0.3750-0.1250 0.1250 (  1095 PWs)   bands (ev):

   -44.6227 -21.3072 -21.2810 -21.2221  -5.9817  -5.1943  -5.0971  -4.1045
    -4.0399  -4.0276  -3.9615  -3.8271   3.8515   6.8526   7.3250   7.8019
     8.3866   8.7511   9.2291   9.8516   9.9558  10.7769

          k = 0.3750-0.3750 0.1250 (  1093 PWs)   bands (ev):

   -44.6214 -21.3052 -21.2781 -21.2773  -5.8198  -5.0252  -4.9484  -4.0730
    -4.0349  -3.9737  -3.8885  -3.7647   3.5106   6.7975   6.8548   7.1100
     7.4142   8.6321   9.4390   9.4605   9.9566  10.7250

     highest occupied level (ev):    10.8607

!    total energy              =    -333.18077755 Ry
     estimated scf accuracy    <       0.00000010 Ry

     The total energy is the sum of the following terms:
     one-electron contribution =     -77.53048314 Ry
     hartree contribution      =      66.66933477 Ry
     xc contribution           =     -49.65582974 Ry
     ewald contribution        =    -272.66379943 Ry

     convergence has been achieved in  13 iterations

     Forces acting on atoms (cartesian axes, Ry/au):

     atom    1 type  2   force =     0.00000000    0.00000000   -0.01606230
     atom    2 type  3   force =     0.00000000    0.00000000    0.03798267
     atom    3 type  1   force =     0.00000000    0.00000000   -0.00092295
     atom    4 type  1   force =     0.00000000    0.00000000   -0.00092295
     atom    5 type  1   force =     0.00000000    0.00000000   -0.02007447
     The non-local contrib.  to forces
     atom    1 type  2   force =     0.00000000    0.00000000    0.00862342
     atom    2 type  3   force =     0.00000000    0.00000000   -0.02012527
     atom    3 type  1   force =     0.00000000    0.00000000   -0.08201347
     atom    4 type  1   force =     0.00000000    0.00000000   -0.08201347
     atom    5 type  1   force =     0.00000000    0.00000000    0.26974710
     The ionic contribution  to forces
     atom    1 type  2   force =     0.00000000    0.00000000   -0.95678008
     atom    2 type  3   force =    -0.00000000   -0.00000000    2.25766344
     atom    3 type  1   force =     0.00000000   -0.00000000    1.05767591
     atom    4 type  1   force =    -0.00000000    0.00000000    1.05767591
     atom    5 type  1   force =    -0.00000000   -0.00000000   -3.41623517
     The local contribution  to forces
     atom    1 type  2   force =    -0.00000000   -0.00000000    0.93213841
     atom    2 type  3   force =    -0.00000000   -0.00000000   -2.19954483
     atom    3 type  1   force =     0.00000000   -0.00000000   -0.97663759
     atom    4 type  1   force =    -0.00000000    0.00000000   -0.97663759
     atom    5 type  1   force =    -0.00000000   -0.00000000    3.12651946
     The core correction contribution to forces
     atom    1 type  2   force =     0.00000000    0.00000000    0.00000000
     atom    2 type  3   force =     0.00000000    0.00000000    0.00000000
     atom    3 type  1   force =     0.00000000    0.00000000    0.00000000
     atom    4 type  1   force =     0.00000000    0.00000000    0.00000000
     atom    5 type  1   force =     0.00000000    0.00000000    0.00000000
     The Hubbard contrib.    to forces
     atom    1 type  2   force =     0.00000000    0.00000000    0.00000000
     atom    2 type  3   force =     0.00000000    0.00000000    0.00000000
     atom    3 type  1   force =     0.00000000    0.00000000    0.00000000
     atom    4 type  1   force =     0.00000000    0.00000000    0.00000000
     atom    5 type  1   force =     0.00000000    0.00000000    0.00000000
     The SCF correction term to forces
     atom    1 type  2   force =     0.00000000    0.00000000   -0.00000000
     atom    2 type  3   force =    -0.00000000    0.00000000   -0.00000000
     atom    3 type  1   force =     0.00000000   -0.00000000    0.00005039
     atom    4 type  1   force =     0.00000000    0.00000000    0.00005039
     atom    5 type  1   force =    -0.00000000   -0.00000000   -0.00010767

     Total force =     0.020117     Total SCF correction =     0.000129


     Computing stress (Cartesian axis) and pressure

          total   stress  (Ry/bohr**3)                   (kbar)     P=       -8.06
  -0.00012751   0.00000000   0.00000000          -18.76        0.00        0.00
   0.00000000  -0.00012751   0.00000000            0.00      -18.76        0.00
   0.00000000   0.00000000   0.00009059            0.00        0.00       13.33


     BFGS Geometry Optimization
     Energy error            =      0.0E+00 Ry
     Gradient error          =      2.0E-02 Ry/Bohr

     number of scf cycles    =   1
     number of bfgs steps    =   0

     energy             new  =    -333.1807775513 Ry

     new trust radius        =       0.0200744696 bohr
     new conv_thr            =       0.0000001000 Ry


ATOMIC_POSITIONS (angstrom)
Pb            0.0000000000        0.0000000000        0.0000000000    0   0   0
Ti            1.9400000000        1.9400000000        1.7970500000    0   0   0
O             0.0000000000        1.9400000000        1.9395115981
O             1.9400000000        0.0000000000        1.9395115981
O             1.9400000000        1.9400000000       -0.0106229518



     Writing config-only to output data dir /home/gridsan/epan1/labutil/lab3_samples/problem2/Lab3/PbTiO3_a_3.88_ecut_30_nk_4_displ_-0.0368421052631579/pwscf.save/
     NEW-OLD atomic charge density approx. for the potential

     total cpu time spent up to now is        6.4 secs

     Self-consistent Calculation

     iteration #  1     ecut=    30.00 Ry     beta= 0.70
     Davidson diagonalization with overlap
     ethr =  1.00E-06,  avg # of iterations =  5.2

     total cpu time spent up to now is        6.8 secs

     total energy              =    -333.18108056 Ry
     estimated scf accuracy    <       0.00008880 Ry

     iteration #  2     ecut=    30.00 Ry     beta= 0.70
     Davidson diagonalization with overlap
     ethr =  2.02E-07,  avg # of iterations =  5.0

     total cpu time spent up to now is        7.1 secs

     total energy              =    -333.18108534 Ry
     estimated scf accuracy    <       0.00010130 Ry

     iteration #  3     ecut=    30.00 Ry     beta= 0.70
     Davidson diagonalization with overlap
     ethr =  2.02E-07,  avg # of iterations =  4.5

     total cpu time spent up to now is        7.5 secs

     total energy              =    -333.18110844 Ry
     estimated scf accuracy    <       0.00001477 Ry

     iteration #  4     ecut=    30.00 Ry     beta= 0.70
     Davidson diagonalization with overlap
     ethr =  3.36E-08,  avg # of iterations =  3.3

     total cpu time spent up to now is        7.8 secs

     total energy              =    -333.18111051 Ry
     estimated scf accuracy    <       0.00000098 Ry

     iteration #  5     ecut=    30.00 Ry     beta= 0.70
     Davidson diagonalization with overlap
     ethr =  2.23E-09,  avg # of iterations =  5.3

     total cpu time spent up to now is        8.1 secs

     total energy              =    -333.18111125 Ry
     estimated scf accuracy    <       0.00000050 Ry

     iteration #  6     ecut=    30.00 Ry     beta= 0.70
     Davidson diagonalization with overlap
     ethr =  1.14E-09,  avg # of iterations =  1.8

     total cpu time spent up to now is        8.4 secs

     total energy              =    -333.18111120 Ry
     estimated scf accuracy    <       0.00000018 Ry

     iteration #  7     ecut=    30.00 Ry     beta= 0.70
     Davidson diagonalization with overlap
     ethr =  4.20E-10,  avg # of iterations =  4.7

     total cpu time spent up to now is        8.7 secs

     End of self-consistent calculation

          k = 0.1250 0.1250 0.1250 (  1096 PWs)   bands (ev):

   -44.6387 -21.3120 -21.2401 -21.2393  -6.3697  -5.3301  -5.2566  -4.0473
    -4.0388  -4.0270  -3.8604  -3.8515   4.5813   7.2421   7.2816   8.0226
     8.9559   9.0519   9.6522   9.7910  10.0035  10.1170

          k = 0.1250 0.1250 0.3750 (  1095 PWs)   bands (ev):

   -44.6375 -21.3695 -21.2378 -21.2368  -5.9270  -5.1924  -5.1307  -4.1056
    -4.0427  -4.0217  -3.9493  -3.8324   3.8234   6.7734   7.1769   7.8017
     8.4501   8.5857   9.3777   9.8456  10.1315  10.8590

          k = 0.1250 0.3750 0.3750 (  1093 PWs)   bands (ev):

   -44.6362 -21.3661 -21.2927 -21.2354  -5.7151  -5.0985  -4.9781  -4.0795
    -4.0351  -3.9809  -3.8900  -3.7250   3.4827   6.6342   6.9252   7.1475
     7.4723   8.6705   9.3186   9.4800   9.9820  10.6267

          k = 0.3750 0.3750 0.3750 (  1082 PWs)   bands (ev):

   -44.6349 -21.3635 -21.2902 -21.2899  -5.3719  -5.2038  -5.1557  -3.9938
    -3.9840  -3.7052  -3.6380  -3.6157   4.1079   5.8679   5.9331   6.6450
     7.0717   7.1167   7.9334  10.5579  10.6145  10.7182

          k = 0.3750-0.1250 0.1250 (  1095 PWs)   bands (ev):

   -44.6375 -21.3097 -21.2961 -21.2374  -5.9810  -5.1927  -5.1016  -4.1016
    -4.0369  -4.0248  -3.9585  -3.8250   3.8544   6.8485   7.3265   7.8016
     8.3876   8.7518   9.2417   9.8556   9.9649  10.7813

          k = 0.3750-0.3750 0.1250 (  1093 PWs)   bands (ev):

   -44.6363 -21.3077 -21.2932 -21.2924  -5.8140  -5.0290  -4.9532  -4.0707
    -4.0320  -3.9717  -3.8864  -3.7600   3.5109   6.7941   6.8530   7.1199
     7.4240   8.6324   9.4413   9.4583   9.9577  10.7205

     highest occupied level (ev):    10.8590

!    total energy              =    -333.18111125 Ry
     estimated scf accuracy    <       0.00000006 Ry

     The total energy is the sum of the following terms:
     one-electron contribution =     -77.40271319 Ry
     hartree contribution      =      66.60056785 Ry
     xc contribution           =     -49.65132170 Ry
     ewald contribution        =    -272.72764421 Ry

     convergence has been achieved in   7 iterations

     Forces acting on atoms (cartesian axes, Ry/au):

     atom    1 type  2   force =     0.00000000    0.00000000   -0.01627153
     atom    2 type  3   force =     0.00000000    0.00000000    0.03427236
     atom    3 type  1   force =     0.00000000    0.00000000   -0.00265125
     atom    4 type  1   force =     0.00000000    0.00000000   -0.00265125
     atom    5 type  1   force =     0.00000000    0.00000000   -0.01269833
     The non-local contrib.  to forces
     atom    1 type  2   force =     0.00000000    0.00000000    0.00894555
     atom    2 type  3   force =     0.00000000    0.00000000   -0.01893721
     atom    3 type  1   force =     0.00000000    0.00000000   -0.08756671
     atom    4 type  1   force =     0.00000000    0.00000000   -0.08756671
     atom    5 type  1   force =     0.00000000    0.00000000    0.25951140
     The ionic contribution  to forces
     atom    1 type  2   force =     0.00000000    0.00000000   -0.92516615
     atom    2 type  3   force =    -0.00000000   -0.00000000    2.00628037
     atom    3 type  1   force =     0.00000000    0.00000000    1.02769145
     atom    4 type  1   force =     0.00000000    0.00000000    1.02769145
     atom    5 type  1   force =    -0.00000000   -0.00000000   -3.13649712
     The local contribution  to forces
     atom    1 type  2   force =    -0.00000000   -0.00000000    0.89995293
     atom    2 type  3   force =    -0.00000000   -0.00000000   -1.95326027
     atom    3 type  1   force =     0.00000000   -0.00000000   -0.94275857
     atom    4 type  1   force =    -0.00000000    0.00000000   -0.94275857
     atom    5 type  1   force =    -0.00000000   -0.00000000    2.86424044
     The core correction contribution to forces
     atom    1 type  2   force =     0.00000000    0.00000000    0.00000000
     atom    2 type  3   force =     0.00000000    0.00000000    0.00000000
     atom    3 type  1   force =     0.00000000    0.00000000    0.00000000
     atom    4 type  1   force =     0.00000000    0.00000000    0.00000000
     atom    5 type  1   force =     0.00000000    0.00000000    0.00000000
     The Hubbard contrib.    to forces
     atom    1 type  2   force =     0.00000000    0.00000000    0.00000000
     atom    2 type  3   force =     0.00000000    0.00000000    0.00000000
     atom    3 type  1   force =     0.00000000    0.00000000    0.00000000
     atom    4 type  1   force =     0.00000000    0.00000000    0.00000000
     atom    5 type  1   force =     0.00000000    0.00000000    0.00000000
     The SCF correction term to forces
     atom    1 type  2   force =     0.00000000    0.00000000   -0.00000000
     atom    2 type  3   force =    -0.00000000    0.00000000    0.00000000
     atom    3 type  1   force =    -0.00000000   -0.00000000   -0.00001560
     atom    4 type  1   force =     0.00000000    0.00000000   -0.00001560
     atom    5 type  1   force =     0.00000000    0.00000000    0.00004875

     Total force =     0.013240     Total SCF correction =     0.000054


     Computing stress (Cartesian axis) and pressure

          total   stress  (Ry/bohr**3)                   (kbar)     P=      -11.88
  -0.00014127   0.00000000   0.00000000          -20.78        0.00        0.00
   0.00000000  -0.00014127   0.00000000            0.00      -20.78        0.00
   0.00000000   0.00000000   0.00004032            0.00        0.00        5.93

     Energy error            =      3.3E-04 Ry
     Gradient error          =      1.3E-02 Ry/Bohr

     number of scf cycles    =   2
     number of bfgs steps    =   1

     energy             old  =    -333.1807775513 Ry
     energy             new  =    -333.1811112470 Ry

     CASE: energy            _new < energy            _old

     new trust radius        =       0.0220819166 bohr
     new conv_thr            =       0.0000000033 Ry


ATOMIC_POSITIONS (angstrom)
Pb            0.0000000000        0.0000000000        0.0000000000    0   0   0
Ti            1.9400000000        1.9400000000        1.7970500000    0   0   0
O             0.0000000000        1.9400000000        1.9372335639
O             1.9400000000        0.0000000000        1.9372335639
O             1.9400000000        1.9400000000       -0.0223081988



     Writing config-only to output data dir /home/gridsan/epan1/labutil/lab3_samples/problem2/Lab3/PbTiO3_a_3.88_ecut_30_nk_4_displ_-0.0368421052631579/pwscf.save/
     NEW-OLD atomic charge density approx. for the potential

     total cpu time spent up to now is       10.3 secs

     Self-consistent Calculation

     iteration #  1     ecut=    30.00 Ry     beta= 0.70
     Davidson diagonalization with overlap
     ethr =  1.00E-06,  avg # of iterations =  5.3

     total cpu time spent up to now is       10.6 secs

     total energy              =    -333.18131742 Ry
     estimated scf accuracy    <       0.00008786 Ry

     iteration #  2     ecut=    30.00 Ry     beta= 0.70
     Davidson diagonalization with overlap
     ethr =  2.00E-07,  avg # of iterations =  4.5

     total cpu time spent up to now is       11.0 secs

     total energy              =    -333.18132362 Ry
     estimated scf accuracy    <       0.00005968 Ry

     iteration #  3     ecut=    30.00 Ry     beta= 0.70
     Davidson diagonalization with overlap
     ethr =  1.36E-07,  avg # of iterations =  4.5

     total cpu time spent up to now is       11.3 secs

     total energy              =    -333.18133796 Ry
     estimated scf accuracy    <       0.00001970 Ry

     iteration #  4     ecut=    30.00 Ry     beta= 0.70
     Davidson diagonalization with overlap
     ethr =  4.48E-08,  avg # of iterations =  3.5

     total cpu time spent up to now is       11.7 secs

     total energy              =    -333.18134068 Ry
     estimated scf accuracy    <       0.00000087 Ry

     iteration #  5     ecut=    30.00 Ry     beta= 0.70
     Davidson diagonalization with overlap
     ethr =  1.97E-09,  avg # of iterations =  6.0

     total cpu time spent up to now is       12.0 secs

     total energy              =    -333.18134155 Ry
     estimated scf accuracy    <       0.00000156 Ry

     iteration #  6     ecut=    30.00 Ry     beta= 0.70
     Davidson diagonalization with overlap
     ethr =  1.97E-09,  avg # of iterations =  2.8

     total cpu time spent up to now is       12.3 secs

     total energy              =    -333.18134138 Ry
     estimated scf accuracy    <       0.00000072 Ry

     iteration #  7     ecut=    30.00 Ry     beta= 0.70
     Davidson diagonalization with overlap
     ethr =  1.64E-09,  avg # of iterations =  4.2

     total cpu time spent up to now is       12.6 secs

     total energy              =    -333.18134157 Ry
     estimated scf accuracy    <       0.00000003 Ry

     iteration #  8     ecut=    30.00 Ry     beta= 0.70
     Davidson diagonalization with overlap
     ethr =  6.83E-11,  avg # of iterations =  3.7

     total cpu time spent up to now is       12.9 secs

     total energy              =    -333.18134157 Ry
     estimated scf accuracy    <       0.00000002 Ry

     iteration #  9     ecut=    30.00 Ry     beta= 0.70
     Davidson diagonalization with overlap
     ethr =  4.95E-11,  avg # of iterations =  4.2

     total cpu time spent up to now is       13.3 secs

     End of self-consistent calculation

          k = 0.1250 0.1250 0.1250 (  1096 PWs)   bands (ev):

   -44.6570 -21.3177 -21.2586 -21.2578  -6.3707  -5.3257  -5.2613  -4.0435
    -4.0360  -4.0241  -3.8571  -3.8494   4.5843   7.2439   7.2775   8.0209
     8.9730   9.0625   9.6754   9.7944   9.9970  10.1196

          k = 0.1250 0.1250 0.3750 (  1095 PWs)   bands (ev):

   -44.6557 -21.3750 -21.2563 -21.2554  -5.9319  -5.1845  -5.1362  -4.1021
    -4.0388  -4.0191  -3.9472  -3.8290   3.8312   6.7741   7.1878   7.7957
     8.4497   8.6037   9.3759   9.8496  10.1252  10.8566

          k = 0.1250 0.3750 0.3750 (  1093 PWs)   bands (ev):

   -44.6545 -21.3717 -21.3112 -21.2539  -5.7195  -5.0912  -4.9815  -4.0759
    -4.0316  -3.9777  -3.8870  -3.7237   3.4875   6.6451   6.9166   7.1468
     7.4700   8.6660   9.3340   9.4760   9.9871  10.6326

          k = 0.3750 0.3750 0.3750 (  1082 PWs)   bands (ev):

   -44.6532 -21.3690 -21.3086 -21.3084  -5.3690  -5.2022  -5.1592  -3.9900
    -3.9813  -3.7011  -3.6353  -3.6152   4.1109   5.8759   5.9322   6.6438
     7.0678   7.1066   7.9376  10.5687  10.6219  10.7146

          k = 0.3750-0.1250 0.1250 (  1095 PWs)   bands (ev):

   -44.6557 -21.3159 -21.3139 -21.2559  -5.9796  -5.1907  -5.1060  -4.0986
    -4.0336  -4.0218  -3.9552  -3.8227   3.8576   6.8432   7.3272   7.8011
     8.3889   8.7510   9.2556   9.8610   9.9760  10.7862

          k = 0.3750-0.3750 0.1250 (  1093 PWs)   bands (ev):

   -44.6545 -21.3140 -21.3110 -21.3109  -5.8068  -5.0328  -4.9579  -4.0681
    -4.0289  -3.9695  -3.8839  -3.7548   3.5112   6.7903   6.8496   7.1293
     7.4330   8.6325   9.4427   9.4567   9.9601  10.7162

     highest occupied level (ev):    10.8566

!    total energy              =    -333.18134157 Ry
     estimated scf accuracy    <          4.0E-10 Ry

     The total energy is the sum of the following terms:
     one-electron contribution =     -77.28979142 Ry
     hartree contribution      =      66.54027247 Ry
     xc contribution           =     -49.64691720 Ry
     ewald contribution        =    -272.78490542 Ry

     convergence has been achieved in   9 iterations

     Forces acting on atoms (cartesian axes, Ry/au):

     atom    1 type  2   force =     0.00000000    0.00000000   -0.01633676
     atom    2 type  3   force =     0.00000000    0.00000000    0.03052518
     atom    3 type  1   force =     0.00000000    0.00000000   -0.00431552
     atom    4 type  1   force =     0.00000000    0.00000000   -0.00431552
     atom    5 type  1   force =     0.00000000    0.00000000   -0.00555738
     The non-local contrib.  to forces
     atom    1 type  2   force =     0.00000000    0.00000000    0.01054720
     atom    2 type  3   force =     0.00000000    0.00000000   -0.01779465
     atom    3 type  1   force =     0.00000000    0.00000000   -0.09287285
     atom    4 type  1   force =     0.00000000    0.00000000   -0.09287285
     atom    5 type  1   force =     0.00000000    0.00000000    0.24699651
     The ionic contribution  to forces
     atom    1 type  2   force =     0.00000000    0.00000000   -0.91430404
     atom    2 type  3   force =    -0.00000000   -0.00000000    1.75613041
     atom    3 type  1   force =     0.00000000   -0.00000000    0.99921105
     atom    4 type  1   force =    -0.00000000    0.00000000    0.99921105
     atom    5 type  1   force =    -0.00000000   -0.00000000   -2.84024848
     The local contribution  to forces
     atom    1 type  2   force =    -0.00000000    0.00000000    0.88743262
     atom    2 type  3   force =    -0.00000000   -0.00000000   -1.70781825
     atom    3 type  1   force =     0.00000000   -0.00000000   -0.91064740
     atom    4 type  1   force =    -0.00000000    0.00000000   -0.91064740
     atom    5 type  1   force =    -0.00000000   -0.00000000    2.58770251
     The core correction contribution to forces
     atom    1 type  2   force =     0.00000000    0.00000000    0.00000000
     atom    2 type  3   force =     0.00000000    0.00000000    0.00000000
     atom    3 type  1   force =     0.00000000    0.00000000    0.00000000
     atom    4 type  1   force =     0.00000000    0.00000000    0.00000000
     atom    5 type  1   force =     0.00000000    0.00000000    0.00000000
     The Hubbard contrib.    to forces
     atom    1 type  2   force =     0.00000000    0.00000000    0.00000000
     atom    2 type  3   force =     0.00000000    0.00000000    0.00000000
     atom    3 type  1   force =     0.00000000    0.00000000    0.00000000
     atom    4 type  1   force =     0.00000000    0.00000000    0.00000000
     atom    5 type  1   force =     0.00000000    0.00000000    0.00000000
     The SCF correction term to forces
     atom    1 type  2   force =    -0.00000000   -0.00000000   -0.00000000
     atom    2 type  3   force =    -0.00000000    0.00000000    0.00000000
     atom    3 type  1   force =     0.00000000   -0.00000000    0.00000015
     atom    4 type  1   force =    -0.00000000    0.00000000    0.00000015
     atom    5 type  1   force =    -0.00000000   -0.00000000   -0.00000145

     Total force =     0.008254     Total SCF correction =     0.000001


     Computing stress (Cartesian axis) and pressure

          total   stress  (Ry/bohr**3)                   (kbar)     P=      -14.05
  -0.00014381   0.00000000   0.00000000          -21.16        0.00        0.00
   0.00000000  -0.00014381   0.00000000            0.00      -21.16        0.00
   0.00000000   0.00000000   0.00000117            0.00        0.00        0.17

     Energy error            =      2.3E-04 Ry
     Gradient error          =      5.6E-03 Ry/Bohr

     number of scf cycles    =   3
     number of bfgs steps    =   2

     energy             old  =    -333.1811112470 Ry
     energy             new  =    -333.1813415708 Ry

     CASE: energy            _new < energy            _old

     new trust radius        =       0.0277569341 bohr
     new conv_thr            =       0.0000000023 Ry


ATOMIC_POSITIONS (angstrom)
Pb            0.0000000000        0.0000000000        0.0000000000    0   0   0
Ti            1.9400000000        1.9400000000        1.7970500000    0   0   0
O             0.0000000000        1.9400000000        1.9311385480
O             1.9400000000        0.0000000000        1.9311385480
O             1.9400000000        1.9400000000       -0.0369965358



     Writing config-only to output data dir /home/gridsan/epan1/labutil/lab3_samples/problem2/Lab3/PbTiO3_a_3.88_ecut_30_nk_4_displ_-0.0368421052631579/pwscf.save/
     NEW-OLD atomic charge density approx. for the potential

     total cpu time spent up to now is       14.8 secs

     Self-consistent Calculation

     iteration #  1     ecut=    30.00 Ry     beta= 0.70
     Davidson diagonalization with overlap
     ethr =  1.00E-06,  avg # of iterations =  6.0

     total cpu time spent up to now is       15.2 secs

     total energy              =    -333.18147804 Ry
     estimated scf accuracy    <       0.00014861 Ry

     iteration #  2     ecut=    30.00 Ry     beta= 0.70
     Davidson diagonalization with overlap
     ethr =  3.38E-07,  avg # of iterations =  4.5

     total cpu time spent up to now is       15.5 secs

     total energy              =    -333.18148381 Ry
     estimated scf accuracy    <       0.00011545 Ry

     iteration #  3     ecut=    30.00 Ry     beta= 0.70
     Davidson diagonalization with overlap
     ethr =  2.62E-07,  avg # of iterations =  4.5

     total cpu time spent up to now is       15.8 secs

     total energy              =    -333.18151150 Ry
     estimated scf accuracy    <       0.00002997 Ry

     iteration #  4     ecut=    30.00 Ry     beta= 0.70
     Davidson diagonalization with overlap
     ethr =  6.81E-08,  avg # of iterations =  3.5

     total cpu time spent up to now is       16.1 secs

     total energy              =    -333.18151517 Ry
     estimated scf accuracy    <       0.00000185 Ry

     iteration #  5     ecut=    30.00 Ry     beta= 0.70
     Davidson diagonalization with overlap
     ethr =  4.21E-09,  avg # of iterations =  5.5

     total cpu time spent up to now is       16.5 secs

     total energy              =    -333.18151680 Ry
     estimated scf accuracy    <       0.00000222 Ry

     iteration #  6     ecut=    30.00 Ry     beta= 0.70
     Davidson diagonalization with overlap
     ethr =  4.21E-09,  avg # of iterations =  1.8

     total cpu time spent up to now is       16.8 secs

     total energy              =    -333.18151652 Ry
     estimated scf accuracy    <       0.00000111 Ry

     iteration #  7     ecut=    30.00 Ry     beta= 0.70
     Davidson diagonalization with overlap
     ethr =  2.53E-09,  avg # of iterations =  4.0

     total cpu time spent up to now is       17.1 secs

     total energy              =    -333.18151682 Ry
     estimated scf accuracy    <       0.00000004 Ry

     iteration #  8     ecut=    30.00 Ry     beta= 0.70
     Davidson diagonalization with overlap
     ethr =  8.26E-11,  avg # of iterations =  4.8

     total cpu time spent up to now is       17.4 secs

     total energy              =    -333.18151683 Ry
     estimated scf accuracy    <          8.1E-09 Ry

     iteration #  9     ecut=    30.00 Ry     beta= 0.70
     Davidson diagonalization with overlap
     ethr =  1.84E-11,  avg # of iterations =  2.7

     total cpu time spent up to now is       17.7 secs

     total energy              =    -333.18151683 Ry
     estimated scf accuracy    <          5.5E-09 Ry

     iteration # 10     ecut=    30.00 Ry     beta= 0.70
     Davidson diagonalization with overlap
     ethr =  1.25E-11,  avg # of iterations =  3.0

     total cpu time spent up to now is       18.0 secs

     End of self-consistent calculation

          k = 0.1250 0.1250 0.1250 (  1096 PWs)   bands (ev):

   -44.6762 -21.3231 -21.2783 -21.2775  -6.3719  -5.3208  -5.2684  -4.0395
    -4.0332  -4.0212  -3.8538  -3.8473   4.5876   7.2462   7.2727   8.0205
     8.9943   9.0731   9.7081   9.8005   9.9872  10.1193

          k = 0.1250 0.1250 0.3750 (  1095 PWs)   bands (ev):

   -44.6749 -21.3803 -21.2760 -21.2751  -5.9384  -5.1748  -5.1444  -4.0983
    -4.0347  -4.0164  -3.9451  -3.8254   3.8406   6.7760   7.2038   7.7906
     8.4459   8.6242   9.3726   9.8561  10.1163  10.8519

          k = 0.1250 0.3750 0.3750 (  1093 PWs)   bands (ev):

   -44.6737 -21.3770 -21.3309 -21.2737  -5.7257  -5.0825  -4.9855  -4.0722
    -4.0280  -3.9743  -3.8840  -3.7227   3.4927   6.6605   6.9031   7.1460
     7.4666   8.6597   9.3507   9.4704   9.9919  10.6404

          k = 0.3750 0.3750 0.3750 (  1082 PWs)   bands (ev):

   -44.6724 -21.3743 -21.3283 -21.3281  -5.3658  -5.1998  -5.1640  -3.9860
    -3.9787  -3.6967  -3.6322  -3.6148   4.1136   5.8848   5.9297   6.6445
     7.0600   7.0909   7.9418  10.5819  10.6298  10.7102

          k = 0.3750-0.1250 0.1250 (  1095 PWs)   bands (ev):

   -44.6749 -21.3343 -21.3206 -21.2756  -5.9777  -5.1891  -5.1118  -4.0955
    -4.0303  -4.0187  -3.9515  -3.8203   3.8609   6.8355   7.3265   7.8003
     8.3908   8.7471   9.2725   9.8681   9.9908  10.7915

          k = 0.3750-0.3750 0.1250 (  1093 PWs)   bands (ev):

   -44.6737 -21.3315 -21.3305 -21.3186  -5.7974  -5.0377  -4.9642  -4.0656
    -4.0257  -3.9672  -3.8814  -3.7491   3.5107   6.7854   6.8437   7.1381
     7.4414   8.6322   9.4418   9.4549   9.9642  10.7100

     highest occupied level (ev):    10.8519

!    total energy              =    -333.18151683 Ry
     estimated scf accuracy    <          1.5E-09 Ry

     The total energy is the sum of the following terms:
     one-electron contribution =     -77.18688558 Ry
     hartree contribution      =      66.48396784 Ry
     xc contribution           =     -49.64244362 Ry
     ewald contribution        =    -272.83615547 Ry

     convergence has been achieved in  10 iterations

     Forces acting on atoms (cartesian axes, Ry/au):

     atom    1 type  2   force =     0.00000000    0.00000000   -0.01613776
     atom    2 type  3   force =     0.00000000    0.00000000    0.02646442
     atom    3 type  1   force =     0.00000000    0.00000000   -0.00597863
     atom    4 type  1   force =     0.00000000    0.00000000   -0.00597863
     atom    5 type  1   force =     0.00000000    0.00000000    0.00163060
     The non-local contrib.  to forces
     atom    1 type  2   force =     0.00000000    0.00000000    0.01492661
     atom    2 type  3   force =     0.00000000    0.00000000   -0.01642960
     atom    3 type  1   force =     0.00000000    0.00000000   -0.09810843
     atom    4 type  1   force =     0.00000000    0.00000000   -0.09810843
     atom    5 type  1   force =     0.00000000    0.00000000    0.22880635
     The ionic contribution  to forces
     atom    1 type  2   force =     0.00000000    0.00000000   -0.94505876
     atom    2 type  3   force =    -0.00000000   -0.00000000    1.49019567
     atom    3 type  1   force =     0.00000000   -0.00000000    0.97167557
     atom    4 type  1   force =    -0.00000000    0.00000000    0.97167557
     atom    5 type  1   force =    -0.00000000   -0.00000000   -2.48848804
     The local contribution  to forces
     atom    1 type  2   force =     0.00000000   -0.00000000    0.91400052
     atom    2 type  3   force =    -0.00000000   -0.00000000   -1.44728708
     atom    3 type  1   force =     0.00000000   -0.00000000   -0.87952833
     atom    4 type  1   force =    -0.00000000    0.00000000   -0.87952833
     atom    5 type  1   force =    -0.00000000   -0.00000000    2.26131193
     The core correction contribution to forces
     atom    1 type  2   force =     0.00000000    0.00000000    0.00000000
     atom    2 type  3   force =     0.00000000    0.00000000    0.00000000
     atom    3 type  1   force =     0.00000000    0.00000000    0.00000000
     atom    4 type  1   force =     0.00000000    0.00000000    0.00000000
     atom    5 type  1   force =     0.00000000    0.00000000    0.00000000
     The Hubbard contrib.    to forces
     atom    1 type  2   force =     0.00000000    0.00000000    0.00000000
     atom    2 type  3   force =     0.00000000    0.00000000    0.00000000
     atom    3 type  1   force =     0.00000000    0.00000000    0.00000000
     atom    4 type  1   force =     0.00000000    0.00000000    0.00000000
     atom    5 type  1   force =     0.00000000    0.00000000    0.00000000
     The SCF correction term to forces
     atom    1 type  2   force =     0.00000000    0.00000000    0.00000000
     atom    2 type  3   force =    -0.00000000   -0.00000000   -0.00000000
     atom    3 type  1   force =     0.00000000    0.00000000   -0.00000650
     atom    4 type  1   force =     0.00000000   -0.00000000   -0.00000650
     atom    5 type  1   force =    -0.00000000    0.00000000    0.00001130

     Total force =     0.008611     Total SCF correction =     0.000015


     Computing stress (Cartesian axis) and pressure

          total   stress  (Ry/bohr**3)                   (kbar)     P=      -16.80
  -0.00014883   0.00000000   0.00000000          -21.89        0.00        0.00
   0.00000000  -0.00014883   0.00000000            0.00      -21.89        0.00
   0.00000000   0.00000000  -0.00004485            0.00        0.00       -6.60

     Energy error            =      1.8E-04 Ry
     Gradient error          =      6.0E-03 Ry/Bohr

     number of scf cycles    =   4
     number of bfgs steps    =   3

     energy             old  =    -333.1813415708 Ry
     energy             new  =    -333.1815168304 Ry

     CASE: energy            _new < energy            _old

     new trust radius        =       0.0203202085 bohr
     new conv_thr            =       0.0000000018 Ry


ATOMIC_POSITIONS (angstrom)
Pb            0.0000000000        0.0000000000        0.0000000000    0   0   0
Ti            1.9400000000        1.9400000000        1.7970500000    0   0   0
O             0.0000000000        1.9400000000        1.9226113075
O             1.9400000000        0.0000000000        1.9226113075
O             1.9400000000        1.9400000000       -0.0477495271



     Writing config-only to output data dir /home/gridsan/epan1/labutil/lab3_samples/problem2/Lab3/PbTiO3_a_3.88_ecut_30_nk_4_displ_-0.0368421052631579/pwscf.save/
     NEW-OLD atomic charge density approx. for the potential

     total cpu time spent up to now is       19.1 secs

     Self-consistent Calculation

     iteration #  1     ecut=    30.00 Ry     beta= 0.70
     Davidson diagonalization with overlap
     ethr =  1.00E-06,  avg # of iterations =  5.7

     total cpu time spent up to now is       19.5 secs

     total energy              =    -333.18163045 Ry
     estimated scf accuracy    <       0.00009372 Ry

     iteration #  2     ecut=    30.00 Ry     beta= 0.70
     Davidson diagonalization with overlap
     ethr =  2.13E-07,  avg # of iterations =  4.5

     total cpu time spent up to now is       19.8 secs

     total energy              =    -333.18163127 Ry
     estimated scf accuracy    <       0.00004990 Ry

     iteration #  3     ecut=    30.00 Ry     beta= 0.70
     Davidson diagonalization with overlap
     ethr =  1.13E-07,  avg # of iterations =  4.5

     total cpu time spent up to now is       20.1 secs

     total energy              =    -333.18164495 Ry
     estimated scf accuracy    <       0.00003030 Ry

     iteration #  4     ecut=    30.00 Ry     beta= 0.70
     Davidson diagonalization with overlap
     ethr =  6.89E-08,  avg # of iterations =  3.0

     total cpu time spent up to now is       20.4 secs

     total energy              =    -333.18164730 Ry
     estimated scf accuracy    <       0.00000292 Ry

     iteration #  5     ecut=    30.00 Ry     beta= 0.70
     Davidson diagonalization with overlap
     ethr =  6.64E-09,  avg # of iterations =  5.2

     total cpu time spent up to now is       20.8 secs

     total energy              =    -333.18164971 Ry
     estimated scf accuracy    <       0.00000359 Ry

     iteration #  6     ecut=    30.00 Ry     beta= 0.70
     Davidson diagonalization with overlap
     ethr =  6.64E-09,  avg # of iterations =  1.2

     total cpu time spent up to now is       21.0 secs

     total energy              =    -333.18164919 Ry
     estimated scf accuracy    <       0.00000223 Ry

     iteration #  7     ecut=    30.00 Ry     beta= 0.70
     Davidson diagonalization with overlap
     ethr =  5.07E-09,  avg # of iterations =  2.7

     total cpu time spent up to now is       21.3 secs

     total energy              =    -333.18164948 Ry
     estimated scf accuracy    <       0.00000019 Ry

     iteration #  8     ecut=    30.00 Ry     beta= 0.70
     Davidson diagonalization with overlap
     ethr =  4.34E-10,  avg # of iterations =  4.8

     total cpu time spent up to now is       21.7 secs

     total energy              =    -333.18164955 Ry
     estimated scf accuracy    <          3.4E-09 Ry

     iteration #  9     ecut=    30.00 Ry     beta= 0.70
     Davidson diagonalization with overlap
     ethr =  7.70E-12,  avg # of iterations =  5.5

     total cpu time spent up to now is       22.0 secs

     total energy              =    -333.18164955 Ry
     estimated scf accuracy    <          6.8E-09 Ry

     iteration # 10     ecut=    30.00 Ry     beta= 0.70
     Davidson diagonalization with overlap
     ethr =  7.70E-12,  avg # of iterations =  4.5

     total cpu time spent up to now is       22.3 secs

     End of self-consistent calculation

          k = 0.1250 0.1250 0.1250 (  1096 PWs)   bands (ev):

   -44.6888 -21.3269 -21.2915 -21.2907  -6.3727  -5.3179  -5.2751  -4.0369
    -4.0314  -4.0193  -3.8518  -3.8460   4.5898   7.2486   7.2697   8.0221
     9.0098   9.0789   9.7360   9.8072   9.9777  10.1149

          k = 0.1250 0.1250 0.3750 (  1095 PWs)   bands (ev):

   -44.6875 -21.3839 -21.2892 -21.2883  -5.9438  -5.1678  -5.1519  -4.0957
    -4.0321  -4.0147  -3.9437  -3.8231   3.8476   6.7782   7.2189   7.7896
     8.4388   8.6376   9.3684   9.8627  10.1081  10.8466

          k = 0.1250 0.3750 0.3750 (  1093 PWs)   bands (ev):

   -44.6863 -21.3806 -21.3441 -21.2868  -5.7309  -5.0765  -4.9883  -4.0697
    -4.0257  -3.9721  -3.8819  -3.7222   3.4961   6.6739   6.8895   7.1457
     7.4632   8.6542   9.3606   9.4652   9.9944  10.6464

          k = 0.3750 0.3750 0.3750 (  1082 PWs)   bands (ev):

   -44.6850 -21.3780 -21.3415 -21.3413  -5.3635  -5.1980  -5.1680  -3.9834
    -3.9771  -3.6937  -3.6301  -3.6146   4.1143   5.8905   5.9263   6.6469
     7.0505   7.0751   7.9443  10.5913  10.6341  10.7071

          k = 0.3750-0.1250 0.1250 (  1095 PWs)   bands (ev):

   -44.6875 -21.3475 -21.3245 -21.2888  -5.9761  -5.1890  -5.1165  -4.0935
    -4.0282  -4.0168  -3.9488  -3.8188   3.8630   6.8284   7.3240   7.8001
     8.3925   8.7411   9.2839   9.8733  10.0028  10.7945

          k = 0.3750-0.3750 0.1250 (  1093 PWs)   bands (ev):

   -44.6863 -21.3446 -21.3437 -21.3225  -5.7899  -5.0420  -4.9693  -4.0641
    -4.0235  -3.9655  -3.8795  -3.7452   3.5095   6.7813   6.8375   7.1416
     7.4439   8.6313   9.4385   9.4534   9.9681  10.7046

     highest occupied level (ev):    10.8466

!    total energy              =    -333.18164955 Ry
     estimated scf accuracy    <          9.7E-11 Ry

     The total energy is the sum of the following terms:
     one-electron contribution =     -77.15135380 Ry
     hartree contribution      =      66.46304029 Ry
     xc contribution           =     -49.64013457 Ry
     ewald contribution        =    -272.85320146 Ry

     convergence has been achieved in  10 iterations

     Forces acting on atoms (cartesian axes, Ry/au):

     atom    1 type  2   force =     0.00000000    0.00000000   -0.01563339
     atom    2 type  3   force =     0.00000000    0.00000000    0.02387225
     atom    3 type  1   force =     0.00000000    0.00000000   -0.00663421
     atom    4 type  1   force =     0.00000000    0.00000000   -0.00663421
     atom    5 type  1   force =     0.00000000    0.00000000    0.00502958
     The non-local contrib.  to forces
     atom    1 type  2   force =     0.00000000    0.00000000    0.02108587
     atom    2 type  3   force =     0.00000000    0.00000000   -0.01538726
     atom    3 type  1   force =     0.00000000    0.00000000   -0.10009623
     atom    4 type  1   force =     0.00000000    0.00000000   -0.10009623
     atom    5 type  1   force =     0.00000000    0.00000000    0.21264009
     The ionic contribution  to forces
     atom    1 type  2   force =     0.00000000    0.00000000   -1.02341728
     atom    2 type  3   force =    -0.00000000   -0.00000000    1.35583012
     atom    3 type  1   force =     0.00000000    0.00000000    0.96172813
     atom    4 type  1   force =     0.00000000    0.00000000    0.96172813
     atom    5 type  1   force =     0.00000000    0.00000000   -2.25586910
     The local contribution  to forces
     atom    1 type  2   force =    -0.00000000   -0.00000000    0.98671177
     atom    2 type  3   force =    -0.00000000   -0.00000000   -1.31656297
     atom    3 type  1   force =     0.00000000   -0.00000000   -0.86825599
     atom    4 type  1   force =    -0.00000000    0.00000000   -0.86825599
     atom    5 type  1   force =    -0.00000000   -0.00000000    2.04827224
     The core correction contribution to forces
     atom    1 type  2   force =     0.00000000    0.00000000    0.00000000
     atom    2 type  3   force =     0.00000000    0.00000000    0.00000000
     atom    3 type  1   force =     0.00000000    0.00000000    0.00000000
     atom    4 type  1   force =     0.00000000    0.00000000    0.00000000
     atom    5 type  1   force =     0.00000000    0.00000000    0.00000000
     The Hubbard contrib.    to forces
     atom    1 type  2   force =     0.00000000    0.00000000    0.00000000
     atom    2 type  3   force =     0.00000000    0.00000000    0.00000000
     atom    3 type  1   force =     0.00000000    0.00000000    0.00000000
     atom    4 type  1   force =     0.00000000    0.00000000    0.00000000
     atom    5 type  1   force =     0.00000000    0.00000000    0.00000000
     The SCF correction term to forces
     atom    1 type  2   force =    -0.00000000    0.00000000   -0.00000000
     atom    2 type  3   force =     0.00000000   -0.00000000    0.00000000
     atom    3 type  1   force =     0.00000000    0.00000000    0.00000107
     atom    4 type  1   force =     0.00000000    0.00000000    0.00000107
     atom    5 type  1   force =     0.00000000    0.00000000   -0.00000246

     Total force =     0.010645     Total SCF correction =     0.000003


     Computing stress (Cartesian axis) and pressure

          total   stress  (Ry/bohr**3)                   (kbar)     P=      -18.09
  -0.00014881   0.00000000   0.00000000          -21.89        0.00        0.00
   0.00000000  -0.00014881   0.00000000            0.00      -21.89        0.00
   0.00000000   0.00000000  -0.00007121            0.00        0.00      -10.48

     Energy error            =      1.3E-04 Ry
     Gradient error          =      6.6E-03 Ry/Bohr

     number of scf cycles    =   5
     number of bfgs steps    =   4

     energy             old  =    -333.1815168304 Ry
     energy             new  =    -333.1816495469 Ry

     CASE: energy            _new < energy            _old

     new trust radius        =       0.0223522294 bohr
     new conv_thr            =       0.0000000013 Ry


ATOMIC_POSITIONS (angstrom)
Pb            0.0000000000        0.0000000000        0.0000000000    0   0   0
Ti            1.9400000000        1.9400000000        1.7970500000    0   0   0
O             0.0000000000        1.9400000000        1.9107830171
O             1.9400000000        0.0000000000        1.9107830171
O             1.9400000000        1.9400000000       -0.0586199696



     Writing config-only to output data dir /home/gridsan/epan1/labutil/lab3_samples/problem2/Lab3/PbTiO3_a_3.88_ecut_30_nk_4_displ_-0.0368421052631579/pwscf.save/
     NEW-OLD atomic charge density approx. for the potential

     total cpu time spent up to now is       23.5 secs

     Self-consistent Calculation

     iteration #  1     ecut=    30.00 Ry     beta= 0.70
     Davidson diagonalization with overlap
     ethr =  1.00E-06,  avg # of iterations =  6.3

     total cpu time spent up to now is       24.0 secs

     total energy              =    -333.18180435 Ry
     estimated scf accuracy    <       0.00012611 Ry

     iteration #  2     ecut=    30.00 Ry     beta= 0.70
     Davidson diagonalization with overlap
     ethr =  2.87E-07,  avg # of iterations =  4.3

     total cpu time spent up to now is       24.3 secs

     total energy              =    -333.18180815 Ry
     estimated scf accuracy    <       0.00005418 Ry

     iteration #  3     ecut=    30.00 Ry     beta= 0.70
     Davidson diagonalization with overlap
     ethr =  1.23E-07,  avg # of iterations =  4.8

     total cpu time spent up to now is       24.7 secs

     total energy              =    -333.18182162 Ry
     estimated scf accuracy    <       0.00004546 Ry

     iteration #  4     ecut=    30.00 Ry     beta= 0.70
     Davidson diagonalization with overlap
     ethr =  1.03E-07,  avg # of iterations =  3.2

     total cpu time spent up to now is       25.0 secs

     total energy              =    -333.18182708 Ry
     estimated scf accuracy    <       0.00000161 Ry

     iteration #  5     ecut=    30.00 Ry     beta= 0.70
     Davidson diagonalization with overlap
     ethr =  3.66E-09,  avg # of iterations =  6.5

     total cpu time spent up to now is       25.3 secs

     total energy              =    -333.18182915 Ry
     estimated scf accuracy    <       0.00000379 Ry

     iteration #  6     ecut=    30.00 Ry     beta= 0.70
     Davidson diagonalization with overlap
     ethr =  3.66E-09,  avg # of iterations =  2.3

     total cpu time spent up to now is       25.6 secs

     total energy              =    -333.18182872 Ry
     estimated scf accuracy    <       0.00000217 Ry

     iteration #  7     ecut=    30.00 Ry     beta= 0.70
     Davidson diagonalization with overlap
     ethr =  3.66E-09,  avg # of iterations =  4.3

     total cpu time spent up to now is       25.9 secs

     total energy              =    -333.18182900 Ry
     estimated scf accuracy    <       0.00000010 Ry

     iteration #  8     ecut=    30.00 Ry     beta= 0.70
     Davidson diagonalization with overlap
     ethr =  2.17E-10,  avg # of iterations =  4.5

     total cpu time spent up to now is       26.3 secs

     total energy              =    -333.18182904 Ry
     estimated scf accuracy    <          7.0E-09 Ry

     iteration #  9     ecut=    30.00 Ry     beta= 0.70
     Davidson diagonalization with overlap
     ethr =  1.59E-11,  avg # of iterations =  3.0

     total cpu time spent up to now is       26.8 secs

     End of self-consistent calculation

          k = 0.1250 0.1250 0.1250 (  1096 PWs)   bands (ev):

   -44.7001 -21.3303 -21.3036 -21.3028  -6.3737  -5.3155  -5.2831  -4.0343
    -4.0296  -4.0174  -3.8499  -3.8444   4.5921   7.2513   7.2672   8.0247
     9.0250   9.0833   9.7670   9.8149   9.9663  10.1066

          k = 0.1250 0.1250 0.3750 (  1095 PWs)   bands (ev):

   -44.6989 -21.3873 -21.3013 -21.3004  -5.9499  -5.1611  -5.1609  -4.0930
    -4.0294  -4.0130  -3.9419  -3.8208   3.8548   6.7809   7.2362   7.7899
     8.4284   8.6499   9.3624   9.8701  10.0984  10.8398

          k = 0.1250 0.3750 0.3750 (  1093 PWs)   bands (ev):

   -44.6977 -21.3840 -21.3562 -21.2989  -5.7371  -5.0715  -4.9914  -4.0672
    -4.0234  -3.9697  -3.8797  -3.7214   3.4992   6.6889   6.8731   7.1451
     7.4594   8.6478   9.3682   9.4593   9.9961  10.6522

          k = 0.3750 0.3750 0.3750 (  1082 PWs)   bands (ev):

   -44.6964 -21.3813 -21.3536 -21.3534  -5.3616  -5.1961  -5.1727  -3.9808
    -3.9754  -3.6908  -3.6277  -3.6140   4.1139   5.8957   5.9218   6.6504
     7.0384   7.0564   7.9471  10.6003  10.6365  10.7044

          k = 0.3750-0.1250 0.1250 (  1095 PWs)   bands (ev):

   -44.6989 -21.3596 -21.3279 -21.3009  -5.9747  -5.1899  -5.1220  -4.0916
    -4.0261  -4.0147  -3.9456  -3.8170   3.8648   6.8201   7.3201   7.8002
     8.3943   8.7330   9.2941   9.8779  10.0151  10.7971

          k = 0.3750-0.3750 0.1250 (  1093 PWs)   bands (ev):

   -44.6977 -21.3567 -21.3559 -21.3260  -5.7821  -5.0472  -4.9756  -4.0625
    -4.0211  -3.9633  -3.8772  -3.7413   3.5073   6.7768   6.8299   7.1428
     7.4441   8.6301   9.4332   9.4515   9.9728  10.6980

     highest occupied level (ev):    10.8398

!    total energy              =    -333.18182904 Ry
     estimated scf accuracy    <          8.5E-10 Ry

     The total energy is the sum of the following terms:
     one-electron contribution =     -77.14634748 Ry
     hartree contribution      =      66.45749700 Ry
     xc contribution           =     -49.63859507 Ry
     ewald contribution        =    -272.85438349 Ry

     convergence has been achieved in   9 iterations

     Forces acting on atoms (cartesian axes, Ry/au):

     atom    1 type  2   force =     0.00000000    0.00000000   -0.01483956
     atom    2 type  3   force =     0.00000000    0.00000000    0.02162044
     atom    3 type  1   force =     0.00000000    0.00000000   -0.00687073
     atom    4 type  1   force =     0.00000000    0.00000000   -0.00687073
     atom    5 type  1   force =     0.00000000    0.00000000    0.00696058
     The non-local contrib.  to forces
     atom    1 type  2   force =     0.00000000    0.00000000    0.02964692
     atom    2 type  3   force =     0.00000000    0.00000000   -0.01432806
     atom    3 type  1   force =     0.00000000    0.00000000   -0.10076175
     atom    4 type  1   force =     0.00000000    0.00000000   -0.10076175
     atom    5 type  1   force =     0.00000000    0.00000000    0.19407843
     The ionic contribution  to forces
     atom    1 type  2   force =     0.00000000    0.00000000   -1.14666931
     atom    2 type  3   force =    -0.00000000   -0.00000000    1.26818934
     atom    3 type  1   force =     0.00000000    0.00000000    0.95938966
     atom    4 type  1   force =     0.00000000    0.00000000    0.95938966
     atom    5 type  1   force =     0.00000000    0.00000000   -2.04029934
     The local contribution  to forces
     atom    1 type  2   force =    -0.00000000   -0.00000000    1.10218631
     atom    2 type  3   force =    -0.00000000   -0.00000000   -1.23223491
     atom    3 type  1   force =     0.00000000   -0.00000000   -0.86548496
     atom    4 type  1   force =    -0.00000000    0.00000000   -0.86548496
     atom    5 type  1   force =    -0.00000000   -0.00000000    1.85318099
     The core correction contribution to forces
     atom    1 type  2   force =     0.00000000    0.00000000    0.00000000
     atom    2 type  3   force =     0.00000000    0.00000000    0.00000000
     atom    3 type  1   force =     0.00000000    0.00000000    0.00000000
     atom    4 type  1   force =     0.00000000    0.00000000    0.00000000
     atom    5 type  1   force =     0.00000000    0.00000000    0.00000000
     The Hubbard contrib.    to forces
     atom    1 type  2   force =     0.00000000    0.00000000    0.00000000
     atom    2 type  3   force =     0.00000000    0.00000000    0.00000000
     atom    3 type  1   force =     0.00000000    0.00000000    0.00000000
     atom    4 type  1   force =     0.00000000    0.00000000    0.00000000
     atom    5 type  1   force =     0.00000000    0.00000000    0.00000000
     The SCF correction term to forces
     atom    1 type  2   force =    -0.00000000    0.00000000    0.00000000
     atom    2 type  3   force =     0.00000000    0.00000000    0.00000000
     atom    3 type  1   force =    -0.00000000   -0.00000000   -0.00000542
     atom    4 type  1   force =     0.00000000    0.00000000   -0.00000542
     atom    5 type  1   force =     0.00000000    0.00000000    0.00000877

     Total force =     0.011953     Total SCF correction =     0.000012


     Computing stress (Cartesian axis) and pressure

          total   stress  (Ry/bohr**3)                   (kbar)     P=      -19.01
  -0.00014732   0.00000000   0.00000000          -21.67        0.00        0.00
   0.00000000  -0.00014732   0.00000000            0.00      -21.67        0.00
   0.00000000   0.00000000  -0.00009312            0.00        0.00      -13.70

     Energy error            =      1.8E-04 Ry
     Gradient error          =      7.0E-03 Ry/Bohr

     number of scf cycles    =   6
     number of bfgs steps    =   5

     energy             old  =    -333.1816495469 Ry
     energy             new  =    -333.1818290427 Ry

     CASE: energy            _new < energy            _old

     new trust radius        =       0.0335283440 bohr
     new conv_thr            =       0.0000000018 Ry


ATOMIC_POSITIONS (angstrom)
Pb            0.0000000000        0.0000000000        0.0000000000    0   0   0
Ti            1.9400000000        1.9400000000        1.7970500000    0   0   0
O             0.0000000000        1.9400000000        1.8930405815
O             1.9400000000        0.0000000000        1.8930405815
O             1.9400000000        1.9400000000       -0.0724584437



     Writing config-only to output data dir /home/gridsan/epan1/labutil/lab3_samples/problem2/Lab3/PbTiO3_a_3.88_ecut_30_nk_4_displ_-0.0368421052631579/pwscf.save/
     NEW-OLD atomic charge density approx. for the potential

     total cpu time spent up to now is       27.9 secs

     Self-consistent Calculation

     iteration #  1     ecut=    30.00 Ry     beta= 0.70
     Davidson diagonalization with overlap
     ethr =  1.00E-06,  avg # of iterations =  7.3

     total cpu time spent up to now is       28.4 secs

     total energy              =    -333.18205334 Ry
     estimated scf accuracy    <       0.00024031 Ry

     iteration #  2     ecut=    30.00 Ry     beta= 0.70
     Davidson diagonalization with overlap
     ethr =  5.46E-07,  avg # of iterations =  3.3

     total cpu time spent up to now is       28.7 secs

     total energy              =    -333.18207485 Ry
     estimated scf accuracy    <       0.00004838 Ry

     iteration #  3     ecut=    30.00 Ry     beta= 0.70
     Davidson diagonalization with overlap
     ethr =  1.10E-07,  avg # of iterations =  5.0

     total cpu time spent up to now is       29.0 secs

     total energy              =    -333.18208434 Ry
     estimated scf accuracy    <       0.00004561 Ry

     iteration #  4     ecut=    30.00 Ry     beta= 0.70
     Davidson diagonalization with overlap
     ethr =  1.04E-07,  avg # of iterations =  4.2

     total cpu time spent up to now is       29.4 secs

     total energy              =    -333.18209329 Ry
     estimated scf accuracy    <       0.00000123 Ry

     iteration #  5     ecut=    30.00 Ry     beta= 0.70
     Davidson diagonalization with overlap
     ethr =  2.79E-09,  avg # of iterations =  6.0

     total cpu time spent up to now is       29.7 secs

     total energy              =    -333.18209377 Ry
     estimated scf accuracy    <       0.00000227 Ry

     iteration #  6     ecut=    30.00 Ry     beta= 0.70
     Davidson diagonalization with overlap
     ethr =  2.79E-09,  avg # of iterations =  4.3

     total cpu time spent up to now is       30.1 secs

     total energy              =    -333.18209400 Ry
     estimated scf accuracy    <       0.00000014 Ry

     iteration #  7     ecut=    30.00 Ry     beta= 0.70
     Davidson diagonalization with overlap
     ethr =  3.10E-10,  avg # of iterations =  5.0

     total cpu time spent up to now is       30.4 secs

     total energy              =    -333.18209406 Ry
     estimated scf accuracy    <       0.00000003 Ry

     iteration #  8     ecut=    30.00 Ry     beta= 0.70
     Davidson diagonalization with overlap
     ethr =  6.47E-11,  avg # of iterations =  2.0

     total cpu time spent up to now is       30.7 secs

     total energy              =    -333.18209406 Ry
     estimated scf accuracy    <       0.00000002 Ry

     iteration #  9     ecut=    30.00 Ry     beta= 0.70
     Davidson diagonalization with overlap
     ethr =  3.47E-11,  avg # of iterations =  4.5

     total cpu time spent up to now is       31.0 secs

     End of self-consistent calculation

          k = 0.1250 0.1250 0.1250 (  1096 PWs)   bands (ev):

   -44.7133 -21.3348 -21.3177 -21.3169  -6.3758  -5.3128  -5.2948  -4.0307
    -4.0270  -4.0145  -3.8474  -3.8412   4.5949   7.2541   7.2645   8.0285
     9.0425   9.0867   9.8079   9.8249   9.9503  10.0920

          k = 0.1250 0.1250 0.3750 (  1095 PWs)   bands (ev):

   -44.7121 -21.3916 -21.3154 -21.3145  -5.9590  -5.1744  -5.1522  -4.0890
    -4.0255  -4.0103  -3.9386  -3.8176   3.8639   6.7849   7.2580   7.7901
     8.4137   8.6643   9.3529   9.8792  10.0847  10.8310

          k = 0.1250 0.3750 0.3750 (  1093 PWs)   bands (ev):

   -44.7109 -21.3883 -21.3704 -21.3130  -5.7459  -5.0670  -4.9948  -4.0636
    -4.0201  -3.9660  -3.8762  -3.7195   3.5032   6.7081   6.8504   7.1432
     7.4545   8.6387   9.3745   9.4523   9.9979  10.6591

          k = 0.3750 0.3750 0.3750 (  1082 PWs)   bands (ev):

   -44.7096 -21.3856 -21.3679 -21.3676  -5.3605  -5.1934  -5.1798  -3.9770
    -3.9727  -3.6870  -3.6239  -3.6124   4.1120   5.9018   5.9151   6.6547
     7.0224   7.0318   7.9520  10.6104  10.6358  10.7022

          k = 0.3750-0.1250 0.1250 (  1095 PWs)   bands (ev):

   -44.7121 -21.3738 -21.3324 -21.3150  -5.9737  -5.1922  -5.1300  -4.0887
    -4.0230  -4.0116  -3.9404  -3.8139   3.8668   6.8088   7.3139   7.8004
     8.3961   8.7216   9.3054   9.8824  10.0297  10.8004

          k = 0.3750-0.3750 0.1250 (  1093 PWs)   bands (ev):

   -44.7109 -21.3709 -21.3701 -21.3304  -5.7722  -5.0554  -4.9852  -4.0601
    -4.0174  -3.9592  -3.8730  -3.7360   3.5035   6.7703   6.8191   7.1425
     7.4430   8.6289   9.4253   9.4489   9.9796  10.6885

     highest occupied level (ev):    10.8310

!    total energy              =    -333.18209406 Ry
     estimated scf accuracy    <          4.3E-10 Ry

     The total energy is the sum of the following terms:
     one-electron contribution =     -77.17118799 Ry
     hartree contribution      =      66.46649422 Ry
     xc contribution           =     -49.63746820 Ry
     ewald contribution        =    -272.83993210 Ry

     convergence has been achieved in   9 iterations

     Forces acting on atoms (cartesian axes, Ry/au):

     atom    1 type  2   force =     0.00000000    0.00000000   -0.01364162
     atom    2 type  3   force =     0.00000000    0.00000000    0.01934256
     atom    3 type  1   force =     0.00000000    0.00000000   -0.00683261
     atom    4 type  1   force =     0.00000000    0.00000000   -0.00683261
     atom    5 type  1   force =     0.00000000    0.00000000    0.00796427
     The non-local contrib.  to forces
     atom    1 type  2   force =     0.00000000    0.00000000    0.04244997
     atom    2 type  3   force =     0.00000000    0.00000000   -0.01310811
     atom    3 type  1   force =     0.00000000    0.00000000   -0.10071427
     atom    4 type  1   force =     0.00000000    0.00000000   -0.10071427
     atom    5 type  1   force =     0.00000000    0.00000000    0.16860560
     The ionic contribution  to forces
     atom    1 type  2   force =     0.00000000    0.00000000   -1.34031991
     atom    2 type  3   force =    -0.00000000   -0.00000000    1.19838688
     atom    3 type  1   force =     0.00000000   -0.00000000    0.96224278
     atom    4 type  1   force =    -0.00000000    0.00000000    0.96224278
     atom    5 type  1   force =    -0.00000000   -0.00000000   -1.78255252
     The local contribution  to forces
     atom    1 type  2   force =    -0.00000000   -0.00000000    1.28421595
     atom    2 type  3   force =    -0.00000000   -0.00000000   -1.16594151
     atom    3 type  1   force =     0.00000000   -0.00000000   -0.86836334
     atom    4 type  1   force =    -0.00000000    0.00000000   -0.86836334
     atom    5 type  1   force =    -0.00000000   -0.00000000    1.62190977
     The core correction contribution to forces
     atom    1 type  2   force =     0.00000000    0.00000000    0.00000000
     atom    2 type  3   force =     0.00000000    0.00000000    0.00000000
     atom    3 type  1   force =     0.00000000    0.00000000    0.00000000
     atom    4 type  1   force =     0.00000000    0.00000000    0.00000000
     atom    5 type  1   force =     0.00000000    0.00000000    0.00000000
     The Hubbard contrib.    to forces
     atom    1 type  2   force =     0.00000000    0.00000000    0.00000000
     atom    2 type  3   force =     0.00000000    0.00000000    0.00000000
     atom    3 type  1   force =     0.00000000    0.00000000    0.00000000
     atom    4 type  1   force =     0.00000000    0.00000000    0.00000000
     atom    5 type  1   force =     0.00000000    0.00000000    0.00000000
     The SCF correction term to forces
     atom    1 type  2   force =    -0.00000000    0.00000000    0.00000000
     atom    2 type  3   force =    -0.00000000    0.00000000   -0.00000000
     atom    3 type  1   force =    -0.00000000    0.00000000   -0.00000329
     atom    4 type  1   force =     0.00000000   -0.00000000   -0.00000329
     atom    5 type  1   force =     0.00000000    0.00000000   -0.00000409

     Total force =     0.012522     Total SCF correction =     0.000006


     Computing stress (Cartesian axis) and pressure

          total   stress  (Ry/bohr**3)                   (kbar)     P=      -19.58
  -0.00014291   0.00000000   0.00000000          -21.02        0.00        0.00
   0.00000000  -0.00014291   0.00000000            0.00      -21.02        0.00
   0.00000000   0.00000000  -0.00011357            0.00        0.00      -16.71

     Energy error            =      2.7E-04 Ry
     Gradient error          =      8.0E-03 Ry/Bohr

     number of scf cycles    =   7
     number of bfgs steps    =   6

     energy             old  =    -333.1818290427 Ry
     energy             new  =    -333.1820940643 Ry

     CASE: energy            _new < energy            _old

     new trust radius        =       0.0502925160 bohr
     new conv_thr            =       0.0000000027 Ry


ATOMIC_POSITIONS (angstrom)
Pb            0.0000000000        0.0000000000        0.0000000000    0   0   0
Ti            1.9400000000        1.9400000000        1.7970500000    0   0   0
O             0.0000000000        1.9400000000        1.8664269282
O             1.9400000000        0.0000000000        1.8664269282
O             1.9400000000        1.9400000000       -0.0916379832



     Writing config-only to output data dir /home/gridsan/epan1/labutil/lab3_samples/problem2/Lab3/PbTiO3_a_3.88_ecut_30_nk_4_displ_-0.0368421052631579/pwscf.save/
     NEW-OLD atomic charge density approx. for the potential

     total cpu time spent up to now is       32.2 secs

     Self-consistent Calculation

     iteration #  1     ecut=    30.00 Ry     beta= 0.70
     Davidson diagonalization with overlap
     ethr =  1.00E-06,  avg # of iterations =  8.8

     total cpu time spent up to now is       32.6 secs

     total energy              =    -333.18238883 Ry
     estimated scf accuracy    <       0.00050421 Ry

     iteration #  2     ecut=    30.00 Ry     beta= 0.70
     Davidson diagonalization with overlap
     ethr =  1.15E-06,  avg # of iterations =  2.8

     total cpu time spent up to now is       32.9 secs

     total energy              =    -333.18244952 Ry
     estimated scf accuracy    <       0.00006175 Ry

     iteration #  3     ecut=    30.00 Ry     beta= 0.70
     Davidson diagonalization with overlap
     ethr =  1.40E-07,  avg # of iterations =  4.7

     total cpu time spent up to now is       33.3 secs

     total energy              =    -333.18245857 Ry
     estimated scf accuracy    <       0.00005228 Ry

     iteration #  4     ecut=    30.00 Ry     beta= 0.70
     Davidson diagonalization with overlap
     ethr =  1.19E-07,  avg # of iterations =  4.2

     total cpu time spent up to now is       33.6 secs

     total energy              =    -333.18247109 Ry
     estimated scf accuracy    <       0.00000454 Ry

     iteration #  5     ecut=    30.00 Ry     beta= 0.70
     Davidson diagonalization with overlap
     ethr =  1.03E-08,  avg # of iterations =  4.3

     total cpu time spent up to now is       33.9 secs

     total energy              =    -333.18247168 Ry
     estimated scf accuracy    <       0.00000106 Ry

     iteration #  6     ecut=    30.00 Ry     beta= 0.70
     Davidson diagonalization with overlap
     ethr =  2.40E-09,  avg # of iterations =  4.5

     total cpu time spent up to now is       34.2 secs

     total energy              =    -333.18247198 Ry
     estimated scf accuracy    <       0.00000012 Ry

     iteration #  7     ecut=    30.00 Ry     beta= 0.70
     Davidson diagonalization with overlap
     ethr =  2.77E-10,  avg # of iterations =  3.3

     total cpu time spent up to now is       34.5 secs

     total energy              =    -333.18247198 Ry
     estimated scf accuracy    <       0.00000003 Ry

     iteration #  8     ecut=    30.00 Ry     beta= 0.70
     Davidson diagonalization with overlap
     ethr =  6.59E-11,  avg # of iterations =  4.8

     total cpu time spent up to now is       34.9 secs

     total energy              =    -333.18247200 Ry
     estimated scf accuracy    <       0.00000001 Ry

     iteration #  9     ecut=    30.00 Ry     beta= 0.70
     Davidson diagonalization with overlap
     ethr =  3.21E-11,  avg # of iterations =  1.7

     total cpu time spent up to now is       35.1 secs

     total energy              =    -333.18247199 Ry
     estimated scf accuracy    <          6.1E-09 Ry

     iteration # 10     ecut=    30.00 Ry     beta= 0.70
     Davidson diagonalization with overlap
     ethr =  1.38E-11,  avg # of iterations =  4.5

     total cpu time spent up to now is       35.4 secs

     End of self-consistent calculation

          k = 0.1250 0.1250 0.1250 (  1096 PWs)   bands (ev):

   -44.7286 -21.3404 -21.3342 -21.3334  -6.3806  -5.3123  -5.3092  -4.0250
    -4.0224  -4.0094  -3.8431  -3.8345   4.5988   7.2555   7.2615   8.0332
     9.0622   9.0882   9.8359   9.8617   9.9280  10.0681

          k = 0.1250 0.1250 0.3750 (  1095 PWs)   bands (ev):

   -44.7273 -21.3969 -21.3320 -21.3311  -5.9732  -5.1945  -5.1404  -4.0821
    -4.0192  -4.0055  -3.9316  -3.8125   3.8759   6.7905   7.2826   7.7876
     8.3949   8.6816   9.3384   9.8890  10.0645  10.8204

          k = 0.1250 0.3750 0.3750 (  1093 PWs)   bands (ev):

   -44.7261 -21.3936 -21.3871 -21.3296  -5.7597  -5.0667  -4.9971  -4.0575
    -4.0145  -3.9599  -3.8701  -3.7146   3.5091   6.7323   6.8195   7.1382
     7.4484   8.6253   9.3765   9.4456  10.0009  10.6667

          k = 0.3750 0.3750 0.3750 (  1082 PWs)   bands (ev):

   -44.7248 -21.3910 -21.3845 -21.3843  -5.3620  -5.1916  -5.1892  -3.9709
    -3.9680  -3.6816  -3.6172  -3.6081   4.1073   5.9051   5.9090   6.6583
     7.0011   7.0027   7.9626  10.6215  10.6282  10.7018

          k = 0.3750-0.1250 0.1250 (  1095 PWs)   bands (ev):

   -44.7273 -21.3905 -21.3380 -21.3315  -5.9744  -5.1969  -5.1424  -4.0838
    -4.0177  -4.0060  -3.9310  -3.8080   3.8692   6.7933   7.3043   7.8001
     8.3968   8.7065   9.3174   9.8854  10.0455  10.8054

          k = 0.3750-0.3750 0.1250 (  1093 PWs)   bands (ev):

   -44.7261 -21.3876 -21.3867 -21.3360  -5.7599  -5.0691  -5.0017  -4.0557
    -4.0105  -3.9510  -3.8646  -3.7280   3.4967   6.7606   6.8041   7.1408
     7.4418   8.6282   9.4148   9.4454   9.9900  10.6736

     highest occupied level (ev):    10.8204

!    total energy              =    -333.18247199 Ry
     estimated scf accuracy    <          1.0E-09 Ry

     The total energy is the sum of the following terms:
     one-electron contribution =     -77.24197534 Ry
     hartree contribution      =      66.49765415 Ry
     xc contribution           =     -49.63701096 Ry
     ewald contribution        =    -272.80113985 Ry

     convergence has been achieved in  10 iterations

     Forces acting on atoms (cartesian axes, Ry/au):

     atom    1 type  2   force =     0.00000000    0.00000000   -0.01197217
     atom    2 type  3   force =     0.00000000    0.00000000    0.01721977
     atom    3 type  1   force =     0.00000000    0.00000000   -0.00651495
     atom    4 type  1   force =     0.00000000    0.00000000   -0.00651495
     atom    5 type  1   force =     0.00000000    0.00000000    0.00778231
     The non-local contrib.  to forces
     atom    1 type  2   force =     0.00000000    0.00000000    0.06154793
     atom    2 type  3   force =     0.00000000    0.00000000   -0.01174906
     atom    3 type  1   force =     0.00000000    0.00000000   -0.10032862
[...]
     estimated scf accuracy    <       0.00031123 Ry

     iteration #  3     ecut=    30.00 Ry     beta= 0.70
     Davidson diagonalization with overlap
     ethr =  7.07E-07,  avg # of iterations =  4.5

     total cpu time spent up to now is       99.7 secs

     total energy              =    -333.18594252 Ry
     estimated scf accuracy    <       0.00006974 Ry

     iteration #  4     ecut=    30.00 Ry     beta= 0.70
     Davidson diagonalization with overlap
     ethr =  1.58E-07,  avg # of iterations =  3.2

     total cpu time spent up to now is      100.0 secs

     total energy              =    -333.18595042 Ry
     estimated scf accuracy    <       0.00000487 Ry

     iteration #  5     ecut=    30.00 Ry     beta= 0.70
     Davidson diagonalization with overlap
     ethr =  1.11E-08,  avg # of iterations =  5.0

     total cpu time spent up to now is      100.3 secs

     total energy              =    -333.18595386 Ry
     estimated scf accuracy    <       0.00000331 Ry

     iteration #  6     ecut=    30.00 Ry     beta= 0.70
     Davidson diagonalization with overlap
     ethr =  7.53E-09,  avg # of iterations =  2.3

     total cpu time spent up to now is      100.7 secs

     total energy              =    -333.18595358 Ry
     estimated scf accuracy    <       0.00000154 Ry

     iteration #  7     ecut=    30.00 Ry     beta= 0.70
     Davidson diagonalization with overlap
     ethr =  3.50E-09,  avg # of iterations =  4.2

     total cpu time spent up to now is      101.0 secs

     total energy              =    -333.18595395 Ry
     estimated scf accuracy    <       0.00000006 Ry

     iteration #  8     ecut=    30.00 Ry     beta= 0.70
     Davidson diagonalization with overlap
     ethr =  1.36E-10,  avg # of iterations =  4.7

     total cpu time spent up to now is      101.3 secs

     total energy              =    -333.18595396 Ry
     estimated scf accuracy    <       0.00000001 Ry

     iteration #  9     ecut=    30.00 Ry     beta= 0.70
     Davidson diagonalization with overlap
     ethr =  3.25E-11,  avg # of iterations =  3.8

     total cpu time spent up to now is      101.6 secs

     End of self-consistent calculation

          k = 0.1250 0.1250 0.1250 (  1096 PWs)   bands (ev):

   -44.7174 -21.3662 -21.3251 -21.3243  -6.5043  -5.4788  -5.3068  -3.9315
    -3.9290  -3.9004  -3.7674  -3.6452   4.6288   7.1175   7.2373   8.0182
     8.9572   8.9849   9.5434   9.6803   9.8488  10.1872

          k = 0.1250 0.1250 0.3750 (  1095 PWs)   bands (ev):

   -44.7162 -21.4229 -21.3228 -21.3219  -6.1460  -5.3885  -5.1013  -3.9700
    -3.9133  -3.8990  -3.7336  -3.7308   3.9211   6.7887   7.0447   7.6246
     8.4786   8.5751   9.2497   9.7543   9.9141  10.8905

          k = 0.1250 0.3750 0.3750 (  1093 PWs)   bands (ev):

   -44.7150 -21.4195 -21.3775 -21.3204  -5.9107  -5.2621  -5.0137  -3.9535
    -3.9078  -3.8525  -3.7389  -3.5469   3.5760   6.4975   6.8666   7.0689
     7.3621   8.5488   9.2690   9.3535  10.1116  10.5833

          k = 0.3750 0.3750 0.3750 (  1082 PWs)   bands (ev):

   -44.7137 -21.4168 -21.3749 -21.3748  -5.5066  -5.3683  -5.1825  -3.8657
    -3.8610  -3.6148  -3.4965  -3.4614   3.9713   5.8281   5.9075   6.5408
     7.0591   7.0600   8.2423  10.4626  10.5250  10.6139

          k = 0.3750-0.1250 0.1250 (  1095 PWs)   bands (ev):

   -44.7162 -21.3811 -21.3635 -21.3224  -6.0852  -5.3515  -5.2564  -3.9822
    -3.9192  -3.8959  -3.7544  -3.6522   3.8808   6.7252   7.2295   7.7473
     8.2764   8.7152   9.2152   9.7547   9.8620  10.8673

          k = 0.3750-0.3750 0.1250 (  1093 PWs)   bands (ev):

   -44.7150 -21.3784 -21.3773 -21.3613  -5.7757  -5.2670  -5.2465  -3.9512
    -3.8851  -3.7707  -3.6598  -3.6306   3.3809   6.6632   6.7646   7.1323
     7.5033   8.6604   9.3907   9.4074  10.0860  10.5002

     highest occupied level (ev):    10.8905

!    total energy              =    -333.18595397 Ry
     estimated scf accuracy    <          2.9E-10 Ry

     The total energy is the sum of the following terms:
     one-electron contribution =     -79.14141436 Ry
     hartree contribution      =      67.45498041 Ry
     xc contribution           =     -49.68073529 Ry
     ewald contribution        =    -271.81878472 Ry

     convergence has been achieved in   9 iterations

     Forces acting on atoms (cartesian axes, Ry/au):

     atom    1 type  2   force =     0.00000000    0.00000000   -0.00534459
     atom    2 type  3   force =     0.00000000    0.00000000    0.00476686
     atom    3 type  1   force =     0.00000000    0.00000000   -0.00031831
     atom    4 type  1   force =     0.00000000    0.00000000   -0.00031831
     atom    5 type  1   force =     0.00000000    0.00000000    0.00121436
     The non-local contrib.  to forces
     atom    1 type  2   force =     0.00000000    0.00000000    0.23429229
     atom    2 type  3   force =     0.00000000    0.00000000    0.00693647
     atom    3 type  1   force =     0.00000000    0.00000000   -0.08524425
     atom    4 type  1   force =     0.00000000    0.00000000   -0.08524425
     atom    5 type  1   force =     0.00000000    0.00000000   -0.21605504
     The ionic contribution  to forces
     atom    1 type  2   force =     0.00000000    0.00000000   -4.28528642
     atom    2 type  3   force =    -0.00000000   -0.00000000    0.47565990
     atom    3 type  1   force =     0.00000000   -0.00000000    0.97010380
     atom    4 type  1   force =    -0.00000000    0.00000000    0.97010380
     atom    5 type  1   force =    -0.00000000   -0.00000000    1.86941892
     The local contribution  to forces
     atom    1 type  2   force =    -0.00000000   -0.00000000    4.04564916
     atom    2 type  3   force =    -0.00000000   -0.00000000   -0.47781483
     atom    3 type  1   force =     0.00000000   -0.00000000   -0.88516506
     atom    4 type  1   force =    -0.00000000   -0.00000000   -0.88516506
     atom    5 type  1   force =    -0.00000000   -0.00000000   -1.65215430
     The core correction contribution to forces
     atom    1 type  2   force =     0.00000000    0.00000000    0.00000000
     atom    2 type  3   force =     0.00000000    0.00000000    0.00000000
     atom    3 type  1   force =     0.00000000    0.00000000    0.00000000
     atom    4 type  1   force =     0.00000000    0.00000000    0.00000000
     atom    5 type  1   force =     0.00000000    0.00000000    0.00000000
     The Hubbard contrib.    to forces
     atom    1 type  2   force =     0.00000000    0.00000000    0.00000000
     atom    2 type  3   force =     0.00000000    0.00000000    0.00000000
     atom    3 type  1   force =     0.00000000    0.00000000    0.00000000
     atom    4 type  1   force =     0.00000000    0.00000000    0.00000000
     atom    5 type  1   force =     0.00000000    0.00000000    0.00000000
     The SCF correction term to forces
     atom    1 type  2   force =     0.00000000   -0.00000000    0.00000000
     atom    2 type  3   force =    -0.00000000    0.00000000   -0.00000000
     atom    3 type  1   force =     0.00000000    0.00000000   -0.00000613
     atom    4 type  1   force =    -0.00000000    0.00000000   -0.00000613
     atom    5 type  1   force =     0.00000000    0.00000000    0.00001148

     Total force =     0.001295     Total SCF correction =     0.000014


     Computing stress (Cartesian axis) and pressure

          total   stress  (Ry/bohr**3)                   (kbar)     P=        2.09
  -0.00005487   0.00000000   0.00000000           -8.07        0.00        0.00
   0.00000000  -0.00005487   0.00000000            0.00       -8.07        0.00
   0.00000000   0.00000000   0.00015236            0.00        0.00       22.41

     Energy error            =      1.2E-04 Ry
     Gradient error          =      1.2E-03 Ry/Bohr

     number of scf cycles    =  24
     number of bfgs steps    =  23

     energy             old  =    -333.1858379465 Ry
     energy             new  =    -333.1859539669 Ry

     CASE: energy            _new < energy            _old

     new trust radius        =       0.0045165535 bohr
     new conv_thr            =       0.0000000012 Ry


ATOMIC_POSITIONS (angstrom)
Pb            0.0000000000        0.0000000000        0.0000000000    0   0   0
Ti            1.9400000000        1.9400000000        1.7970500000    0   0   0
O             0.0000000000        1.9400000000        1.6192760316
O             1.9400000000        0.0000000000        1.6192760316
O             1.9400000000        1.9400000000       -0.2706676558



     Writing config-only to output data dir /home/gridsan/epan1/labutil/lab3_samples/problem2/Lab3/PbTiO3_a_3.88_ecut_30_nk_4_displ_-0.0368421052631579/pwscf.save/
     NEW-OLD atomic charge density approx. for the potential

     total cpu time spent up to now is      102.9 secs

     Self-consistent Calculation

     iteration #  1     ecut=    30.00 Ry     beta= 0.70
     Davidson diagonalization with overlap
     ethr =  1.00E-06,  avg # of iterations =  2.7

     Threshold (ethr) on eigenvalues was too large:
     Diagonalizing with lowered threshold

     Davidson diagonalization with overlap
     ethr =  5.45E-09,  avg # of iterations =  6.0

     total cpu time spent up to now is      103.5 secs

     total energy              =    -333.18595317 Ry
     estimated scf accuracy    <       0.00000467 Ry

     iteration #  2     ecut=    30.00 Ry     beta= 0.70
     Davidson diagonalization with overlap
     ethr =  1.06E-08,  avg # of iterations =  5.0

     total cpu time spent up to now is      103.8 secs

     total energy              =    -333.18595309 Ry
     estimated scf accuracy    <       0.00000675 Ry

     iteration #  3     ecut=    30.00 Ry     beta= 0.70
     Davidson diagonalization with overlap
     ethr =  1.06E-08,  avg # of iterations =  4.5

     total cpu time spent up to now is      104.1 secs

     total energy              =    -333.18595458 Ry
     estimated scf accuracy    <       0.00000048 Ry

     iteration #  4     ecut=    30.00 Ry     beta= 0.70
     Davidson diagonalization with overlap
     ethr =  1.10E-09,  avg # of iterations =  3.0

     total cpu time spent up to now is      104.5 secs

     total energy              =    -333.18595464 Ry
     estimated scf accuracy    <       0.00000007 Ry

     iteration #  5     ecut=    30.00 Ry     beta= 0.70
     Davidson diagonalization with overlap
     ethr =  1.49E-10,  avg # of iterations =  4.5

     total cpu time spent up to now is      104.8 secs

     total energy              =    -333.18595466 Ry
     estimated scf accuracy    <          5.5E-09 Ry

     iteration #  6     ecut=    30.00 Ry     beta= 0.70
     Davidson diagonalization with overlap
     ethr =  1.25E-11,  avg # of iterations =  2.7

     total cpu time spent up to now is      105.1 secs

     total energy              =    -333.18595466 Ry
     estimated scf accuracy    <          1.8E-09 Ry

     iteration #  7     ecut=    30.00 Ry     beta= 0.70
     Davidson diagonalization with overlap
     ethr =  4.02E-12,  avg # of iterations =  4.8

     total cpu time spent up to now is      105.5 secs

     End of self-consistent calculation

          k = 0.1250 0.1250 0.1250 (  1096 PWs)   bands (ev):

   -44.7208 -21.3671 -21.3284 -21.3277  -6.5043  -5.4788  -5.3059  -3.9314
    -3.9290  -3.9003  -3.7671  -3.6457   4.6293   7.1174   7.2375   8.0167
     8.9609   8.9861   9.5491   9.6817   9.8488  10.1889

          k = 0.1250 0.1250 0.3750 (  1095 PWs)   bands (ev):

   -44.7195 -21.4238 -21.3261 -21.3252  -6.1462  -5.3884  -5.1002  -3.9699
    -3.9133  -3.8989  -3.7342  -3.7304   3.9226   6.7889   7.0463   7.6237
     8.4794   8.5781   9.2508   9.7556   9.9140  10.8900

          k = 0.1250 0.3750 0.3750 (  1093 PWs)   bands (ev):

   -44.7183 -21.4204 -21.3808 -21.3238  -5.9109  -5.2618  -5.0123  -3.9534
    -3.9078  -3.8523  -3.7390  -3.5475   3.5763   6.5001   6.8665   7.0679
     7.3625   8.5483   9.2693   9.3566  10.1122  10.5848

          k = 0.3750 0.3750 0.3750 (  1082 PWs)   bands (ev):

   -44.7170 -21.4176 -21.3783 -21.3781  -5.5065  -5.3681  -5.1816  -3.8655
    -3.8611  -3.6141  -3.4966  -3.4619   3.9721   5.8287   5.9083   6.5410
     7.0581   7.0584   8.2415  10.4626  10.5278  10.6162

          k = 0.3750-0.1250 0.1250 (  1095 PWs)   bands (ev):

   -44.7195 -21.3844 -21.3644 -21.3257  -6.0850  -5.3512  -5.2553  -3.9822
    -3.9191  -3.8956  -3.7547  -3.6526   3.8809   6.7248   7.2303   7.7469
     8.2774   8.7152   9.2192   9.7561   9.8649  10.8679

          k = 0.3750-0.3750 0.1250 (  1093 PWs)   bands (ev):

   -44.7183 -21.3817 -21.3806 -21.3622  -5.7749  -5.2664  -5.2462  -3.9513
    -3.8850  -3.7709  -3.6604  -3.6301   3.3813   6.6630   6.7634   7.1335
     7.5042   8.6606   9.3923   9.4083  10.0862  10.5004

     highest occupied level (ev):    10.8900

!    total energy              =    -333.18595466 Ry
     estimated scf accuracy    <          2.5E-10 Ry

     The total energy is the sum of the following terms:
     one-electron contribution =     -79.11983393 Ry
     hartree contribution      =      67.44336152 Ry
     xc contribution           =     -49.67977862 Ry
     ewald contribution        =    -271.82970364 Ry

     convergence has been achieved in   7 iterations

     Forces acting on atoms (cartesian axes, Ry/au):

     atom    1 type  2   force =     0.00000000    0.00000000   -0.00534809
     atom    2 type  3   force =     0.00000000    0.00000000    0.00545024
     atom    3 type  1   force =     0.00000000    0.00000000   -0.00002408
     atom    4 type  1   force =     0.00000000    0.00000000   -0.00002408
     atom    5 type  1   force =     0.00000000    0.00000000   -0.00005399
     The non-local contrib.  to forces
     atom    1 type  2   force =     0.00000000    0.00000000    0.23375476
     atom    2 type  3   force =     0.00000000    0.00000000    0.00654695
     atom    3 type  1   force =     0.00000000    0.00000000   -0.08432055
     atom    4 type  1   force =     0.00000000    0.00000000   -0.08432055
     atom    5 type  1   force =     0.00000000    0.00000000   -0.21316998
     The ionic contribution  to forces
     atom    1 type  2   force =     0.00000000    0.00000000   -4.28414848
     atom    2 type  3   force =    -0.00000000   -0.00000000    0.52357223
     atom    3 type  1   force =     0.00000000   -0.00000000    0.97562220
     atom    4 type  1   force =    -0.00000000    0.00000000    0.97562220
     atom    5 type  1   force =    -0.00000000   -0.00000000    1.80933185
     The local contribution  to forces
     atom    1 type  2   force =     0.00000000   -0.00000000    4.04504960
     atom    2 type  3   force =    -0.00000000   -0.00000000   -0.52462528
     atom    3 type  1   force =     0.00000000   -0.00000000   -0.89131745
     atom    4 type  1   force =    -0.00000000    0.00000000   -0.89131745
     atom    5 type  1   force =    -0.00000000   -0.00000000   -1.59621424
     The core correction contribution to forces
     atom    1 type  2   force =     0.00000000    0.00000000    0.00000000
     atom    2 type  3   force =     0.00000000    0.00000000    0.00000000
     atom    3 type  1   force =     0.00000000    0.00000000    0.00000000
     atom    4 type  1   force =     0.00000000    0.00000000    0.00000000
     atom    5 type  1   force =     0.00000000    0.00000000    0.00000000
     The Hubbard contrib.    to forces
     atom    1 type  2   force =     0.00000000    0.00000000    0.00000000
     atom    2 type  3   force =     0.00000000    0.00000000    0.00000000
     atom    3 type  1   force =     0.00000000    0.00000000    0.00000000
     atom    4 type  1   force =     0.00000000    0.00000000    0.00000000
     atom    5 type  1   force =     0.00000000    0.00000000    0.00000000
     The SCF correction term to forces
     atom    1 type  2   force =     0.00000000   -0.00000000    0.00000000
     atom    2 type  3   force =     0.00000000    0.00000000   -0.00000000
     atom    3 type  1   force =    -0.00000000   -0.00000000   -0.00000144
     atom    4 type  1   force =    -0.00000000   -0.00000000   -0.00000144
     atom    5 type  1   force =     0.00000000    0.00000000    0.00000521

     Total force =     0.000064     Total SCF correction =     0.000006


     Computing stress (Cartesian axis) and pressure

          total   stress  (Ry/bohr**3)                   (kbar)     P=        1.46
  -0.00005656   0.00000000   0.00000000           -8.32        0.00        0.00
   0.00000000  -0.00005656   0.00000000            0.00       -8.32        0.00
   0.00000000   0.00000000   0.00014291            0.00        0.00       21.02

     Energy error            =      7.0E-07 Ry
     Gradient error          =      5.4E-05 Ry/Bohr

     bfgs converged in  25 scf cycles and  24 bfgs steps
     (criteria: energy <  1.0E-04 Ry, force <  1.0E-03 Ry/Bohr)

     End of BFGS Geometry Optimization

     Final energy             =    -333.1859546646 Ry

     File /home/gridsan/epan1/labutil/lab3_samples/problem2/Lab3/PbTiO3_a_3.88_ecut_30_nk_4_displ_-0.0368421052631579/pwscf.bfgs deleted, as requested
Begin final coordinates

ATOMIC_POSITIONS (angstrom)
Pb            0.0000000000        0.0000000000        0.0000000000    0   0   0
Ti            1.9400000000        1.9400000000        1.7970500000    0   0   0
O             0.0000000000        1.9400000000        1.6192760316
O             1.9400000000        0.0000000000        1.6192760316
O             1.9400000000        1.9400000000       -0.2706676558
End final coordinates



     init_run     :      0.69s CPU      0.70s WALL (       1 calls)
     electrons    :     89.50s CPU     73.50s WALL (      25 calls)
     update_pot   :      0.75s CPU      0.77s WALL (      24 calls)
     forces       :      3.60s CPU      2.81s WALL (      25 calls)
     stress       :     26.79s CPU     22.35s WALL (      25 calls)

     Called by init_run:
     wfcinit      :      0.09s CPU      0.08s WALL (       1 calls)
     potinit      :      0.04s CPU      0.04s WALL (       1 calls)
     hinit0       :      0.46s CPU      0.47s WALL (       1 calls)

     Called by electrons:
     c_bands      :     51.50s CPU     40.24s WALL (     220 calls)
     sum_band     :     23.46s CPU     20.34s WALL (     220 calls)
     v_of_rho     :      0.78s CPU      0.75s WALL (     239 calls)
     newd         :     14.15s CPU     12.34s WALL (     239 calls)
     mix_rho      :      0.45s CPU      0.44s WALL (     220 calls)

     Called by c_bands:
     init_us_2    :      1.56s CPU      1.23s WALL (    2946 calls)
     init_us_2:cp :      1.55s CPU      1.22s WALL (    2946 calls)
     cegterg      :     47.51s CPU     36.58s WALL (    1320 calls)

     Called by *egterg:
     cdiaghg      :      8.38s CPU      6.30s WALL (    6869 calls)
     h_psi        :     31.42s CPU     24.63s WALL (    7055 calls)
     s_psi        :      1.39s CPU      1.04s WALL (    7055 calls)
     g_psi        :      0.33s CPU      0.24s WALL (    5729 calls)

     Called by h_psi:
     h_psi:calbec :      1.94s CPU      1.52s WALL (    7055 calls)
     vloc_psi     :     27.85s CPU     21.87s WALL (    7055 calls)
     add_vuspsi   :      1.44s CPU      1.10s WALL (    7055 calls)

     General routines
     calbec       :      2.70s CPU      2.13s WALL (    9125 calls)
     fft          :      1.34s CPU      1.33s WALL (    1539 calls)
     ffts         :      0.13s CPU      0.11s WALL (     459 calls)
     fftw         :     26.36s CPU     20.79s WALL (  208328 calls)
     interpolate  :      0.28s CPU      0.25s WALL (     239 calls)

     Parallel routines

     PWSCF        :   2m 3.78s CPU   1m46.77s WALL


   This run was terminated on:  18: 3:47   2Nov2023            

=------------------------------------------------------------------------------=
   JOB DONE.
=------------------------------------------------------------------------------=
