LAMMPS (29 Oct 2020)
Reading data file ...
  orthogonal box = (0.0000000 0.0000000 0.0000000) to (16.360000 16.360000 4.0900000)
  1 by 1 by 1 MPI processor grid
  reading atoms ...
  64 atoms
  read_data CPU = 0.001 seconds
Reading eam potential file /home/gridsan/epan1/3320_atomistic_shared/lammps/potentials/Ag_u3.eam with DATE: 2007-06-11
WARNING: No fixes defined, atoms won't move (../verlet.cpp:54)
Neighbor list info ...
  update every 1 steps, delay 10 steps, check yes
  max neighbors/atom: 2000, page size: 100000
  master list distance cutoff = 7.55
  ghost atom cutoff = 7.55
  binsize = 3.775, bins = 5 5 2
  1 neighbor lists, perpetual/occasional/extra = 1 0 0
  (1) pair eam, perpetual
      attributes: half, newton on
      pair build: half/bin/atomonly/newton
      stencil: half/bin/3d/newton
      bin: standard
Setting up Verlet run ...
  Unit style    : metal
  Current step  : 0
  Time step     : 0.001
Per MPI rank memory allocation (min/avg/max) = 3.340 | 3.340 | 3.340 Mbytes
Step PotEng Lx Ly Lz Press Pxx Pyy Pzz 
       0       -182.4        16.36        16.36         4.09 -0.058146225 -0.058146225 -0.058146225 -0.058146225 
Loop time of 0 on 1 procs for 0 steps with 64 atoms

0.0% CPU use with 1 MPI tasks x no OpenMP threads

MPI task timing breakdown:
Section |  min time  |  avg time  |  max time  |%varavg| %total
---------------------------------------------------------------
Pair    | 0          | 0          | 0          |   0.0 |  0.00
Neigh   | 0          | 0          | 0          |   0.0 |  0.00
Comm    | 0          | 0          | 0          |   0.0 |  0.00
Output  | 0          | 0          | 0          |   0.0 |  0.00
Modify  | 0          | 0          | 0          |   0.0 |  0.00
Other   |            | 0          |            |       |  0.00

Nlocal:        64.0000 ave          64 max          64 min
Histogram: 1 0 0 0 0 0 0 0 0 0
Nghost:        948.000 ave         948 max         948 min
Histogram: 1 0 0 0 0 0 0 0 0 0
Neighs:        2752.00 ave        2752 max        2752 min
Histogram: 1 0 0 0 0 0 0 0 0 0

Total # of neighbors = 2752
Ave neighs/atom = 43.000000
Neighbor list builds = 0
Dangerous builds = 0
WARNING: Using 'neigh_modify every 1 delay 0 check yes' setting during minimization (../min.cpp:187)
Setting up cg style minimization ...
  Unit style    : metal
  Current step  : 0
WARNING: Energy due to 1 extra global DOFs will be included in minimizer energies
Per MPI rank memory allocation (min/avg/max) = 4.465 | 4.465 | 4.465 Mbytes
Step PotEng Lx Ly Lz Press Pxx Pyy Pzz 
       0       -182.4        16.36        16.36         4.09 -0.058146225 -0.058146225 -0.058146225 -0.058146225 
       1       -182.4        16.36        16.36    4.0899999 -4.0693813e-05 -4.0693812e-05 -4.0693813e-05 -4.0693814e-05 
Loop time of 0.000274897 on 1 procs for 1 steps with 64 atoms

0.0% CPU use with 1 MPI tasks x no OpenMP threads

Minimization stats:
  Stopping criterion = energy tolerance
  Energy initial, next-to-last, final = 
     -182.400000100237  -182.400000100237   -182.40000010024
  Force two-norm initial, final = 0.0001191852 8.3412123e-08
  Force max component initial, final = 0.0001191852 8.3412123e-08
  Final line search alpha, max atom move = 1.0000000 8.3412123e-08
  Iterations, force evaluations = 1 2

MPI task timing breakdown:
Section |  min time  |  avg time  |  max time  |%varavg| %total
---------------------------------------------------------------
Pair    | 0.00022578 | 0.00022578 | 0.00022578 |   0.0 | 82.13
Neigh   | 0          | 0          | 0          |   0.0 |  0.00
Comm    | 1.0014e-05 | 1.0014e-05 | 1.0014e-05 |   0.0 |  3.64
Output  | 0          | 0          | 0          |   0.0 |  0.00
Modify  | 0          | 0          | 0          |   0.0 |  0.00
Other   |            | 3.91e-05   |            |       | 14.22

Nlocal:        64.0000 ave          64 max          64 min
Histogram: 1 0 0 0 0 0 0 0 0 0
Nghost:        948.000 ave         948 max         948 min
Histogram: 1 0 0 0 0 0 0 0 0 0
Neighs:        2752.00 ave        2752 max        2752 min
Histogram: 1 0 0 0 0 0 0 0 0 0

Total # of neighbors = 2752
Ave neighs/atom = 43.000000
Neighbor list builds = 0
Dangerous builds = 0
Total energy (eV) = -182.40000010024
Number of atoms = 64
Lattice constant (Angstoms) = 16.3599996945554
Total wall time: 0:00:00
