
     Program PWSCF v.7.2 starts on  1Nov2023 at 16:41:57 

     This program is part of the open-source Quantum ESPRESSO suite
     for quantum simulation of materials; please cite
         "P. Giannozzi et al., J. Phys.:Condens. Matter 21 395502 (2009);
         "P. Giannozzi et al., J. Phys.:Condens. Matter 29 465901 (2017);
         "P. Giannozzi et al., J. Chem. Phys. 152 154105 (2020);
          URL http://www.quantum-espresso.org", 
     in publications or presentations arising from this work. More details at
     http://www.quantum-espresso.org/quote

     Parallel version (MPI), running on     4 processors

     MPI processes distributed on     4 nodes
     185281 MiB available memory on the printing compute node when the environment starts

     Waiting for input...
     Reading input from standard input
Warning: card &CELL ignored
Warning: card / ignored

     Current dimensions of program PWSCF are:
     Max number of different atomic species (ntypx) = 10
     Max number of k-points (npk) =  40000
     Max angular momentum in pseudopotentials (lmaxx) =  4
     file Fe.pbe-nd-rrkjus.UPF: wavefunction(s)  4S renormalized
     Message from routine setup:
     using ibrav=0 with symmetry is DISCOURAGED, use correct ibrav instead

     R & G space division:  proc/nbgrp/npool/nimage =       4
     Subspace diagonalization in iterative solution of the eigenvalue problem:
     a serial algorithm will be used


     Parallelization info
     --------------------
     sticks:   dense  smooth     PW     G-vecs:    dense   smooth      PW
     Min          75      37     13                  829      289      62
     Max          76      38     14                  830      290      63
     Sum         303     151     55                 3319     1157     249

     Using Slab Decomposition



     bravais-lattice index     =            0
     lattice parameter (alat)  =       4.0914  a.u.
     unit-cell volume          =      52.7214 (a.u.)^3
     number of atoms/cell      =            1
     number of atomic types    =            1
     number of electrons       =         8.00
     number of Kohn-Sham states=            8
     kinetic-energy cutoff     =      30.0000  Ry
     charge density cutoff     =     240.0000  Ry
     scf convergence threshold =      1.0E-07
     mixing beta               =       0.5000
     number of iterations used =            8  plain     mixing
     Exchange-correlation=  SLA  PW   PBE  PBE
                           (   1   4   3   4   0   0   0)

     celldm(1)=   4.091377  celldm(2)=   0.000000  celldm(3)=   0.000000
     celldm(4)=   0.000000  celldm(5)=   0.000000  celldm(6)=   0.000000

     crystal axes: (cart. coord. in units of alat)
               a(1) = (  -0.577350   0.577350   0.577350 )  
               a(2) = (   0.577350  -0.577350   0.577350 )  
               a(3) = (   0.577350   0.577350  -0.577350 )  

     reciprocal axes: (cart. coord. in units 2 pi/alat)
               b(1) = (  0.000000  0.866025  0.866025 )  
               b(2) = (  0.866025  0.000000  0.866025 )  
               b(3) = (  0.866025  0.866025  0.000000 )  


     PseudoPot. # 1 for Fe read from file:
     /home/gridsan/epan1/labutil/lab3_samples/pseudopotentials/Fe.pbe-nd-rrkjus.UPF
     MD5 check sum: 398036227a04b607635f6f5e8dfd8242
     Pseudo is Ultrasoft + core correction, Zval =  8.0
     Generated by new atomic code, or converted to UPF format
     Using radial grid of  957 points,  6 beta functions with: 
                l(1) =   0
                l(2) =   0
                l(3) =   1
                l(4) =   1
                l(5) =   2
                l(6) =   2
     Q(r) pseudized with 0 coefficients 


     atomic species   valence    mass     pseudopotential
        Fe             8.00    55.84500     Fe( 1.00)

     Starting magnetic structure 
     atomic species   magnetization
        Fe           0.700

     48 Sym. Ops., with inversion, found



   Cartesian axes

     site n.     atom                  positions (alat units)
         1           Fe  tau(   1) = (   0.0000000   0.0000000   0.0000000  )

     number of k points=    20  Methfessel-Paxton smearing, width (Ry)=  0.0200
                       cart. coord. in units 2pi/alat
        k(    1) = (   0.0000000   0.0000000   0.0000000), wk =   0.0029155
        k(    2) = (   0.1237179   0.1237179   0.0000000), wk =   0.0349854
        k(    3) = (   0.2474358   0.2474358   0.0000000), wk =   0.0349854
        k(    4) = (   0.3711537   0.3711537   0.0000000), wk =   0.0349854
        k(    5) = (   0.2474358   0.1237179   0.1237179), wk =   0.0699708
        k(    6) = (   0.3711537   0.2474358   0.1237179), wk =   0.1399417
        k(    7) = (   0.4948717   0.3711537   0.1237179), wk =   0.0699708
        k(    8) = (   0.4948717   0.2474358   0.2474358), wk =   0.0699708
        k(    9) = (   0.2474358   0.2474358   0.2474358), wk =   0.0233236
        k(   10) = (   0.3711537   0.3711537   0.2474358), wk =   0.0699708
        k(   11) = (  -0.0000000  -0.0000000   0.2474358), wk =   0.0174927
        k(   12) = (   0.4948717   0.3711537   0.3711537), wk =   0.0233236
        k(   13) = (   0.0000000  -0.1237179   0.3711537), wk =   0.0699708
        k(   14) = (  -0.0000000  -0.2474358   0.4948717), wk =   0.0699708
        k(   15) = (   0.1237179  -0.1237179   0.4948717), wk =   0.0699708
        k(   16) = (  -0.7423075  -0.2474358  -0.2474358), wk =   0.0699708
        k(   17) = (   0.0000000   0.0000000   0.4948717), wk =   0.0174927
        k(   18) = (  -0.0000000  -0.1237179   0.6185896), wk =   0.0699708
        k(   19) = (  -0.7423075  -0.1237179  -0.1237179), wk =   0.0233236
        k(   20) = (  -0.0000000  -0.0000000   0.7423075), wk =   0.0174927

     Dense  grid:     3319 G-vectors     FFT dimensions: (  24,  24,  24)

     Smooth grid:     1157 G-vectors     FFT dimensions: (  15,  15,  15)

     Estimated max dynamical RAM per process >       4.96 MB

     Estimated total dynamical RAM >      19.85 MB
     Generating pointlists ...
     new r_m :   0.4125 (alat units)  1.6877 (a.u.) for type    1

     Initial potential from superposition of free atoms

     starting charge       7.9994, renormalised to       8.0000
     Starting wfcs are    6 randomized atomic wfcs +    2 random wfcs

     total cpu time spent up to now is        0.4 secs

     Self-consistent Calculation

     iteration #  1     ecut=    30.00 Ry     beta= 0.50
     Davidson diagonalization with overlap
     ethr =  1.00E-02,  avg # of iterations =  4.4

     total cpu time spent up to now is        0.5 secs

     total energy              =     -55.59972253 Ry
     estimated scf accuracy    <       0.26587308 Ry

     total magnetization       =     2.43 Bohr mag/cell
     absolute magnetization    =     2.43 Bohr mag/cell

     iteration #  2     ecut=    30.00 Ry     beta= 0.50
     Davidson diagonalization with overlap
     ethr =  3.32E-03,  avg # of iterations =  1.5

     total cpu time spent up to now is        0.6 secs

     total energy              =     -55.67142212 Ry
     estimated scf accuracy    <       0.02628182 Ry

     total magnetization       =     2.38 Bohr mag/cell
     absolute magnetization    =     2.38 Bohr mag/cell

     iteration #  3     ecut=    30.00 Ry     beta= 0.50
     Davidson diagonalization with overlap
     ethr =  3.29E-04,  avg # of iterations =  1.2

     total cpu time spent up to now is        0.6 secs

     total energy              =     -55.68933296 Ry
     estimated scf accuracy    <       0.01170863 Ry

     total magnetization       =     2.16 Bohr mag/cell
     absolute magnetization    =     2.17 Bohr mag/cell

     iteration #  4     ecut=    30.00 Ry     beta= 0.50
     Davidson diagonalization with overlap
     ethr =  1.46E-04,  avg # of iterations =  1.4

     total cpu time spent up to now is        0.7 secs

     total energy              =     -55.69935552 Ry
     estimated scf accuracy    <       0.00225185 Ry

     total magnetization       =     1.74 Bohr mag/cell
     absolute magnetization    =     1.79 Bohr mag/cell

     iteration #  5     ecut=    30.00 Ry     beta= 0.50
     Davidson diagonalization with overlap
     ethr =  2.81E-05,  avg # of iterations =  4.2

     total cpu time spent up to now is        0.8 secs

     total energy              =     -55.70003911 Ry
     estimated scf accuracy    <       0.00107086 Ry

     total magnetization       =     1.69 Bohr mag/cell
     absolute magnetization    =     1.74 Bohr mag/cell

     iteration #  6     ecut=    30.00 Ry     beta= 0.50
     Davidson diagonalization with overlap
     ethr =  1.34E-05,  avg # of iterations =  1.8

     total cpu time spent up to now is        0.9 secs

     total energy              =     -55.70048056 Ry
     estimated scf accuracy    <       0.00015595 Ry

     total magnetization       =     1.63 Bohr mag/cell
     absolute magnetization    =     1.67 Bohr mag/cell

     iteration #  7     ecut=    30.00 Ry     beta= 0.50
     Davidson diagonalization with overlap
     ethr =  1.95E-06,  avg # of iterations =  3.8

     total cpu time spent up to now is        1.0 secs

     total energy              =     -55.70056919 Ry
     estimated scf accuracy    <       0.00012681 Ry

     total magnetization       =     1.62 Bohr mag/cell
     absolute magnetization    =     1.66 Bohr mag/cell

     iteration #  8     ecut=    30.00 Ry     beta= 0.50
     Davidson diagonalization with overlap
     ethr =  1.59E-06,  avg # of iterations =  1.1

     total cpu time spent up to now is        1.1 secs

     total energy              =     -55.70058688 Ry
     estimated scf accuracy    <       0.00005801 Ry

     total magnetization       =     1.60 Bohr mag/cell
     absolute magnetization    =     1.64 Bohr mag/cell

     iteration #  9     ecut=    30.00 Ry     beta= 0.50
     Davidson diagonalization with overlap
     ethr =  7.25E-07,  avg # of iterations =  1.9

     total cpu time spent up to now is        1.2 secs

     total energy              =     -55.70065538 Ry
     estimated scf accuracy    <       0.00000189 Ry

     total magnetization       =     1.57 Bohr mag/cell
     absolute magnetization    =     1.60 Bohr mag/cell

     iteration # 10     ecut=    30.00 Ry     beta= 0.50
     Davidson diagonalization with overlap
     ethr =  2.36E-08,  avg # of iterations =  3.9

     total cpu time spent up to now is        1.4 secs

     total energy              =     -55.70065721 Ry
     estimated scf accuracy    <       0.00000220 Ry

     total magnetization       =     1.57 Bohr mag/cell
     absolute magnetization    =     1.60 Bohr mag/cell

     iteration # 11     ecut=    30.00 Ry     beta= 0.50
     Davidson diagonalization with overlap
     ethr =  2.36E-08,  avg # of iterations =  1.4

     Magnetic moment per site  (integrated on atomic sphere of radius R)
     atom   1 (R=0.413)  charge=  6.2184  magn=  1.5540

     total cpu time spent up to now is        1.5 secs

     End of self-consistent calculation

 ------ SPIN UP ------------


          k = 0.0000 0.0000 0.0000 (   141 PWs)   bands (ev):

    11.0364  18.3767  18.3767  18.3767  20.5521  20.5521  49.8036  49.8038

          k = 0.1237 0.1237 0.0000 (   144 PWs)   bands (ev):

    12.1422  17.9789  18.2797  19.1361  20.2394  20.5911  46.7134  48.8942

          k = 0.2474 0.2474 0.0000 (   150 PWs)   bands (ev):

    14.1967  17.1481  18.4909  20.3629  20.7406  21.0276  40.4904  45.7389

          k = 0.3712 0.3712 0.0000 (   152 PWs)   bands (ev):

    14.2790  16.5353  20.6062  20.9288  21.7147  22.8097  34.4656  43.2988

          k = 0.2474 0.1237 0.1237 (   149 PWs)   bands (ev):

    13.9350  17.5670  17.6293  20.0029  20.7118  20.9231  43.4123  45.0943

          k = 0.3712 0.2474 0.1237 (   146 PWs)   bands (ev):

    15.0722  16.8178  18.3540  20.3864  21.2037  23.6321  37.4513  41.9103

          k = 0.4949 0.3712 0.1237 (   148 PWs)   bands (ev):

    14.8079  16.5808  19.3338  20.6428  21.7269  26.0846  33.2565  40.7990

          k = 0.4949 0.2474 0.2474 (   147 PWs)   bands (ev):

    15.9130  16.6496  17.7368  20.7347  21.3426  28.2386  34.4056  36.7260

          k = 0.2474 0.2474 0.2474 (   150 PWs)   bands (ev):

    15.9684  16.7767  16.7767  20.7058  20.7058  23.7160  40.6158  40.6158

          k = 0.3712 0.3712 0.2474 (   148 PWs)   bands (ev):

    15.8648  16.4267  18.2635  20.8780  20.9784  27.4600  34.8674  38.9021

          k =-0.0000-0.0000 0.2474 (   148 PWs)   bands (ev):

    13.1380  18.4400  18.4400  19.1138  19.1601  21.1288  45.5516  49.2372

          k = 0.4949 0.3712 0.3712 (   146 PWs)   bands (ev):

    16.2302  17.2278  17.2278  21.0208  21.0208  32.2267  32.2267  35.5930

          k = 0.0000-0.1237 0.3712 (   148 PWs)   bands (ev):

    14.9501  17.6026  17.9355  19.5557  20.8515  22.0151  41.1182  45.3055

          k =-0.0000-0.2474 0.4949 (   145 PWs)   bands (ev):

    14.8987  17.4132  17.9266  20.0992  22.7001  24.9669  34.7536  43.4608

          k = 0.1237-0.1237 0.4949 (   147 PWs)   bands (ev):

    15.8810  16.2936  18.1874  20.0065  21.7604  25.2645  38.1519  39.4065

          k =-0.7423-0.2474-0.2474 (   142 PWs)   bands (ev):

    15.5420  16.6697  17.5757  20.5975  22.2460  29.2944  33.3497  37.7882

          k = 0.0000 0.0000 0.4949 (   144 PWs)   bands (ev):

    15.6404  16.2598  19.5596  19.5596  20.8653  24.2917  42.6569  42.8035

          k =-0.0000-0.1237 0.6186 (   142 PWs)   bands (ev):

    15.0751  15.5073  19.6956  20.3676  22.4600  28.5321  35.8478  39.6746

          k =-0.7423-0.1237-0.1237 (   140 PWs)   bands (ev):

    14.8216  14.8216  19.8710  22.0998  22.0998  33.4092  33.4092  35.4902

          k =-0.0000-0.0000 0.7423 (   136 PWs)   bands (ev):

    14.1708  14.2471  21.9958  21.9958  22.3756  32.2998  36.1214  36.1214

 ------ SPIN DOWN ----------


          k = 0.0000 0.0000 0.0000 (   141 PWs)   bands (ev):

    11.2438  19.7555  19.7555  19.7555  22.9133  22.9133  49.7860  49.7861

          k = 0.1237 0.1237 0.0000 (   144 PWs)   bands (ev):

    12.3638  19.3191  19.6385  20.5465  22.5059  22.9530  47.0726  49.0376

          k = 0.2474 0.2474 0.0000 (   150 PWs)   bands (ev):

    14.6952  18.4158  19.5741  22.4343  22.5299  23.1244  41.2117  45.9851

          k = 0.3712 0.3712 0.0000 (   152 PWs)   bands (ev):

    15.2642  17.7554  21.9443  22.7918  23.3548  24.4230  35.4820  43.4891

          k = 0.2474 0.1237 0.1237 (   149 PWs)   bands (ev):

    14.2403  18.8933  18.9229  22.1261  22.1804  23.2464  43.9991  45.5325

          k = 0.3712 0.2474 0.1237 (   146 PWs)   bands (ev):

    15.9208  18.0618  19.3671  22.3918  23.4354  25.0189  38.2746  42.3898

          k = 0.4949 0.3712 0.1237 (   148 PWs)   bands (ev):

    15.8658  17.7801  20.5488  22.6976  23.6980  27.1558  34.3190  41.2555

          k = 0.4949 0.2474 0.2474 (   147 PWs)   bands (ev):

    16.9703  17.9026  18.8751  22.7367  23.4075  29.3330  35.3110  37.3804

          k = 0.2474 0.2474 0.2474 (   150 PWs)   bands (ev):

    16.4090  18.0019  18.0019  23.0041  23.0041  25.0627  41.2290  41.2290

          k = 0.3712 0.3712 0.2474 (   148 PWs)   bands (ev):

    16.8846  17.5625  19.1308  23.1363  23.4032  28.5187  35.7131  39.4802

          k =-0.0000-0.0000 0.2474 (   148 PWs)   bands (ev):

    13.3911  19.7770  19.7770  20.5271  21.2801  23.5188  46.0281  49.5728

          k = 0.4949 0.3712 0.3712 (   146 PWs)   bands (ev):

    17.2851  18.2473  18.2473  23.4014  23.4014  33.0680  33.0680  36.3090

          k = 0.0000-0.1237 0.3712 (   148 PWs)   bands (ev):

    15.5141  19.1441  19.2274  21.1965  22.3414  24.1627  41.8608  45.7433

          k =-0.0000-0.2474 0.4949 (   145 PWs)   bands (ev):

    16.0105  18.6650  19.3570  21.9024  24.3059  26.2689  35.7198  43.9216

          k = 0.1237-0.1237 0.4949 (   147 PWs)   bands (ev):

    16.8749  17.8298  19.5015  21.5838  23.4475  26.6546  39.0356  39.9776

          k =-0.7423-0.2474-0.2474 (   142 PWs)   bands (ev):

    16.8760  18.1073  18.8248  22.2357  23.8930  30.3292  34.3246  38.4283

          k = 0.0000 0.0000 0.4949 (   144 PWs)   bands (ev):

    16.6233  17.9837  20.8939  20.8939  22.3691  25.8589  43.1722  43.1722

          k =-0.0000-0.1237 0.6186 (   142 PWs)   bands (ev):

    16.5364  16.9709  21.0506  21.7905  24.0502  29.5230  36.5976  40.1206

          k =-0.7423-0.1237-0.1237 (   140 PWs)   bands (ev):

    16.3166  16.3166  21.2011  23.6493  23.6493  34.1595  34.1595  36.0114

          k =-0.0000-0.0000 0.7423 (   136 PWs)   bands (ev):

    15.6818  15.7162  23.5158  23.5158  23.9675  32.8550  36.4429  36.4429

     the Fermi energy is    21.7785 ev

!    total energy              =     -55.70065797 Ry
     estimated scf accuracy    <       0.00000009 Ry
     smearing contrib. (-TS)   =      -0.00017494 Ry
     internal energy E=F+TS    =     -55.70048303 Ry

     The total energy is F=E-TS. E is the sum of the following terms:
     one-electron contribution =      15.68265346 Ry
     hartree contribution      =       4.68065589 Ry
     xc contribution           =     -26.76332756 Ry
     ewald contribution        =     -49.30046482 Ry

     total magnetization       =     1.57 Bohr mag/cell
     absolute magnetization    =     1.60 Bohr mag/cell

     convergence has been achieved in  11 iterations

     Forces acting on atoms (cartesian axes, Ry/au):

     atom    1 type  1   force =     0.00000000    0.00000000    0.00000000
     The non-local contrib.  to forces
     atom    1 type  1   force =     0.00000000    0.00000000    0.00000000
     The ionic contribution  to forces
     atom    1 type  1   force =    -0.00000000   -0.00000000   -0.00000000
     The local contribution  to forces
     atom    1 type  1   force =    -0.00000000   -0.00000000   -0.00000000
     The core correction contribution to forces
     atom    1 type  1   force =    -0.00000000   -0.00000000   -0.00000000
     The Hubbard contrib.    to forces
     atom    1 type  1   force =     0.00000000    0.00000000    0.00000000
     The SCF correction term to forces
     atom    1 type  1   force =    -0.00000000   -0.00000000   -0.00000000

     Total force =     0.000000     Total SCF correction =     0.000000


     Computing stress (Cartesian axis) and pressure

          total   stress  (Ry/bohr**3)                   (kbar)     P=     1659.82
   0.01128321  -0.00000000  -0.00000000         1659.82       -0.00       -0.00
  -0.00000000   0.01128321  -0.00000000           -0.00     1659.82       -0.00
  -0.00000000  -0.00000000   0.01128321           -0.00       -0.00     1659.82


     init_run     :      0.20s CPU      0.22s WALL (       1 calls)
     electrons    :      0.91s CPU      1.11s WALL (       1 calls)
     forces       :      0.02s CPU      0.02s WALL (       1 calls)
     stress       :      0.06s CPU      0.05s WALL (       1 calls)

     Called by init_run:
     wfcinit      :      0.02s CPU      0.02s WALL (       1 calls)
     potinit      :      0.01s CPU      0.02s WALL (       1 calls)
     hinit0       :      0.17s CPU      0.18s WALL (       1 calls)

     Called by electrons:
     c_bands      :      0.69s CPU      0.88s WALL (      11 calls)
     sum_band     :      0.12s CPU      0.13s WALL (      11 calls)
     v_of_rho     :      0.06s CPU      0.05s WALL (      12 calls)
     newd         :      0.03s CPU      0.02s WALL (      12 calls)
     mix_rho      :      0.01s CPU      0.01s WALL (      11 calls)

     Called by c_bands:
     init_us_2    :      0.02s CPU      0.02s WALL (    1000 calls)
     init_us_2:cp :      0.02s CPU      0.02s WALL (    1000 calls)
     cegterg      :      0.59s CPU      0.65s WALL (     440 calls)

     Called by *egterg:
     cdiaghg      :      0.13s CPU      0.14s WALL (    1507 calls)
     h_psi        :      0.34s CPU      0.38s WALL (    1547 calls)
     s_psi        :      0.01s CPU      0.01s WALL (    1547 calls)
     g_psi        :      0.00s CPU      0.00s WALL (    1067 calls)

     Called by h_psi:
     h_psi:calbec :      0.04s CPU      0.04s WALL (    1547 calls)
     vloc_psi     :      0.29s CPU      0.31s WALL (    1547 calls)
     add_vuspsi   :      0.01s CPU      0.01s WALL (    1547 calls)

     General routines
     calbec       :      0.06s CPU      0.06s WALL (    2187 calls)
     fft          :      0.14s CPU      0.14s WALL (     338 calls)
     ffts         :      0.01s CPU      0.01s WALL (      46 calls)
     fftw         :      0.29s CPU      0.31s WALL (   20790 calls)
     interpolate  :      0.01s CPU      0.01s WALL (      24 calls)

     Parallel routines

     PWSCF        :      1.32s CPU      1.54s WALL


   This run was terminated on:  16:41:59   1Nov2023            

=------------------------------------------------------------------------------=
   JOB DONE.
=------------------------------------------------------------------------------=
