
     Program PWSCF v.7.2 starts on 16Oct2023 at 10:31:19 

     This program is part of the open-source Quantum ESPRESSO suite
     for quantum simulation of materials; please cite
         "P. Giannozzi et al., J. Phys.:Condens. Matter 21 395502 (2009);
         "P. Giannozzi et al., J. Phys.:Condens. Matter 29 465901 (2017);
         "P. Giannozzi et al., J. Chem. Phys. 152 154105 (2020);
          URL http://www.quantum-espresso.org", 
     in publications or presentations arising from this work. More details at
     http://www.quantum-espresso.org/quote

     Parallel version (MPI), running on     1 processors

     MPI processes distributed on     1 nodes
     33677 MiB available memory on the printing compute node when the environment starts

     Waiting for input...
     Reading input from standard input
Warning: card &CELL ignored
Warning: card / ignored

     Current dimensions of program PWSCF are:
     Max number of different atomic species (ntypx) = 10
     Max number of k-points (npk) =  40000
     Max angular momentum in pseudopotentials (lmaxx) =  4
     file Ge.pz-dn-rrkjus_psl.0.2.2.UPF: wavefunction(s)  3D renormalized
     Message from routine setup:
     using ibrav=0 with symmetry is DISCOURAGED, use correct ibrav instead

     Subspace diagonalization in iterative solution of the eigenvalue problem:
     a serial algorithm will be used


     G-vector sticks info
     --------------------
     sticks:   dense  smooth     PW     G-vecs:    dense   smooth      PW
     Sum         547     547    163                 8363     8363    1459

     Using Slab Decomposition



     bravais-lattice index     =            0
     lattice parameter (alat)  =       7.4953  a.u.
     unit-cell volume          =     297.7536 (a.u.)^3
     number of atoms/cell      =            2
     number of atomic types    =            1
     number of electrons       =        28.00
     number of Kohn-Sham states=           14
     kinetic-energy cutoff     =      35.0000  Ry
     charge density cutoff     =     140.0000  Ry
     scf convergence threshold =      1.0E-07
     mixing beta               =       0.5000
     number of iterations used =            8  plain     mixing
     Exchange-correlation= LDA
                           (   1   1   0   0   0   0   0)

     celldm(1)=   7.495329  celldm(2)=   0.000000  celldm(3)=   0.000000
     celldm(4)=   0.000000  celldm(5)=   0.000000  celldm(6)=   0.000000

     crystal axes: (cart. coord. in units of alat)
               a(1) = (   0.000000   0.707107   0.707107 )  
               a(2) = (   0.707107   0.000000   0.707107 )  
               a(3) = (   0.707107   0.707107   0.000000 )  

     reciprocal axes: (cart. coord. in units 2 pi/alat)
               b(1) = ( -0.707107  0.707107  0.707107 )  
               b(2) = (  0.707107 -0.707107  0.707107 )  
               b(3) = (  0.707107  0.707107 -0.707107 )  


     PseudoPot. # 1 for Ge read from file:
     ../Ge.pz-dn-rrkjus_psl.0.2.2.UPF
     MD5 check sum: 9948ad5293734715c8cf6021b6c26e6d
     Pseudo is Ultrasoft + core correction, Zval = 14.0
     Generated using "atomic" code by A. Dal Corso  v.5.0.2 svn rev. 9415
     Using radial grid of 1207 points,  6 beta functions with: 
                l(1) =   0
                l(2) =   0
                l(3) =   1
                l(4) =   1
                l(5) =   2
                l(6) =   2
     Q(r) pseudized with 0 coefficients 


     atomic species   valence    mass     pseudopotential
        Ge            14.00    72.63000     Ge( 1.00)

     48 Sym. Ops., with inversion, found (24 have fractional translation)



   Cartesian axes

     site n.     atom                  positions (alat units)
         1           Ge  tau(   1) = (   0.0000000   0.0000000   0.0000000  )
         2           Ge  tau(   2) = (   0.3535536   0.3535536   0.3535536  )

     number of k points=    10
                       cart. coord. in units 2pi/alat
        k(    1) = (   0.0000000   0.0000000   0.0000000), wk =   0.0160000
        k(    2) = (   0.1414214   0.1414214  -0.1414214), wk =   0.1280000
        k(    3) = (   0.2828427   0.2828427  -0.2828427), wk =   0.1280000
        k(    4) = (   0.2828427   0.0000000   0.0000000), wk =   0.0960000
        k(    5) = (   0.4242641   0.1414214  -0.1414214), wk =   0.3840000
        k(    6) = (  -0.1414214  -0.4242641   0.4242641), wk =   0.3840000
        k(    7) = (   0.0000000  -0.2828427   0.2828427), wk =   0.1920000
        k(    8) = (   0.5656854   0.0000000   0.0000000), wk =   0.0960000
        k(    9) = (   0.0000000  -0.5656854   0.5656854), wk =   0.1920000
        k(   10) = (  -0.1414214  -0.4242641   0.7071068), wk =   0.3840000

     Dense  grid:     8363 G-vectors     FFT dimensions: (  32,  32,  32)

     Estimated max dynamical RAM per process >      35.35 MB

     Check: negative core charge=   -0.000139

     Initial potential from superposition of free atoms

     starting charge      27.9988, renormalised to      28.0000
     Starting wfcs are   18 randomized atomic wfcs

     total cpu time spent up to now is        0.9 secs

     Self-consistent Calculation

     iteration #  1     ecut=    35.00 Ry     beta= 0.50
     Davidson diagonalization with overlap
     ethr =  1.00E-02,  avg # of iterations =  2.0

     Threshold (ethr) on eigenvalues was too large:
     Diagonalizing with lowered threshold

     Davidson diagonalization with overlap
     ethr =  1.26E-04,  avg # of iterations =  2.1

     total cpu time spent up to now is        1.9 secs

     total energy              =    -421.78511885 Ry
     estimated scf accuracy    <       0.03812627 Ry

     iteration #  2     ecut=    35.00 Ry     beta= 0.50
     Davidson diagonalization with overlap
     ethr =  1.36E-04,  avg # of iterations =  1.0

     total cpu time spent up to now is        2.4 secs

     total energy              =    -421.78360929 Ry
     estimated scf accuracy    <       0.00691803 Ry

     iteration #  3     ecut=    35.00 Ry     beta= 0.50
     Davidson diagonalization with overlap
     ethr =  2.47E-05,  avg # of iterations =  2.0

     total cpu time spent up to now is        2.9 secs

     total energy              =    -421.78416387 Ry
     estimated scf accuracy    <       0.00008276 Ry

     iteration #  4     ecut=    35.00 Ry     beta= 0.50
     Davidson diagonalization with overlap
     ethr =  2.96E-07,  avg # of iterations =  5.1

     total cpu time spent up to now is        3.6 secs

     total energy              =    -421.78419106 Ry
     estimated scf accuracy    <       0.00001008 Ry

     iteration #  5     ecut=    35.00 Ry     beta= 0.50
     Davidson diagonalization with overlap
     ethr =  3.60E-08,  avg # of iterations =  2.5

     total cpu time spent up to now is        4.2 secs

     total energy              =    -421.78419256 Ry
     estimated scf accuracy    <       0.00000042 Ry

     iteration #  6     ecut=    35.00 Ry     beta= 0.50
     Davidson diagonalization with overlap
     ethr =  1.49E-09,  avg # of iterations =  3.2

     total cpu time spent up to now is        4.8 secs

     total energy              =    -421.78419276 Ry
     estimated scf accuracy    <       0.00000013 Ry

     iteration #  7     ecut=    35.00 Ry     beta= 0.50
     Davidson diagonalization with overlap
     ethr =  4.69E-10,  avg # of iterations =  2.2

     total cpu time spent up to now is        5.4 secs

     End of self-consistent calculation

          k = 0.0000 0.0000 0.0000 (  1037 PWs)   bands (ev):

   -16.4020 -16.4020 -16.4020 -16.3625 -16.3625 -16.1379 -16.1379 -16.1379
   -16.1219 -16.1219  -4.4806   8.5408   8.5408   8.5409

          k = 0.1414 0.1414-0.1414 (  1037 PWs)   bands (ev):

   -16.4175 -16.4175 -16.3954 -16.3391 -16.3391 -16.1593 -16.1593 -16.1455
   -16.1048 -16.1048  -3.9880   4.6614   7.8463   7.8464

          k = 0.2828 0.2828-0.2828 (  1038 PWs)   bands (ev):

   -16.4271 -16.4271 -16.3847 -16.3196 -16.3196 -16.1725 -16.1725 -16.1578
   -16.0949 -16.0949  -2.7212   1.4107   7.1849   7.1849

          k = 0.2828 0.0000 0.0000 (  1026 PWs)   bands (ev):

   -16.4156 -16.4156 -16.4113 -16.3386 -16.3091 -16.2071 -16.1438 -16.1165
   -16.1165 -16.1047  -3.8165   4.6921   6.8792   6.8792

          k = 0.4243 0.1414-0.1414 (  1036 PWs)   bands (ev):

   -16.4408 -16.4278 -16.3803 -16.3109 -16.2808 -16.2349 -16.1731 -16.1448
   -16.0957 -16.0808  -2.7368   2.1244   5.5413   6.2982

          k =-0.1414-0.4243 0.4243 (  1044 PWs)   bands (ev):

   -16.4494 -16.4356 -16.3539 -16.2982 -16.2887 -16.2095 -16.2013 -16.1744
   -16.0833 -16.0718  -1.9456   0.8482   4.7145   6.5751

          k = 0.0000-0.2828 0.2828 (  1055 PWs)   bands (ev):

   -16.4335 -16.4331 -16.3731 -16.3281 -16.3029 -16.1955 -16.1761 -16.1530
   -16.0943 -16.0859  -3.1997   2.9474   5.2866   7.5126

          k = 0.5657 0.0000 0.0000 (  1034 PWs)   bands (ev):

   -16.4347 -16.4347 -16.3807 -16.3036 -16.2766 -16.2211 -16.2022 -16.1419
   -16.0845 -16.0845  -1.8841   1.0914   5.5469   5.5469

          k = 0.0000-0.5657 0.5657 (  1037 PWs)   bands (ev):

   -16.4529 -16.4385 -16.3448 -16.3003 -16.2474 -16.2347 -16.2204 -16.1789
   -16.0784 -16.0656  -0.7852  -0.1189   4.2691   5.6659

          k =-0.1414-0.4243 0.7071 (  1047 PWs)   bands (ev):

   -16.4514 -16.4460 -16.3371 -16.2804 -16.2691 -16.2439 -16.2108 -16.1845
   -16.0732 -16.0682  -1.5014   0.7124   4.3283   5.3319

     highest occupied level (ev):     8.5409

!    total energy              =    -421.78419277 Ry
     estimated scf accuracy    <       0.00000003 Ry

     The total energy is the sum of the following terms:
     one-electron contribution =    -272.42175202 Ry
     hartree contribution      =     161.58075006 Ry
     xc contribution           =    -111.73322146 Ry
     ewald contribution        =    -199.20996935 Ry

     convergence has been achieved in   7 iterations

     Forces acting on atoms (cartesian axes, Ry/au):

     atom    1 type  1   force =     0.00000000    0.00000000   -0.00000000
     atom    2 type  1   force =    -0.00000000   -0.00000000    0.00000000
     The non-local contrib.  to forces
     atom    1 type  1   force =    -0.00000000   -0.00000000    0.00000000
     atom    2 type  1   force =     0.00000000   -0.00000000   -0.00000000
     The ionic contribution  to forces
     atom    1 type  1   force =     0.00000990    0.00000990    0.00000990
     atom    2 type  1   force =    -0.00000990   -0.00000990   -0.00000990
     The local contribution  to forces
     atom    1 type  1   force =    -0.00000000   -0.00000000    0.00000000
     atom    2 type  1   force =    -0.00035427   -0.00035427   -0.00035427
     The core correction contribution to forces
     atom    1 type  1   force =    -0.00000000   -0.00000000   -0.00000000
     atom    2 type  1   force =    -0.00004527   -0.00004527   -0.00004527
     The Hubbard contrib.    to forces
     atom    1 type  1   force =     0.00000000    0.00000000    0.00000000
     atom    2 type  1   force =     0.00000000    0.00000000    0.00000000
     The SCF correction term to forces
     atom    1 type  1   force =    -0.00000000   -0.00000000   -0.00000000
     atom    2 type  1   force =     0.00000001    0.00000001    0.00000001

     Total force =     0.000000     Total SCF correction =     0.000000


     Computing stress (Cartesian axis) and pressure

          total   stress  (Ry/bohr**3)                   (kbar)     P=       -7.78
  -0.00005292  -0.00000000   0.00000000           -7.78       -0.00        0.00
   0.00000000  -0.00005292  -0.00000000            0.00       -7.78       -0.00
   0.00000000  -0.00000000  -0.00005292            0.00       -0.00       -7.78


     init_run     :      0.93s CPU      0.80s WALL (       1 calls)
     electrons    :      6.23s CPU      4.43s WALL (       1 calls)
     forces       :      0.13s CPU      0.10s WALL (       1 calls)
     stress       :      1.44s CPU      0.99s WALL (       1 calls)

     Called by init_run:
     wfcinit      :      0.50s CPU      0.36s WALL (       1 calls)
     potinit      :      0.01s CPU      0.01s WALL (       1 calls)
     hinit0       :      0.40s CPU      0.40s WALL (       1 calls)

     Called by electrons:
     c_bands      :      4.60s CPU      3.29s WALL (       8 calls)
     sum_band     :      1.24s CPU      0.85s WALL (       8 calls)
     v_of_rho     :      0.06s CPU      0.05s WALL (       8 calls)
     newd         :      0.29s CPU      0.22s WALL (       8 calls)
     mix_rho      :      0.03s CPU      0.02s WALL (       8 calls)

     Called by c_bands:
     init_us_2    :      0.23s CPU      0.16s WALL (     190 calls)
     init_us_2:cp :      0.23s CPU      0.16s WALL (     190 calls)
     cegterg      :      4.11s CPU      2.87s WALL (      80 calls)

     Called by *egterg:
     cdiaghg      :      0.23s CPU      0.17s WALL (     271 calls)
     h_psi        :      3.78s CPU      2.66s WALL (     291 calls)
     s_psi        :      0.09s CPU      0.06s WALL (     291 calls)
     g_psi        :      0.04s CPU      0.03s WALL (     201 calls)

     Called by h_psi:
     h_psi:calbec :      0.10s CPU      0.07s WALL (     291 calls)
     vloc_psi     :      3.56s CPU      2.51s WALL (     291 calls)
     add_vuspsi   :      0.09s CPU      0.06s WALL (     291 calls)

     General routines
     calbec       :      0.14s CPU      0.10s WALL (     421 calls)
     fft          :      0.18s CPU      0.17s WALL (      41 calls)
     ffts         :      0.01s CPU      0.01s WALL (       8 calls)
     fftw         :      3.34s CPU      2.34s WALL (    7106 calls)

     Parallel routines

     PWSCF        :      8.83s CPU      6.46s WALL


   This run was terminated on:  10:31:25  16Oct2023            

=------------------------------------------------------------------------------=
   JOB DONE.
=------------------------------------------------------------------------------=
