LAMMPS (29 Oct 2020)
Reading data file ...
  orthogonal box = (0.0000000 0.0000000 0.0000000) to (8.1333333 8.1333333 8.1333333)
  1 by 1 by 1 MPI processor grid
  reading atoms ...
  32 atoms
  read_data CPU = 0.001 seconds
Reading eam potential file /home/gridsan/epan1/3320_atomistic_shared/lammps/potentials/Ag_u3.eam with DATE: 2007-06-11
WARNING: No fixes defined, atoms won't move (../verlet.cpp:54)
Neighbor list info ...
  update every 1 steps, delay 10 steps, check yes
  max neighbors/atom: 2000, page size: 100000
  master list distance cutoff = 7.55
  ghost atom cutoff = 7.55
  binsize = 3.775, bins = 3 3 3
  1 neighbor lists, perpetual/occasional/extra = 1 0 0
  (1) pair eam, perpetual
      attributes: half, newton on
      pair build: half/bin/atomonly/newton
      stencil: half/bin/3d/newton
      bin: standard
Setting up Verlet run ...
  Unit style    : metal
  Current step  : 0
  Time step     : 0.001
Per MPI rank memory allocation (min/avg/max) = 3.331 | 3.331 | 3.331 Mbytes
Step Temp E_pair E_mol TotEng Press 
       0            0   -91.146928            0   -91.146928    18566.926 
Loop time of 1.90735e-06 on 1 procs for 0 steps with 32 atoms

104.9% CPU use with 1 MPI tasks x no OpenMP threads

MPI task timing breakdown:
Section |  min time  |  avg time  |  max time  |%varavg| %total
---------------------------------------------------------------
Pair    | 0          | 0          | 0          |   0.0 |  0.00
Neigh   | 0          | 0          | 0          |   0.0 |  0.00
Comm    | 0          | 0          | 0          |   0.0 |  0.00
Output  | 0          | 0          | 0          |   0.0 |  0.00
Modify  | 0          | 0          | 0          |   0.0 |  0.00
Other   |            | 1.907e-06  |            |       |100.00

Nlocal:        32.0000 ave          32 max          32 min
Histogram: 1 0 0 0 0 0 0 0 0 0
Nghost:        633.000 ave         633 max         633 min
Histogram: 1 0 0 0 0 0 0 0 0 0
Neighs:        1376.00 ave        1376 max        1376 min
Histogram: 1 0 0 0 0 0 0 0 0 0

Total # of neighbors = 1376
Ave neighs/atom = 43.000000
Neighbor list builds = 0
Dangerous builds = 0
WARNING: Using 'neigh_modify every 1 delay 0 check yes' setting during minimization (../min.cpp:187)
Setting up cg style minimization ...
  Unit style    : metal
  Current step  : 0
WARNING: Energy due to 1 extra global DOFs will be included in minimizer energies
Per MPI rank memory allocation (min/avg/max) = 4.456 | 4.456 | 4.456 Mbytes
Step Temp E_pair E_mol TotEng Press Volume 
       0            0   -91.146928            0   -91.146928    18566.926    538.02904 
       7            0        -91.2            0        -91.2   -4.2806791    547.34566 
Loop time of 0.00141287 on 1 procs for 7 steps with 32 atoms

100.1% CPU use with 1 MPI tasks x no OpenMP threads

Minimization stats:
  Stopping criterion = energy tolerance
  Energy initial, next-to-last, final = 
     -91.1469284547314  -91.2000000457139  -91.2000000463893
  Force two-norm initial, final = 18.704953 0.004363544
  Force max component initial, final = 18.704953 0.0043621433
  Final line search alpha, max atom move = 1.0000000 0.0043621433
  Iterations, force evaluations = 7 9

MPI task timing breakdown:
Section |  min time  |  avg time  |  max time  |%varavg| %total
---------------------------------------------------------------
Pair    | 0.0010912  | 0.0010912  | 0.0010912  |   0.0 | 77.24
Neigh   | 0          | 0          | 0          |   0.0 |  0.00
Comm    | 6.6519e-05 | 6.6519e-05 | 6.6519e-05 |   0.0 |  4.71
Output  | 0          | 0          | 0          |   0.0 |  0.00
Modify  | 0          | 0          | 0          |   0.0 |  0.00
Other   |            | 0.0002551  |            |       | 18.06

Nlocal:        32.0000 ave          32 max          32 min
Histogram: 1 0 0 0 0 0 0 0 0 0
Nghost:        633.000 ave         633 max         633 min
Histogram: 1 0 0 0 0 0 0 0 0 0
Neighs:        1376.00 ave        1376 max        1376 min
Histogram: 1 0 0 0 0 0 0 0 0 0

Total # of neighbors = 1376
Ave neighs/atom = 43.000000
Neighbor list builds = 0
Dangerous builds = 0
Total energy (eV) = -91.2000000463893
Number of atoms = 32
Lattice constant (Angstoms) = 8.18001109848341
Total wall time: 0:00:00
