Header of the LAMMPS data file 

10976 atoms 
1 atom types

0.0 57.26  xlo xhi
0.0 57.26  ylo yhi
0.0 57.26  zlo zhi

Masses 

1  107.8682

Atoms # atomic 

1 1 0.00000 0.00000 0.00000 
2 1 0.00000 2.04475 2.04475 
3 1 2.04475 0.00000 2.04475 
4 1 2.04475 2.04475 0.00000 
5 1 0.00000 0.00000 4.09008 
6 1 0.00000 2.04475 6.13484 
7 1 2.04475 0.00000 6.13484 
8 1 2.04475 2.04475 4.09008 
9 1 0.00000 0.00000 8.18016 
10 1 0.00000 2.04475 10.22492 
11 1 2.04475 0.00000 10.22492 
12 1 2.04475 2.04475 8.18016 
13 1 0.00000 0.00000 12.27025 
14 1 0.00000 2.04475 14.31500 
15 1 2.04475 0.00000 14.31500 
16 1 2.04475 2.04475 12.27025 
17 1 0.00000 0.00000 16.35975 
18 1 0.00000 2.04475 18.40508 
19 1 2.04475 0.00000 18.40508 
20 1 2.04475 2.04475 16.35975 
21 1 0.00000 0.00000 20.44984 
22 1 0.00000 2.04475 22.49516 
23 1 2.04475 0.00000 22.49516 
24 1 2.04475 2.04475 20.44984 
25 1 0.00000 0.00000 24.53992 
26 1 0.00000 2.04475 26.58525 
27 1 2.04475 0.00000 26.58525 
28 1 2.04475 2.04475 24.53992 
29 1 0.00000 0.00000 28.63000 
30 1 0.00000 2.04475 30.67475 
31 1 2.04475 0.00000 30.67475 
32 1 2.04475 2.04475 28.63000 
33 1 0.00000 0.00000 32.72008 
34 1 0.00000 2.04475 34.76484 
35 1 2.04475 0.00000 34.76484 
36 1 2.04475 2.04475 32.72008 
37 1 0.00000 0.00000 36.81016 
38 1 0.00000 2.04475 38.85492 
39 1 2.04475 0.00000 38.85492 
40 1 2.04475 2.04475 36.81016 
41 1 0.00000 0.00000 40.90025 
42 1 0.00000 2.04475 42.94500 
43 1 2.04475 0.00000 42.94500 
44 1 2.04475 2.04475 40.90025 
45 1 0.00000 0.00000 44.98975 
46 1 0.00000 2.04475 47.03508 
47 1 2.04475 0.00000 47.03508 
48 1 2.04475 2.04475 44.98975 
49 1 0.00000 0.00000 49.07984 
50 1 0.00000 2.04475 51.12516 
51 1 2.04475 0.00000 51.12516 
52 1 2.04475 2.04475 49.07984 
53 1 0.00000 0.00000 53.16992 
54 1 0.00000 2.04475 55.21525 
55 1 2.04475 0.00000 55.21525 
56 1 2.04475 2.04475 53.16992 
57 1 0.00000 4.09008 0.00000 
58 1 0.00000 6.13484 2.04475 
59 1 2.04475 4.09008 2.04475 
60 1 2.04475 6.13484 0.00000 
61 1 0.00000 4.09008 4.09008 
62 1 0.00000 6.13484 6.13484 
63 1 2.04475 4.09008 6.13484 
64 1 2.04475 6.13484 4.09008 
65 1 0.00000 4.09008 8.18016 
66 1 0.00000 6.13484 10.22492 
67 1 2.04475 4.09008 10.22492 
68 1 2.04475 6.13484 8.18016 
69 1 0.00000 4.09008 12.27025 
70 1 0.00000 6.13484 14.31500 
71 1 2.04475 4.09008 14.31500 
72 1 2.04475 6.13484 12.27025 
73 1 0.00000 4.09008 16.35975 
74 1 0.00000 6.13484 18.40508 
75 1 2.04475 4.09008 18.40508 
76 1 2.04475 6.13484 16.35975 
77 1 0.00000 4.09008 20.44984 
78 1 0.00000 6.13484 22.49516 
79 1 2.04475 4.09008 22.49516 
80 1 2.04475 6.13484 20.44984 
81 1 0.00000 4.09008 24.53992 
82 1 0.00000 6.13484 26.58525 
83 1 2.04475 4.09008 26.58525 
84 1 2.04475 6.13484 24.53992 
85 1 0.00000 4.09008 28.63000 
86 1 0.00000 6.13484 30.67475 
87 1 2.04475 4.09008 30.67475 
88 1 2.04475 6.13484 28.63000 
89 1 0.00000 4.09008 32.72008 
90 1 0.00000 6.13484 34.76484 
91 1 2.04475 4.09008 34.76484 
92 1 2.04475 6.13484 32.72008 
93 1 0.00000 4.09008 36.81016 
94 1 0.00000 6.13484 38.85492 
95 1 2.04475 4.09008 38.85492 
96 1 2.04475 6.13484 36.81016 
97 1 0.00000 4.09008 40.90025 
98 1 0.00000 6.13484 42.94500 
99 1 2.04475 4.09008 42.94500 
100 1 2.04475 6.13484 40.90025 
101 1 0.00000 4.09008 44.98975 
102 1 0.00000 6.13484 47.03508 
103 1 2.04475 4.09008 47.03508 
104 1 2.04475 6.13484 44.98975 
105 1 0.00000 4.09008 49.07984 
106 1 0.00000 6.13484 51.12516 
107 1 2.04475 4.09008 51.12516 
108 1 2.04475 6.13484 49.07984 
109 1 0.00000 4.09008 53.16992 
110 1 0.00000 6.13484 55.21525 
111 1 2.04475 4.09008 55.21525 
112 1 2.04475 6.13484 53.16992 
113 1 0.00000 8.18016 0.00000 
114 1 0.00000 10.22492 2.04475 
115 1 2.04475 8.18016 2.04475 
116 1 2.04475 10.22492 0.00000 
117 1 0.00000 8.18016 4.09008 
118 1 0.00000 10.22492 6.13484 
119 1 2.04475 8.18016 6.13484 
120 1 2.04475 10.22492 4.09008 
121 1 0.00000 8.18016 8.18016 
122 1 0.00000 10.22492 10.22492 
123 1 2.04475 8.18016 10.22492 
124 1 2.04475 10.22492 8.18016 
125 1 0.00000 8.18016 12.27025 
126 1 0.00000 10.22492 14.31500 
127 1 2.04475 8.18016 14.31500 
128 1 2.04475 10.22492 12.27025 
129 1 0.00000 8.18016 16.35975 
130 1 0.00000 10.22492 18.40508 
131 1 2.04475 8.18016 18.40508 
132 1 2.04475 10.22492 16.35975 
133 1 0.00000 8.18016 20.44984 
134 1 0.00000 10.22492 22.49516 
135 1 2.04475 8.18016 22.49516 
136 1 2.04475 10.22492 20.44984 
137 1 0.00000 8.18016 24.53992 
138 1 0.00000 10.22492 26.58525 
139 1 2.04475 8.18016 26.58525 
140 1 2.04475 10.22492 24.53992 
141 1 0.00000 8.18016 28.63000 
142 1 0.00000 10.22492 30.67475 
143 1 2.04475 8.18016 30.67475 
144 1 2.04475 10.22492 28.63000 
145 1 0.00000 8.18016 32.72008 
146 1 0.00000 10.22492 34.76484 
147 1 2.04475 8.18016 34.76484 
148 1 2.04475 10.22492 32.72008 
149 1 0.00000 8.18016 36.81016 
150 1 0.00000 10.22492 38.85492 
151 1 2.04475 8.18016 38.85492 
152 1 2.04475 10.22492 36.81016 
153 1 0.00000 8.18016 40.90025 
154 1 0.00000 10.22492 42.94500 
155 1 2.04475 8.18016 42.94500 
156 1 2.04475 10.22492 40.90025 
157 1 0.00000 8.18016 44.98975 
158 1 0.00000 10.22492 47.03508 
159 1 2.04475 8.18016 47.03508 
160 1 2.04475 10.22492 44.98975 
161 1 0.00000 8.18016 49.07984 
162 1 0.00000 10.22492 51.12516 
163 1 2.04475 8.18016 51.12516 
164 1 2.04475 10.22492 49.07984 
165 1 0.00000 8.18016 53.16992 
166 1 0.00000 10.22492 55.21525 
167 1 2.04475 8.18016 55.21525 
168 1 2.04475 10.22492 53.16992 
169 1 0.00000 12.27025 0.00000 
170 1 0.00000 14.31500 2.04475 
171 1 2.04475 12.27025 2.04475 
172 1 2.04475 14.31500 0.00000 
173 1 0.00000 12.27025 4.09008 
174 1 0.00000 14.31500 6.13484 
175 1 2.04475 12.27025 6.13484 
176 1 2.04475 14.31500 4.09008 
177 1 0.00000 12.27025 8.18016 
178 1 0.00000 14.31500 10.22492 
179 1 2.04475 12.27025 10.22492 
180 1 2.04475 14.31500 8.18016 
181 1 0.00000 12.27025 12.27025 
182 1 0.00000 14.31500 14.31500 
183 1 2.04475 12.27025 14.31500 
184 1 2.04475 14.31500 12.27025 
185 1 0.00000 12.27025 16.35975 
186 1 0.00000 14.31500 18.40508 
187 1 2.04475 12.27025 18.40508 
188 1 2.04475 14.31500 16.35975 
189 1 0.00000 12.27025 20.44984 
190 1 0.00000 14.31500 22.49516 
191 1 2.04475 12.27025 22.49516 
192 1 2.04475 14.31500 20.44984 
193 1 0.00000 12.27025 24.53992 
194 1 0.00000 14.31500 26.58525 
195 1 2.04475 12.27025 26.58525 
196 1 2.04475 14.31500 24.53992 
197 1 0.00000 12.27025 28.63000 
198 1 0.00000 14.31500 30.67475 
199 1 2.04475 12.27025 30.67475 
200 1 2.04475 14.31500 28.63000 
201 1 0.00000 12.27025 32.72008 
202 1 0.00000 14.31500 34.76484 
203 1 2.04475 12.27025 34.76484 
204 1 2.04475 14.31500 32.72008 
205 1 0.00000 12.27025 36.81016 
206 1 0.00000 14.31500 38.85492 
207 1 2.04475 12.27025 38.85492 
208 1 2.04475 14.31500 36.81016 
209 1 0.00000 12.27025 40.90025 
210 1 0.00000 14.31500 42.94500 
211 1 2.04475 12.27025 42.94500 
212 1 2.04475 14.31500 40.90025 
213 1 0.00000 12.27025 44.98975 
214 1 0.00000 14.31500 47.03508 
215 1 2.04475 12.27025 47.03508 
216 1 2.04475 14.31500 44.98975 
217 1 0.00000 12.27025 49.07984 
218 1 0.00000 14.31500 51.12516 
219 1 2.04475 12.27025 51.12516 
220 1 2.04475 14.31500 49.07984 
221 1 0.00000 12.27025 53.16992 
222 1 0.00000 14.31500 55.21525 
223 1 2.04475 12.27025 55.21525 
224 1 2.04475 14.31500 53.16992 
225 1 0.00000 16.35975 0.00000 
226 1 0.00000 18.40508 2.04475 
227 1 2.04475 16.35975 2.04475 
228 1 2.04475 18.40508 0.00000 
229 1 0.00000 16.35975 4.09008 
230 1 0.00000 18.40508 6.13484 
231 1 2.04475 16.35975 6.13484 
232 1 2.04475 18.40508 4.09008 
233 1 0.00000 16.35975 8.18016 
234 1 0.00000 18.40508 10.22492 
235 1 2.04475 16.35975 10.22492 
236 1 2.04475 18.40508 8.18016 
237 1 0.00000 16.35975 12.27025 
238 1 0.00000 18.40508 14.31500 
239 1 2.04475 16.35975 14.31500 
240 1 2.04475 18.40508 12.27025 
241 1 0.00000 16.35975 16.35975 
242 1 0.00000 18.40508 18.40508 
243 1 2.04475 16.35975 18.40508 
244 1 2.04475 18.40508 16.35975 
245 1 0.00000 16.35975 20.44984 
246 1 0.00000 18.40508 22.49516 
247 1 2.04475 16.35975 22.49516 
248 1 2.04475 18.40508 20.44984 
249 1 0.00000 16.35975 24.53992 
250 1 0.00000 18.40508 26.58525 
251 1 2.04475 16.35975 26.58525 
252 1 2.04475 18.40508 24.53992 
253 1 0.00000 16.35975 28.63000 
254 1 0.00000 18.40508 30.67475 
255 1 2.04475 16.35975 30.67475 
256 1 2.04475 18.40508 28.63000 
257 1 0.00000 16.35975 32.72008 
258 1 0.00000 18.40508 34.76484 
259 1 2.04475 16.35975 34.76484 
260 1 2.04475 18.40508 32.72008 
261 1 0.00000 16.35975 36.81016 
262 1 0.00000 18.40508 38.85492 
263 1 2.04475 16.35975 38.85492 
264 1 2.04475 18.40508 36.81016 
265 1 0.00000 16.35975 40.90025 
266 1 0.00000 18.40508 42.94500 
267 1 2.04475 16.35975 42.94500 
268 1 2.04475 18.40508 40.90025 
269 1 0.00000 16.35975 44.98975 
270 1 0.00000 18.40508 47.03508 
271 1 2.04475 16.35975 47.03508 
272 1 2.04475 18.40508 44.98975 
273 1 0.00000 16.35975 49.07984 
274 1 0.00000 18.40508 51.12516 
275 1 2.04475 16.35975 51.12516 
276 1 2.04475 18.40508 49.07984 
277 1 0.00000 16.35975 53.16992 
278 1 0.00000 18.40508 55.21525 
279 1 2.04475 16.35975 55.21525 
280 1 2.04475 18.40508 53.16992 
281 1 0.00000 20.44984 0.00000 
282 1 0.00000 22.49516 2.04475 
283 1 2.04475 20.44984 2.04475 
284 1 2.04475 22.49516 0.00000 
285 1 0.00000 20.44984 4.09008 
286 1 0.00000 22.49516 6.13484 
287 1 2.04475 20.44984 6.13484 
288 1 2.04475 22.49516 4.09008 
289 1 0.00000 20.44984 8.18016 
290 1 0.00000 22.49516 10.22492 
291 1 2.04475 20.44984 10.22492 
292 1 2.04475 22.49516 8.18016 
293 1 0.00000 20.44984 12.27025 
294 1 0.00000 22.49516 14.31500 
295 1 2.04475 20.44984 14.31500 
296 1 2.04475 22.49516 12.27025 
297 1 0.00000 20.44984 16.35975 
298 1 0.00000 22.49516 18.40508 
299 1 2.04475 20.44984 18.40508 
300 1 2.04475 22.49516 16.35975 
301 1 0.00000 20.44984 20.44984 
302 1 0.00000 22.49516 22.49516 
303 1 2.04475 20.44984 22.49516 
304 1 2.04475 22.49516 20.44984 
305 1 0.00000 20.44984 24.53992 
306 1 0.00000 22.49516 26.58525 
307 1 2.04475 20.44984 26.58525 
308 1 2.04475 22.49516 24.53992 
309 1 0.00000 20.44984 28.63000 
310 1 0.00000 22.49516 30.67475 
311 1 2.04475 20.44984 30.67475 
312 1 2.04475 22.49516 28.63000 
313 1 0.00000 20.44984 32.72008 
314 1 0.00000 22.49516 34.76484 
315 1 2.04475 20.44984 34.76484 
316 1 2.04475 22.49516 32.72008 
317 1 0.00000 20.44984 36.81016 
318 1 0.00000 22.49516 38.85492 
319 1 2.04475 20.44984 38.85492 
320 1 2.04475 22.49516 36.81016 
321 1 0.00000 20.44984 40.90025 
322 1 0.00000 22.49516 42.94500 
323 1 2.04475 20.44984 42.94500 
324 1 2.04475 22.49516 40.90025 
325 1 0.00000 20.44984 44.98975 
326 1 0.00000 22.49516 47.03508 
327 1 2.04475 20.44984 47.03508 
328 1 2.04475 22.49516 44.98975 
329 1 0.00000 20.44984 49.07984 
330 1 0.00000 22.49516 51.12516 
331 1 2.04475 20.44984 51.12516 
332 1 2.04475 22.49516 49.07984 
333 1 0.00000 20.44984 53.16992 
334 1 0.00000 22.49516 55.21525 
335 1 2.04475 20.44984 55.21525 
336 1 2.04475 22.49516 53.16992 
337 1 0.00000 24.53992 0.00000 
338 1 0.00000 26.58525 2.04475 
339 1 2.04475 24.53992 2.04475 
340 1 2.04475 26.58525 0.00000 
341 1 0.00000 24.53992 4.09008 
342 1 0.00000 26.58525 6.13484 
343 1 2.04475 24.53992 6.13484 
344 1 2.04475 26.58525 4.09008 
345 1 0.00000 24.53992 8.18016 
346 1 0.00000 26.58525 10.22492 
347 1 2.04475 24.53992 10.22492 
348 1 2.04475 26.58525 8.18016 
349 1 0.00000 24.53992 12.27025 
350 1 0.00000 26.58525 14.31500 
351 1 2.04475 24.53992 14.31500 
352 1 2.04475 26.58525 12.27025 
353 1 0.00000 24.53992 16.35975 
354 1 0.00000 26.58525 18.40508 
355 1 2.04475 24.53992 18.40508 
356 1 2.04475 26.58525 16.35975 
357 1 0.00000 24.53992 20.44984 
358 1 0.00000 26.58525 22.49516 
359 1 2.04475 24.53992 22.49516 
360 1 2.04475 26.58525 20.44984 
361 1 0.00000 24.53992 24.53992 
362 1 0.00000 26.58525 26.58525 
363 1 2.04475 24.53992 26.58525 
364 1 2.04475 26.58525 24.53992 
365 1 0.00000 24.53992 28.63000 
366 1 0.00000 26.58525 30.67475 
367 1 2.04475 24.53992 30.67475 
368 1 2.04475 26.58525 28.63000 
369 1 0.00000 24.53992 32.72008 
370 1 0.00000 26.58525 34.76484 
371 1 2.04475 24.53992 34.76484 
372 1 2.04475 26.58525 32.72008 
373 1 0.00000 24.53992 36.81016 
374 1 0.00000 26.58525 38.85492 
375 1 2.04475 24.53992 38.85492 
376 1 2.04475 26.58525 36.81016 
377 1 0.00000 24.53992 40.90025 
378 1 0.00000 26.58525 42.94500 
379 1 2.04475 24.53992 42.94500 
380 1 2.04475 26.58525 40.90025 
381 1 0.00000 24.53992 44.98975 
382 1 0.00000 26.58525 47.03508 
383 1 2.04475 24.53992 47.03508 
384 1 2.04475 26.58525 44.98975 
385 1 0.00000 24.53992 49.07984 
386 1 0.00000 26.58525 51.12516 
387 1 2.04475 24.53992 51.12516 
388 1 2.04475 26.58525 49.07984 
389 1 0.00000 24.53992 53.16992 
390 1 0.00000 26.58525 55.21525 
391 1 2.04475 24.53992 55.21525 
392 1 2.04475 26.58525 53.16992 
393 1 0.00000 28.63000 0.00000 
394 1 0.00000 30.67475 2.04475 
395 1 2.04475 28.63000 2.04475 
396 1 2.04475 30.67475 0.00000 
397 1 0.00000 28.63000 4.09008 
398 1 0.00000 30.67475 6.13484 
399 1 2.04475 28.63000 6.13484 
400 1 2.04475 30.67475 4.09008 
401 1 0.00000 28.63000 8.18016 
402 1 0.00000 30.67475 10.22492 
403 1 2.04475 28.63000 10.22492 
404 1 2.04475 30.67475 8.18016 
405 1 0.00000 28.63000 12.27025 
406 1 0.00000 30.67475 14.31500 
407 1 2.04475 28.63000 14.31500 
408 1 2.04475 30.67475 12.27025 
409 1 0.00000 28.63000 16.35975 
410 1 0.00000 30.67475 18.40508 
411 1 2.04475 28.63000 18.40508 
412 1 2.04475 30.67475 16.35975 
413 1 0.00000 28.63000 20.44984 
414 1 0.00000 30.67475 22.49516 
415 1 2.04475 28.63000 22.49516 
416 1 2.04475 30.67475 20.44984 
417 1 0.00000 28.63000 24.53992 
418 1 0.00000 30.67475 26.58525 
419 1 2.04475 28.63000 26.58525 
420 1 2.04475 30.67475 24.53992 
421 1 0.00000 28.63000 28.63000 
422 1 0.00000 30.67475 30.67475 
423 1 2.04475 28.63000 30.67475 
424 1 2.04475 30.67475 28.63000 
425 1 0.00000 28.63000 32.72008 
426 1 0.00000 30.67475 34.76484 
427 1 2.04475 28.63000 34.76484 
428 1 2.04475 30.67475 32.72008 
429 1 0.00000 28.63000 36.81016 
430 1 0.00000 30.67475 38.85492 
431 1 2.04475 28.63000 38.85492 
432 1 2.04475 30.67475 36.81016 
433 1 0.00000 28.63000 40.90025 
434 1 0.00000 30.67475 42.94500 
435 1 2.04475 28.63000 42.94500 
436 1 2.04475 30.67475 40.90025 
437 1 0.00000 28.63000 44.98975 
438 1 0.00000 30.67475 47.03508 
439 1 2.04475 28.63000 47.03508 
440 1 2.04475 30.67475 44.98975 
441 1 0.00000 28.63000 49.07984 
442 1 0.00000 30.67475 51.12516 
443 1 2.04475 28.63000 51.12516 
444 1 2.04475 30.67475 49.07984 
445 1 0.00000 28.63000 53.16992 
446 1 0.00000 30.67475 55.21525 
447 1 2.04475 28.63000 55.21525 
448 1 2.04475 30.67475 53.16992 
449 1 0.00000 32.72008 0.00000 
450 1 0.00000 34.76484 2.04475 
451 1 2.04475 32.72008 2.04475 
452 1 2.04475 34.76484 0.00000 
453 1 0.00000 32.72008 4.09008 
454 1 0.00000 34.76484 6.13484 
455 1 2.04475 32.72008 6.13484 
456 1 2.04475 34.76484 4.09008 
457 1 0.00000 32.72008 8.18016 
458 1 0.00000 34.76484 10.22492 
459 1 2.04475 32.72008 10.22492 
460 1 2.04475 34.76484 8.18016 
461 1 0.00000 32.72008 12.27025 
462 1 0.00000 34.76484 14.31500 
463 1 2.04475 32.72008 14.31500 
464 1 2.04475 34.76484 12.27025 
465 1 0.00000 32.72008 16.35975 
466 1 0.00000 34.76484 18.40508 
467 1 2.04475 32.72008 18.40508 
468 1 2.04475 34.76484 16.35975 
469 1 0.00000 32.72008 20.44984 
470 1 0.00000 34.76484 22.49516 
471 1 2.04475 32.72008 22.49516 
472 1 2.04475 34.76484 20.44984 
473 1 0.00000 32.72008 24.53992 
474 1 0.00000 34.76484 26.58525 
475 1 2.04475 32.72008 26.58525 
476 1 2.04475 34.76484 24.53992 
477 1 0.00000 32.72008 28.63000 
478 1 0.00000 34.76484 30.67475 
479 1 2.04475 32.72008 30.67475 
480 1 2.04475 34.76484 28.63000 
481 1 0.00000 32.72008 32.72008 
482 1 0.00000 34.76484 34.76484 
483 1 2.04475 32.72008 34.76484 
484 1 2.04475 34.76484 32.72008 
485 1 0.00000 32.72008 36.81016 
486 1 0.00000 34.76484 38.85492 
487 1 2.04475 32.72008 38.85492 
488 1 2.04475 34.76484 36.81016 
489 1 0.00000 32.72008 40.90025 
490 1 0.00000 34.76484 42.94500 
491 1 2.04475 32.72008 42.94500 
492 1 2.04475 34.76484 40.90025 
493 1 0.00000 32.72008 44.98975 
494 1 0.00000 34.76484 47.03508 
495 1 2.04475 32.72008 47.03508 
496 1 2.04475 34.76484 44.98975 
497 1 0.00000 32.72008 49.07984 
498 1 0.00000 34.76484 51.12516 
499 1 2.04475 32.72008 51.12516 
500 1 2.04475 34.76484 49.07984 
501 1 0.00000 32.72008 53.16992 
502 1 0.00000 34.76484 55.21525 
503 1 2.04475 32.72008 55.21525 
504 1 2.04475 34.76484 53.16992 
505 1 0.00000 36.81016 0.00000 
506 1 0.00000 38.85492 2.04475 
507 1 2.04475 36.81016 2.04475 
508 1 2.04475 38.85492 0.00000 
509 1 0.00000 36.81016 4.09008 
510 1 0.00000 38.85492 6.13484 
511 1 2.04475 36.81016 6.13484 
512 1 2.04475 38.85492 4.09008 
513 1 0.00000 36.81016 8.18016 
514 1 0.00000 38.85492 10.22492 
515 1 2.04475 36.81016 10.22492 
516 1 2.04475 38.85492 8.18016 
517 1 0.00000 36.81016 12.27025 
518 1 0.00000 38.85492 14.31500 
519 1 2.04475 36.81016 14.31500 
520 1 2.04475 38.85492 12.27025 
521 1 0.00000 36.81016 16.35975 
522 1 0.00000 38.85492 18.40508 
523 1 2.04475 36.81016 18.40508 
524 1 2.04475 38.85492 16.35975 
525 1 0.00000 36.81016 20.44984 
526 1 0.00000 38.85492 22.49516 
527 1 2.04475 36.81016 22.49516 
528 1 2.04475 38.85492 20.44984 
529 1 0.00000 36.81016 24.53992 
530 1 0.00000 38.85492 26.58525 
531 1 2.04475 36.81016 26.58525 
532 1 2.04475 38.85492 24.53992 
533 1 0.00000 36.81016 28.63000 
534 1 0.00000 38.85492 30.67475 
535 1 2.04475 36.81016 30.67475 
536 1 2.04475 38.85492 28.63000 
537 1 0.00000 36.81016 32.72008 
538 1 0.00000 38.85492 34.76484 
539 1 2.04475 36.81016 34.76484 
540 1 2.04475 38.85492 32.72008 
541 1 0.00000 36.81016 36.81016 
542 1 0.00000 38.85492 38.85492 
543 1 2.04475 36.81016 38.85492 
544 1 2.04475 38.85492 36.81016 
545 1 0.00000 36.81016 40.90025 
546 1 0.00000 38.85492 42.94500 
547 1 2.04475 36.81016 42.94500 
548 1 2.04475 38.85492 40.90025 
549 1 0.00000 36.81016 44.98975 
550 1 0.00000 38.85492 47.03508 
551 1 2.04475 36.81016 47.03508 
552 1 2.04475 38.85492 44.98975 
553 1 0.00000 36.81016 49.07984 
554 1 0.00000 38.85492 51.12516 
555 1 2.04475 36.81016 51.12516 
556 1 2.04475 38.85492 49.07984 
557 1 0.00000 36.81016 53.16992 
558 1 0.00000 38.85492 55.21525 
559 1 2.04475 36.81016 55.21525 
560 1 2.04475 38.85492 53.16992 
561 1 0.00000 40.90025 0.00000 
562 1 0.00000 42.94500 2.04475 
563 1 2.04475 40.90025 2.04475 
564 1 2.04475 42.94500 0.00000 
565 1 0.00000 40.90025 4.09008 
566 1 0.00000 42.94500 6.13484 
567 1 2.04475 40.90025 6.13484 
568 1 2.04475 42.94500 4.09008 
569 1 0.00000 40.90025 8.18016 
570 1 0.00000 42.94500 10.22492 
571 1 2.04475 40.90025 10.22492 
572 1 2.04475 42.94500 8.18016 
573 1 0.00000 40.90025 12.27025 
574 1 0.00000 42.94500 14.31500 
575 1 2.04475 40.90025 14.31500 
576 1 2.04475 42.94500 12.27025 
577 1 0.00000 40.90025 16.35975 
578 1 0.00000 42.94500 18.40508 
579 1 2.04475 40.90025 18.40508 
580 1 2.04475 42.94500 16.35975 
581 1 0.00000 40.90025 20.44984 
582 1 0.00000 42.94500 22.49516 
583 1 2.04475 40.90025 22.49516 
584 1 2.04475 42.94500 20.44984 
585 1 0.00000 40.90025 24.53992 
586 1 0.00000 42.94500 26.58525 
587 1 2.04475 40.90025 26.58525 
588 1 2.04475 42.94500 24.53992 
589 1 0.00000 40.90025 28.63000 
590 1 0.00000 42.94500 30.67475 
591 1 2.04475 40.90025 30.67475 
592 1 2.04475 42.94500 28.63000 
593 1 0.00000 40.90025 32.72008 
594 1 0.00000 42.94500 34.76484 
595 1 2.04475 40.90025 34.76484 
596 1 2.04475 42.94500 32.72008 
597 1 0.00000 40.90025 36.81016 
598 1 0.00000 42.94500 38.85492 
599 1 2.04475 40.90025 38.85492 
600 1 2.04475 42.94500 36.81016 
601 1 0.00000 40.90025 40.90025 
602 1 0.00000 42.94500 42.94500 
603 1 2.04475 40.90025 42.94500 
604 1 2.04475 42.94500 40.90025 
605 1 0.00000 40.90025 44.98975 
606 1 0.00000 42.94500 47.03508 
607 1 2.04475 40.90025 47.03508 
608 1 2.04475 42.94500 44.98975 
609 1 0.00000 40.90025 49.07984 
610 1 0.00000 42.94500 51.12516 
611 1 2.04475 40.90025 51.12516 
612 1 2.04475 42.94500 49.07984 
613 1 0.00000 40.90025 53.16992 
614 1 0.00000 42.94500 55.21525 
615 1 2.04475 40.90025 55.21525 
616 1 2.04475 42.94500 53.16992 
617 1 0.00000 44.98975 0.00000 
618 1 0.00000 47.03508 2.04475 
619 1 2.04475 44.98975 2.04475 
620 1 2.04475 47.03508 0.00000 
621 1 0.00000 44.98975 4.09008 
622 1 0.00000 47.03508 6.13484 
623 1 2.04475 44.98975 6.13484 
624 1 2.04475 47.03508 4.09008 
625 1 0.00000 44.98975 8.18016 
626 1 0.00000 47.03508 10.22492 
627 1 2.04475 44.98975 10.22492 
628 1 2.04475 47.03508 8.18016 
629 1 0.00000 44.98975 12.27025 
630 1 0.00000 47.03508 14.31500 
631 1 2.04475 44.98975 14.31500 
632 1 2.04475 47.03508 12.27025 
633 1 0.00000 44.98975 16.35975 
634 1 0.00000 47.03508 18.40508 
635 1 2.04475 44.98975 18.40508 
636 1 2.04475 47.03508 16.35975 
637 1 0.00000 44.98975 20.44984 
638 1 0.00000 47.03508 22.49516 
639 1 2.04475 44.98975 22.49516 
640 1 2.04475 47.03508 20.44984 
641 1 0.00000 44.98975 24.53992 
642 1 0.00000 47.03508 26.58525 
643 1 2.04475 44.98975 26.58525 
644 1 2.04475 47.03508 24.53992 
645 1 0.00000 44.98975 28.63000 
646 1 0.00000 47.03508 30.67475 
647 1 2.04475 44.98975 30.67475 
648 1 2.04475 47.03508 28.63000 
649 1 0.00000 44.98975 32.72008 
650 1 0.00000 47.03508 34.76484 
651 1 2.04475 44.98975 34.76484 
652 1 2.04475 47.03508 32.72008 
653 1 0.00000 44.98975 36.81016 
654 1 0.00000 47.03508 38.85492 
655 1 2.04475 44.98975 38.85492 
656 1 2.04475 47.03508 36.81016 
657 1 0.00000 44.98975 40.90025 
658 1 0.00000 47.03508 42.94500 
659 1 2.04475 44.98975 42.94500 
660 1 2.04475 47.03508 40.90025 
661 1 0.00000 44.98975 44.98975 
662 1 0.00000 47.03508 47.03508 
663 1 2.04475 44.98975 47.03508 
664 1 2.04475 47.03508 44.98975 
665 1 0.00000 44.98975 49.07984 
666 1 0.00000 47.03508 51.12516 
667 1 2.04475 44.98975 51.12516 
668 1 2.04475 47.03508 49.07984 
669 1 0.00000 44.98975 53.16992 
670 1 0.00000 47.03508 55.21525 
671 1 2.04475 44.98975 55.21525 
672 1 2.04475 47.03508 53.16992 
673 1 0.00000 49.07984 0.00000 
674 1 0.00000 51.12516 2.04475 
675 1 2.04475 49.07984 2.04475 
676 1 2.04475 51.12516 0.00000 
677 1 0.00000 49.07984 4.09008 
678 1 0.00000 51.12516 6.13484 
679 1 2.04475 49.07984 6.13484 
680 1 2.04475 51.12516 4.09008 
681 1 0.00000 49.07984 8.18016 
682 1 0.00000 51.12516 10.22492 
683 1 2.04475 49.07984 10.22492 
684 1 2.04475 51.12516 8.18016 
685 1 0.00000 49.07984 12.27025 
686 1 0.00000 51.12516 14.31500 
687 1 2.04475 49.07984 14.31500 
688 1 2.04475 51.12516 12.27025 
689 1 0.00000 49.07984 16.35975 
690 1 0.00000 51.12516 18.40508 
691 1 2.04475 49.07984 18.40508 
692 1 2.04475 51.12516 16.35975 
693 1 0.00000 49.07984 20.44984 
694 1 0.00000 51.12516 22.49516 
695 1 2.04475 49.07984 22.49516 
696 1 2.04475 51.12516 20.44984 
697 1 0.00000 49.07984 24.53992 
698 1 0.00000 51.12516 26.58525 
699 1 2.04475 49.07984 26.58525 
700 1 2.04475 51.12516 24.53992 
701 1 0.00000 49.07984 28.63000 
702 1 0.00000 51.12516 30.67475 
703 1 2.04475 49.07984 30.67475 
704 1 2.04475 51.12516 28.63000 
705 1 0.00000 49.07984 32.72008 
706 1 0.00000 51.12516 34.76484 
707 1 2.04475 49.07984 34.76484 
708 1 2.04475 51.12516 32.72008 
709 1 0.00000 49.07984 36.81016 
710 1 0.00000 51.12516 38.85492 
711 1 2.04475 49.07984 38.85492 
712 1 2.04475 51.12516 36.81016 
713 1 0.00000 49.07984 40.90025 
714 1 0.00000 51.12516 42.94500 
715 1 2.04475 49.07984 42.94500 
716 1 2.04475 51.12516 40.90025 
717 1 0.00000 49.07984 44.98975 
718 1 0.00000 51.12516 47.03508 
719 1 2.04475 49.07984 47.03508 
720 1 2.04475 51.12516 44.98975 
721 1 0.00000 49.07984 49.07984 
722 1 0.00000 51.12516 51.12516 
723 1 2.04475 49.07984 51.12516 
724 1 2.04475 51.12516 49.07984 
725 1 0.00000 49.07984 53.16992 
726 1 0.00000 51.12516 55.21525 
727 1 2.04475 49.07984 55.21525 
728 1 2.04475 51.12516 53.16992 
729 1 0.00000 53.16992 0.00000 
730 1 0.00000 55.21525 2.04475 
731 1 2.04475 53.16992 2.04475 
732 1 2.04475 55.21525 0.00000 
733 1 0.00000 53.16992 4.09008 
734 1 0.00000 55.21525 6.13484 
735 1 2.04475 53.16992 6.13484 
736 1 2.04475 55.21525 4.09008 
737 1 0.00000 53.16992 8.18016 
738 1 0.00000 55.21525 10.22492 
739 1 2.04475 53.16992 10.22492 
740 1 2.04475 55.21525 8.18016 
741 1 0.00000 53.16992 12.27025 
742 1 0.00000 55.21525 14.31500 
743 1 2.04475 53.16992 14.31500 
744 1 2.04475 55.21525 12.27025 
745 1 0.00000 53.16992 16.35975 
746 1 0.00000 55.21525 18.40508 
747 1 2.04475 53.16992 18.40508 
748 1 2.04475 55.21525 16.35975 
749 1 0.00000 53.16992 20.44984 
750 1 0.00000 55.21525 22.49516 
751 1 2.04475 53.16992 22.49516 
752 1 2.04475 55.21525 20.44984 
753 1 0.00000 53.16992 24.53992 
754 1 0.00000 55.21525 26.58525 
755 1 2.04475 53.16992 26.58525 
756 1 2.04475 55.21525 24.53992 
757 1 0.00000 53.16992 28.63000 
758 1 0.00000 55.21525 30.67475 
759 1 2.04475 53.16992 30.67475 
760 1 2.04475 55.21525 28.63000 
761 1 0.00000 53.16992 32.72008 
762 1 0.00000 55.21525 34.76484 
763 1 2.04475 53.16992 34.76484 
764 1 2.04475 55.21525 32.72008 
765 1 0.00000 53.16992 36.81016 
766 1 0.00000 55.21525 38.85492 
767 1 2.04475 53.16992 38.85492 
768 1 2.04475 55.21525 36.81016 
769 1 0.00000 53.16992 40.90025 
770 1 0.00000 55.21525 42.94500 
771 1 2.04475 53.16992 42.94500 
772 1 2.04475 55.21525 40.90025 
773 1 0.00000 53.16992 44.98975 
774 1 0.00000 55.21525 47.03508 
775 1 2.04475 53.16992 47.03508 
776 1 2.04475 55.21525 44.98975 
777 1 0.00000 53.16992 49.07984 
778 1 0.00000 55.21525 51.12516 
779 1 2.04475 53.16992 51.12516 
780 1 2.04475 55.21525 49.07984 
781 1 0.00000 53.16992 53.16992 
782 1 0.00000 55.21525 55.21525 
783 1 2.04475 53.16992 55.21525 
784 1 2.04475 55.21525 53.16992 
785 1 4.09008 0.00000 0.00000 
786 1 4.09008 2.04475 2.04475 
787 1 6.13484 0.00000 2.04475 
788 1 6.13484 2.04475 0.00000 
789 1 4.09008 0.00000 4.09008 
790 1 4.09008 2.04475 6.13484 
791 1 6.13484 0.00000 6.13484 
792 1 6.13484 2.04475 4.09008 
793 1 4.09008 0.00000 8.18016 
794 1 4.09008 2.04475 10.22492 
795 1 6.13484 0.00000 10.22492 
796 1 6.13484 2.04475 8.18016 
797 1 4.09008 0.00000 12.27025 
798 1 4.09008 2.04475 14.31500 
799 1 6.13484 0.00000 14.31500 
800 1 6.13484 2.04475 12.27025 
801 1 4.09008 0.00000 16.35975 
802 1 4.09008 2.04475 18.40508 
803 1 6.13484 0.00000 18.40508 
804 1 6.13484 2.04475 16.35975 
805 1 4.09008 0.00000 20.44984 
806 1 4.09008 2.04475 22.49516 
807 1 6.13484 0.00000 22.49516 
808 1 6.13484 2.04475 20.44984 
809 1 4.09008 0.00000 24.53992 
810 1 4.09008 2.04475 26.58525 
811 1 6.13484 0.00000 26.58525 
812 1 6.13484 2.04475 24.53992 
813 1 4.09008 0.00000 28.63000 
814 1 4.09008 2.04475 30.67475 
815 1 6.13484 0.00000 30.67475 
816 1 6.13484 2.04475 28.63000 
817 1 4.09008 0.00000 32.72008 
818 1 4.09008 2.04475 34.76484 
819 1 6.13484 0.00000 34.76484 
820 1 6.13484 2.04475 32.72008 
821 1 4.09008 0.00000 36.81016 
822 1 4.09008 2.04475 38.85492 
823 1 6.13484 0.00000 38.85492 
824 1 6.13484 2.04475 36.81016 
825 1 4.09008 0.00000 40.90025 
826 1 4.09008 2.04475 42.94500 
827 1 6.13484 0.00000 42.94500 
828 1 6.13484 2.04475 40.90025 
829 1 4.09008 0.00000 44.98975 
830 1 4.09008 2.04475 47.03508 
831 1 6.13484 0.00000 47.03508 
832 1 6.13484 2.04475 44.98975 
833 1 4.09008 0.00000 49.07984 
834 1 4.09008 2.04475 51.12516 
835 1 6.13484 0.00000 51.12516 
836 1 6.13484 2.04475 49.07984 
837 1 4.09008 0.00000 53.16992 
838 1 4.09008 2.04475 55.21525 
839 1 6.13484 0.00000 55.21525 
840 1 6.13484 2.04475 53.16992 
841 1 4.09008 4.09008 0.00000 
842 1 4.09008 6.13484 2.04475 
843 1 6.13484 4.09008 2.04475 
844 1 6.13484 6.13484 0.00000 
845 1 4.09008 4.09008 4.09008 
846 1 4.09008 6.13484 6.13484 
847 1 6.13484 4.09008 6.13484 
848 1 6.13484 6.13484 4.09008 
849 1 4.09008 4.09008 8.18016 
850 1 4.09008 6.13484 10.22492 
851 1 6.13484 4.09008 10.22492 
852 1 6.13484 6.13484 8.18016 
853 1 4.09008 4.09008 12.27025 
854 1 4.09008 6.13484 14.31500 
855 1 6.13484 4.09008 14.31500 
856 1 6.13484 6.13484 12.27025 
857 1 4.09008 4.09008 16.35975 
858 1 4.09008 6.13484 18.40508 
859 1 6.13484 4.09008 18.40508 
860 1 6.13484 6.13484 16.35975 
861 1 4.09008 4.09008 20.44984 
862 1 4.09008 6.13484 22.49516 
863 1 6.13484 4.09008 22.49516 
864 1 6.13484 6.13484 20.44984 
865 1 4.09008 4.09008 24.53992 
866 1 4.09008 6.13484 26.58525 
867 1 6.13484 4.09008 26.58525 
868 1 6.13484 6.13484 24.53992 
869 1 4.09008 4.09008 28.63000 
870 1 4.09008 6.13484 30.67475 
871 1 6.13484 4.09008 30.67475 
872 1 6.13484 6.13484 28.63000 
873 1 4.09008 4.09008 32.72008 
874 1 4.09008 6.13484 34.76484 
875 1 6.13484 4.09008 34.76484 
876 1 6.13484 6.13484 32.72008 
877 1 4.09008 4.09008 36.81016 
878 1 4.09008 6.13484 38.85492 
879 1 6.13484 4.09008 38.85492 
880 1 6.13484 6.13484 36.81016 
881 1 4.09008 4.09008 40.90025 
882 1 4.09008 6.13484 42.94500 
883 1 6.13484 4.09008 42.94500 
884 1 6.13484 6.13484 40.90025 
885 1 4.09008 4.09008 44.98975 
886 1 4.09008 6.13484 47.03508 
887 1 6.13484 4.09008 47.03508 
888 1 6.13484 6.13484 44.98975 
889 1 4.09008 4.09008 49.07984 
890 1 4.09008 6.13484 51.12516 
891 1 6.13484 4.09008 51.12516 
892 1 6.13484 6.13484 49.07984 
893 1 4.09008 4.09008 53.16992 
894 1 4.09008 6.13484 55.21525 
895 1 6.13484 4.09008 55.21525 
896 1 6.13484 6.13484 53.16992 
897 1 4.09008 8.18016 0.00000 
898 1 4.09008 10.22492 2.04475 
899 1 6.13484 8.18016 2.04475 
900 1 6.13484 10.22492 0.00000 
901 1 4.09008 8.18016 4.09008 
902 1 4.09008 10.22492 6.13484 
903 1 6.13484 8.18016 6.13484 
904 1 6.13484 10.22492 4.09008 
905 1 4.09008 8.18016 8.18016 
906 1 4.09008 10.22492 10.22492 
907 1 6.13484 8.18016 10.22492 
908 1 6.13484 10.22492 8.18016 
909 1 4.09008 8.18016 12.27025 
910 1 4.09008 10.22492 14.31500 
911 1 6.13484 8.18016 14.31500 
912 1 6.13484 10.22492 12.27025 
913 1 4.09008 8.18016 16.35975 
914 1 4.09008 10.22492 18.40508 
915 1 6.13484 8.18016 18.40508 
916 1 6.13484 10.22492 16.35975 
917 1 4.09008 8.18016 20.44984 
918 1 4.09008 10.22492 22.49516 
919 1 6.13484 8.18016 22.49516 
920 1 6.13484 10.22492 20.44984 