
     Program PWSCF v.7.2 starts on  1Nov2023 at 17: 2:31 

     This program is part of the open-source Quantum ESPRESSO suite
     for quantum simulation of materials; please cite
         "P. Giannozzi et al., J. Phys.:Condens. Matter 21 395502 (2009);
         "P. Giannozzi et al., J. Phys.:Condens. Matter 29 465901 (2017);
         "P. Giannozzi et al., J. Chem. Phys. 152 154105 (2020);
          URL http://www.quantum-espresso.org", 
     in publications or presentations arising from this work. More details at
     http://www.quantum-espresso.org/quote

     Parallel version (MPI), running on     4 processors

     MPI processes distributed on     4 nodes
     186555 MiB available memory on the printing compute node when the environment starts

     Waiting for input...
     Reading input from standard input

     Current dimensions of program PWSCF are:
     Max number of different atomic species (ntypx) = 10
     Max number of k-points (npk) =  40000
     Max angular momentum in pseudopotentials (lmaxx) =  4
     file Fe.pbe-nd-rrkjus.UPF: wavefunction(s)  4S renormalized
     Message from routine setup:
     using ibrav=0 with symmetry is DISCOURAGED, use correct ibrav instead

     R & G space division:  proc/nbgrp/npool/nimage =       4
     Subspace diagonalization in iterative solution of the eigenvalue problem:
     a serial algorithm will be used


     Parallelization info
     --------------------
     sticks:   dense  smooth     PW     G-vecs:    dense   smooth      PW
     Min          95      45     10                 1181      400      48
     Max          96      46     11                 1183      401      51
     Sum         383     181     43                 4729     1601     201

     Using Slab Decomposition



     bravais-lattice index     =            0
     lattice parameter (alat)  =       4.5899  a.u.
     unit-cell volume          =      74.4385 (a.u.)^3
     number of atoms/cell      =            1
     number of atomic types    =            1
     number of electrons       =         8.00
     number of Kohn-Sham states=            8
     kinetic-energy cutoff     =      30.0000  Ry
     charge density cutoff     =     240.0000  Ry
     scf convergence threshold =      1.0E-07
     mixing beta               =       0.5000
     number of iterations used =            8  plain     mixing
     energy convergence thresh.=      1.0E-04
     force convergence thresh. =      1.0E-03
     press convergence thresh. =      5.0E-01
     Exchange-correlation=  SLA  PW   PBE  PBE
                           (   1   4   3   4   0   0   0)
     nstep                     =           50


     celldm(1)=   4.589935  celldm(2)=   0.000000  celldm(3)=   0.000000
     celldm(4)=   0.000000  celldm(5)=   0.000000  celldm(6)=   0.000000

     crystal axes: (cart. coord. in units of alat)
               a(1) = (  -0.577350   0.577350   0.577350 )  
               a(2) = (   0.577350  -0.577350   0.577350 )  
               a(3) = (   0.577350   0.577350  -0.577350 )  

     reciprocal axes: (cart. coord. in units 2 pi/alat)
               b(1) = (  0.000000  0.866025  0.866025 )  
               b(2) = (  0.866025  0.000000  0.866025 )  
               b(3) = (  0.866025  0.866025  0.000000 )  


     PseudoPot. # 1 for Fe read from file:
     /home/gridsan/epan1/labutil/lab3_samples/pseudopotentials/Fe.pbe-nd-rrkjus.UPF
     MD5 check sum: 398036227a04b607635f6f5e8dfd8242
     Pseudo is Ultrasoft + core correction, Zval =  8.0
     Generated by new atomic code, or converted to UPF format
     Using radial grid of  957 points,  6 beta functions with: 
                l(1) =   0
                l(2) =   0
                l(3) =   1
                l(4) =   1
                l(5) =   2
                l(6) =   2
     Q(r) pseudized with 0 coefficients 


     atomic species   valence    mass     pseudopotential
        Fe             8.00    55.84500     Fe( 1.00)

     Starting magnetic structure 
     atomic species   magnetization
        Fe           0.700

     48 Sym. Ops., with inversion, found



   Cartesian axes

     site n.     atom                  positions (alat units)
         1           Fe  tau(   1) = (   0.0000000   0.0000000   0.0000000  )

     number of k points=     1  Methfessel-Paxton smearing, width (Ry)=  0.0200
                       cart. coord. in units 2pi/alat
        k(    1) = (   0.0000000   0.0000000   0.0000000), wk =   1.0000000

     Dense  grid:     4729 G-vectors     FFT dimensions: (  24,  24,  24)

     Smooth grid:     1601 G-vectors     FFT dimensions: (  15,  15,  15)

     Estimated max dynamical RAM per process >       7.39 MB

     Estimated total dynamical RAM >      29.57 MB
     Generating pointlists ...
     new r_m :   0.4125 (alat units)  1.8933 (a.u.) for type    1

     Initial potential from superposition of free atoms

     starting charge       7.9994, renormalised to       8.0000
     Starting wfcs are    6 randomized atomic wfcs +    2 random wfcs

     total cpu time spent up to now is        1.5 secs

     Self-consistent Calculation

     iteration #  1     ecut=    30.00 Ry     beta= 0.50
     Davidson diagonalization with overlap
     ethr =  1.00E-02,  avg # of iterations =  6.0

     total cpu time spent up to now is        1.6 secs

     total energy              =     -56.43304219 Ry
     estimated scf accuracy    <       0.13055853 Ry

     total magnetization       =     4.00 Bohr mag/cell
     absolute magnetization    =     4.00 Bohr mag/cell

     iteration #  2     ecut=    30.00 Ry     beta= 0.50
     Davidson diagonalization with overlap
     ethr =  1.63E-03,  avg # of iterations =  3.5

     total cpu time spent up to now is        1.6 secs

     total energy              =     -56.46598722 Ry
     estimated scf accuracy    <       0.01030374 Ry

     total magnetization       =     4.00 Bohr mag/cell
     absolute magnetization    =     4.00 Bohr mag/cell

     iteration #  3     ecut=    30.00 Ry     beta= 0.50
     Davidson diagonalization with overlap
     ethr =  1.29E-04,  avg # of iterations =  3.0

     total cpu time spent up to now is        1.8 secs

     total energy              =     -56.47032931 Ry
     estimated scf accuracy    <       0.00121460 Ry

     total magnetization       =     4.00 Bohr mag/cell
     absolute magnetization    =     4.00 Bohr mag/cell

     iteration #  4     ecut=    30.00 Ry     beta= 0.50
     Davidson diagonalization with overlap
     ethr =  1.52E-05,  avg # of iterations =  2.0

     total cpu time spent up to now is        1.9 secs

     total energy              =     -56.47052569 Ry
     estimated scf accuracy    <       0.00000475 Ry

     total magnetization       =     4.00 Bohr mag/cell
     absolute magnetization    =     4.00 Bohr mag/cell

     iteration #  5     ecut=    30.00 Ry     beta= 0.50
     Davidson diagonalization with overlap
     ethr =  5.94E-08,  avg # of iterations =  6.5

     total cpu time spent up to now is        2.2 secs

     total energy              =     -56.47054666 Ry
     estimated scf accuracy    <       0.00000164 Ry

     total magnetization       =     4.00 Bohr mag/cell
     absolute magnetization    =     4.00 Bohr mag/cell

     iteration #  6     ecut=    30.00 Ry     beta= 0.50
     Davidson diagonalization with overlap
     ethr =  2.05E-08,  avg # of iterations =  2.0

     total cpu time spent up to now is        2.3 secs

     total energy              =     -56.47054780 Ry
     estimated scf accuracy    <       0.00000099 Ry

     total magnetization       =     4.00 Bohr mag/cell
     absolute magnetization    =     4.00 Bohr mag/cell

     iteration #  7     ecut=    30.00 Ry     beta= 0.50
     Davidson diagonalization with overlap
     ethr =  1.23E-08,  avg # of iterations =  2.0

     Magnetic moment per site  (integrated on atomic sphere of radius R)
     atom   1 (R=0.413)  charge=  6.4582  magn=  3.8018

     total cpu time spent up to now is        2.3 secs

     End of self-consistent calculation

 ------ SPIN UP ------------


          k = 0.0000 0.0000 0.0000 (   201 PWs)   bands (ev):

     5.1319  11.1818  11.1818  11.1818  12.2964  12.2964  38.8533  38.8534

 ------ SPIN DOWN ----------


          k = 0.0000 0.0000 0.0000 (   201 PWs)   bands (ev):

     6.0954  14.7725  14.7725  14.7725  17.2591  17.2591  39.1724  39.1724

     the Fermi energy is    14.7177 ev

!    total energy              =     -56.47054835 Ry
     estimated scf accuracy    <          2.8E-09 Ry
     smearing contrib. (-TS)   =      -0.00746718 Ry
     internal energy E=F+TS    =     -56.46308117 Ry

     The total energy is F=E-TS. E is the sum of the following terms:
     one-electron contribution =       7.76418917 Ry
     hartree contribution      =       6.40934685 Ry
     xc contribution           =     -26.69115983 Ry
     ewald contribution        =     -43.94545736 Ry

     total magnetization       =     4.00 Bohr mag/cell
     absolute magnetization    =     4.00 Bohr mag/cell

     convergence has been achieved in   7 iterations

     Forces acting on atoms (cartesian axes, Ry/au):

     atom    1 type  1   force =     0.00000000    0.00000000    0.00000000
     The non-local contrib.  to forces
     atom    1 type  1   force =    -0.00000000    0.00000000    0.00000000
     The ionic contribution  to forces
     atom    1 type  1   force =    -0.00000000   -0.00000000   -0.00000000
     The local contribution  to forces
     atom    1 type  1   force =     0.00000000   -0.00000000   -0.00000000
     The core correction contribution to forces
     atom    1 type  1   force =    -0.00000000   -0.00000000    0.00000000
     The Hubbard contrib.    to forces
     atom    1 type  1   force =     0.00000000    0.00000000    0.00000000
     The SCF correction term to forces
     atom    1 type  1   force =    -0.00000000    0.00000000    0.00000000

     Total force =     0.000000     Total SCF correction =     0.000000


     Computing stress (Cartesian axis) and pressure

          total   stress  (Ry/bohr**3)                   (kbar)     P=      106.26
   0.00072231   0.00000000   0.00000000          106.26        0.00        0.00
   0.00000000   0.00072231  -0.00000000            0.00      106.26       -0.00
   0.00000000  -0.00000000   0.00072231            0.00       -0.00      106.26


     BFGS Geometry Optimization
     Energy error            =      0.0E+00 Ry
     Gradient error          =      0.0E+00 Ry/Bohr
     Cell gradient error     =      1.1E+02 kbar

     number of scf cycles    =   1
     number of bfgs steps    =   0

     enthalpy           new  =     -56.4705483510 Ry

     new trust radius        =       0.0311595731 bohr
     new conv_thr            =       0.0000001000 Ry

     new unit-cell volume =     78.54434 a.u.^3 (    11.63907 Ang^3 )
     density =      7.96737 g/cm^3

CELL_PARAMETERS (angstrom)
  -1.427642391   1.427642391   1.427642391
   1.427642391  -1.427642391   1.427642391
   1.427642391   1.427642391  -1.427642391

ATOMIC_POSITIONS (angstrom)
Fe            0.0000000000        0.0000000000        0.0000000000



     Writing config-only to output data dir /home/gridsan/epan1/labutil/lab3_samples/problem1/Lab3/Fe_bcc_a_2.8046394196999995_ecut_30_nk_1/pwscf.save/
     NEW-OLD atomic charge density approx. for the potential
     extrapolated charge    8.41816, renormalised to    8.00000
     Generating pointlists ...

     total cpu time spent up to now is        3.0 secs

     Self-consistent Calculation

     iteration #  1     ecut=    30.00 Ry     beta= 0.50
     Davidson diagonalization with overlap
     ethr =  1.00E-06,  avg # of iterations =  5.5

     total cpu time spent up to now is        3.4 secs

     total energy              =     -56.44418012 Ry
     estimated scf accuracy    <       0.01864191 Ry

     total magnetization       =     4.00 Bohr mag/cell
     absolute magnetization    =     4.00 Bohr mag/cell

     iteration #  2     ecut=    30.00 Ry     beta= 0.50
     Davidson diagonalization with overlap
     ethr =  2.33E-04,  avg # of iterations =  3.0

     total cpu time spent up to now is        3.4 secs

     total energy              =     -56.47173078 Ry
     estimated scf accuracy    <       0.00960327 Ry

     total magnetization       =     4.00 Bohr mag/cell
     absolute magnetization    =     4.00 Bohr mag/cell

     iteration #  3     ecut=    30.00 Ry     beta= 0.50
     Davidson diagonalization with overlap
     ethr =  1.20E-04,  avg # of iterations =  1.0

     total cpu time spent up to now is        3.5 secs

     total energy              =     -56.47030199 Ry
     estimated scf accuracy    <       0.00292905 Ry

     total magnetization       =     4.00 Bohr mag/cell
     absolute magnetization    =     4.00 Bohr mag/cell

     iteration #  4     ecut=    30.00 Ry     beta= 0.50
     Davidson diagonalization with overlap
     ethr =  3.66E-05,  avg # of iterations =  2.0

     total cpu time spent up to now is        3.6 secs

     total energy              =     -56.47114692 Ry
     estimated scf accuracy    <       0.00016034 Ry

     total magnetization       =     4.00 Bohr mag/cell
     absolute magnetization    =     4.00 Bohr mag/cell

     iteration #  5     ecut=    30.00 Ry     beta= 0.50
     Davidson diagonalization with overlap
     ethr =  2.00E-06,  avg # of iterations =  1.0

     total cpu time spent up to now is        3.8 secs

     total energy              =     -56.47103383 Ry
     estimated scf accuracy    <       0.00016632 Ry

     total magnetization       =     4.00 Bohr mag/cell
     absolute magnetization    =     4.00 Bohr mag/cell

     iteration #  6     ecut=    30.00 Ry     beta= 0.50
     Davidson diagonalization with overlap
     ethr =  2.00E-06,  avg # of iterations =  2.0

     total cpu time spent up to now is        3.9 secs

     total energy              =     -56.47107187 Ry
     estimated scf accuracy    <       0.00000101 Ry

     total magnetization       =     4.00 Bohr mag/cell
     absolute magnetization    =     4.00 Bohr mag/cell

     iteration #  7     ecut=    30.00 Ry     beta= 0.50
     Davidson diagonalization with overlap
     ethr =  1.26E-08,  avg # of iterations =  1.5

     total cpu time spent up to now is        4.2 secs

     total energy              =     -56.47107191 Ry
     estimated scf accuracy    <       0.00000025 Ry

     total magnetization       =     4.00 Bohr mag/cell
     absolute magnetization    =     4.00 Bohr mag/cell

     iteration #  8     ecut=    30.00 Ry     beta= 0.50
     Davidson diagonalization with overlap
     ethr =  3.09E-09,  avg # of iterations =  1.0

     total cpu time spent up to now is        4.4 secs

     total energy              =     -56.47107184 Ry
     estimated scf accuracy    <       0.00000018 Ry

     total magnetization       =     4.00 Bohr mag/cell
     absolute magnetization    =     4.00 Bohr mag/cell

     iteration #  9     ecut=    30.00 Ry     beta= 0.50
     Davidson diagonalization with overlap
     ethr =  2.22E-09,  avg # of iterations =  1.0

     Magnetic moment per site  (integrated on atomic sphere of radius R)
     atom   1 (R=0.413)  charge=  6.3865  magn=  3.7927

     total cpu time spent up to now is        4.4 secs

     End of self-consistent calculation

 ------ SPIN UP ------------


          k = 0.0000 0.0000 0.0000 (   201 PWs)   bands (ev):

     4.4908  10.2766  10.2766  10.2766  11.2713  11.2713  37.4035  37.4035

 ------ SPIN DOWN ----------


          k = 0.0000 0.0000 0.0000 (   201 PWs)   bands (ev):

     5.4185  13.8619  13.8619  13.8619  16.2222  16.2222  37.6845  37.6845

     the Fermi energy is    13.8071 ev

!    total energy              =     -56.47107182 Ry
     estimated scf accuracy    <       0.00000004 Ry
     smearing contrib. (-TS)   =      -0.00746718 Ry
     internal energy E=F+TS    =     -56.46360464 Ry

     The total energy is F=E-TS. E is the sum of the following terms:
     one-electron contribution =       6.67721961 Ry
     hartree contribution      =       6.66408695 Ry
     xc contribution           =     -26.63893251 Ry
     ewald contribution        =     -43.16597869 Ry

     total magnetization       =     4.00 Bohr mag/cell
     absolute magnetization    =     4.00 Bohr mag/cell

     convergence has been achieved in   9 iterations

     Forces acting on atoms (cartesian axes, Ry/au):

     atom    1 type  1   force =     0.00000000    0.00000000    0.00000000
     The non-local contrib.  to forces
     atom    1 type  1   force =    -0.00000000    0.00000000   -0.00000000
     The ionic contribution  to forces
     atom    1 type  1   force =    -0.00000000   -0.00000000   -0.00000000
     The local contribution  to forces
     atom    1 type  1   force =    -0.00000000   -0.00000000   -0.00000000
     The core correction contribution to forces
     atom    1 type  1   force =     0.00000000    0.00000000   -0.00000000
     The Hubbard contrib.    to forces
     atom    1 type  1   force =     0.00000000    0.00000000    0.00000000
     The SCF correction term to forces
     atom    1 type  1   force =     0.00000000   -0.00000000    0.00000000

     Total force =     0.000000     Total SCF correction =     0.000000


     Computing stress (Cartesian axis) and pressure

          total   stress  (Ry/bohr**3)                   (kbar)     P=      -57.00
  -0.00038747   0.00000000   0.00000000          -57.00        0.00        0.00
   0.00000000  -0.00038747  -0.00000000            0.00      -57.00       -0.00
   0.00000000  -0.00000000  -0.00038747            0.00       -0.00      -57.00

     Energy error            =      5.2E-04 Ry
     Gradient error          =      0.0E+00 Ry/Bohr
     Cell gradient error     =      5.7E+01 kbar

     number of scf cycles    =   2
     number of bfgs steps    =   1

     enthalpy           old  =     -56.4705483510 Ry
     enthalpy           new  =     -56.4710718211 Ry

     CASE: enthalpy          _new < enthalpy          _old

     new trust radius        =       0.0112339214 bohr
     new conv_thr            =       0.0000000010 Ry

     new unit-cell volume =     77.06037 a.u.^3 (    11.41917 Ang^3 )
     density =      8.12080 g/cm^3

CELL_PARAMETERS (angstrom)
  -1.418594166   1.418594166   1.418594166
   1.418594166  -1.418594166   1.418594166
   1.418594166   1.418594166  -1.418594166

ATOMIC_POSITIONS (angstrom)
Fe            0.0000000000        0.0000000000        0.0000000000



     Writing config-only to output data dir /home/gridsan/epan1/labutil/lab3_samples/problem1/Lab3/Fe_bcc_a_2.8046394196999995_ecut_30_nk_1/pwscf.save/
     NEW-OLD atomic charge density approx. for the potential

     negative rho (up, down):  0.000E+00 2.189E-04
     extrapolated charge    7.84595, renormalised to    8.00000
     Generating pointlists ...

     total cpu time spent up to now is        5.1 secs

     Self-consistent Calculation

     iteration #  1     ecut=    30.00 Ry     beta= 0.50
     Davidson diagonalization with overlap
     ethr =  1.00E-06,  avg # of iterations =  4.0

     total cpu time spent up to now is        5.5 secs

     total energy              =     -56.46805178 Ry
     estimated scf accuracy    <       0.00254266 Ry

     total magnetization       =     4.00 Bohr mag/cell
     absolute magnetization    =     4.00 Bohr mag/cell

     iteration #  2     ecut=    30.00 Ry     beta= 0.50
     Davidson diagonalization with overlap
     ethr =  3.18E-05,  avg # of iterations =  3.0

     total cpu time spent up to now is        5.6 secs

     total energy              =     -56.47146393 Ry
     estimated scf accuracy    <       0.00104794 Ry

     total magnetization       =     4.00 Bohr mag/cell
     absolute magnetization    =     4.00 Bohr mag/cell

     iteration #  3     ecut=    30.00 Ry     beta= 0.50
     Davidson diagonalization with overlap
     ethr =  1.31E-05,  avg # of iterations =  1.0

     total cpu time spent up to now is        5.6 secs

     total energy              =     -56.47133525 Ry
     estimated scf accuracy    <       0.00029774 Ry

     total magnetization       =     4.00 Bohr mag/cell
     absolute magnetization    =     4.00 Bohr mag/cell

     iteration #  4     ecut=    30.00 Ry     beta= 0.50
     Davidson diagonalization with overlap
     ethr =  3.72E-06,  avg # of iterations =  2.0

     total cpu time spent up to now is        5.7 secs

     total energy              =     -56.47142125 Ry
     estimated scf accuracy    <       0.00002263 Ry

     total magnetization       =     4.00 Bohr mag/cell
     absolute magnetization    =     4.00 Bohr mag/cell

     iteration #  5     ecut=    30.00 Ry     beta= 0.50
     Davidson diagonalization with overlap
     ethr =  2.83E-07,  avg # of iterations =  1.0

     total cpu time spent up to now is        6.0 secs

     total energy              =     -56.47140833 Ry
     estimated scf accuracy    <       0.00001740 Ry

     total magnetization       =     4.00 Bohr mag/cell
     absolute magnetization    =     4.00 Bohr mag/cell

     iteration #  6     ecut=    30.00 Ry     beta= 0.50
     Davidson diagonalization with overlap
     ethr =  2.18E-07,  avg # of iterations =  2.0

     total cpu time spent up to now is        6.2 secs

     total energy              =     -56.47141327 Ry
     estimated scf accuracy    <       0.00000098 Ry

     total magnetization       =     4.00 Bohr mag/cell
     absolute magnetization    =     4.00 Bohr mag/cell

     iteration #  7     ecut=    30.00 Ry     beta= 0.50
     Davidson diagonalization with overlap
     ethr =  1.23E-08,  avg # of iterations =  1.0

     total cpu time spent up to now is        6.3 secs

     total energy              =     -56.47141323 Ry
     estimated scf accuracy    <       0.00000025 Ry

     total magnetization       =     4.00 Bohr mag/cell
     absolute magnetization    =     4.00 Bohr mag/cell

     iteration #  8     ecut=    30.00 Ry     beta= 0.50
     Davidson diagonalization with overlap
     ethr =  3.10E-09,  avg # of iterations =  1.0

     total cpu time spent up to now is        6.6 secs

     total energy              =     -56.47141321 Ry
     estimated scf accuracy    <       0.00000012 Ry

     total magnetization       =     4.00 Bohr mag/cell
     absolute magnetization    =     4.00 Bohr mag/cell

     iteration #  9     ecut=    30.00 Ry     beta= 0.50
     Davidson diagonalization with overlap
     ethr =  1.47E-09,  avg # of iterations =  1.0

     total cpu time spent up to now is        6.8 secs

     total energy              =     -56.47141320 Ry
     estimated scf accuracy    <       0.00000005 Ry

     total magnetization       =     4.00 Bohr mag/cell
     absolute magnetization    =     4.00 Bohr mag/cell

     iteration # 10     ecut=    30.00 Ry     beta= 0.50
     Davidson diagonalization with overlap
     ethr =  5.93E-10,  avg # of iterations =  1.0

     total cpu time spent up to now is        7.3 secs

     total energy              =     -56.47141319 Ry
     estimated scf accuracy    <       0.00000002 Ry

     total magnetization       =     4.00 Bohr mag/cell
     absolute magnetization    =     4.00 Bohr mag/cell

     iteration # 11     ecut=    30.00 Ry     beta= 0.50
     Davidson diagonalization with overlap
     ethr =  2.77E-10,  avg # of iterations =  2.0

     total cpu time spent up to now is        7.6 secs

     total energy              =     -56.47141319 Ry
     estimated scf accuracy    <          1.0E-09 Ry

     total magnetization       =     4.00 Bohr mag/cell
     absolute magnetization    =     4.00 Bohr mag/cell

     iteration # 12     ecut=    30.00 Ry     beta= 0.50
     Davidson diagonalization with overlap
     ethr =  1.27E-11,  avg # of iterations =  2.0

     Magnetic moment per site  (integrated on atomic sphere of radius R)
     atom   1 (R=0.413)  charge=  6.4107  magn=  3.7957

     total cpu time spent up to now is        7.7 secs

     End of self-consistent calculation

 ------ SPIN UP ------------


          k = 0.0000 0.0000 0.0000 (   201 PWs)   bands (ev):

     4.7135  10.5949  10.5949  10.5949  11.6313  11.6313  37.9127  37.9127

 ------ SPIN DOWN ----------


          k = 0.0000 0.0000 0.0000 (   201 PWs)   bands (ev):

     5.6534  14.1820  14.1820  14.1820  16.5864  16.5864  38.2067  38.2067

     the Fermi energy is    14.1272 ev

!    total energy              =     -56.47141319 Ry
     estimated scf accuracy    <          2.5E-11 Ry
     smearing contrib. (-TS)   =      -0.00746718 Ry
     internal energy E=F+TS    =     -56.46394601 Ry

     The total energy is F=E-TS. E is the sum of the following terms:
     one-electron contribution =       7.06152492 Ry
     hartree contribution      =       6.57275883 Ry
     xc contribution           =     -26.65692535 Ry
     ewald contribution        =     -43.44130441 Ry

     total magnetization       =     4.00 Bohr mag/cell
     absolute magnetization    =     4.00 Bohr mag/cell

     convergence has been achieved in  12 iterations

     Forces acting on atoms (cartesian axes, Ry/au):

     atom    1 type  1   force =     0.00000000    0.00000000    0.00000000
     The non-local contrib.  to forces
     atom    1 type  1   force =    -0.00000000    0.00000000    0.00000000
     The ionic contribution  to forces
     atom    1 type  1   force =    -0.00000000   -0.00000000   -0.00000000
     The local contribution  to forces
     atom    1 type  1   force =    -0.00000000   -0.00000000    0.00000000
     The core correction contribution to forces
     atom    1 type  1   force =    -0.00000000    0.00000000   -0.00000000
     The Hubbard contrib.    to forces
     atom    1 type  1   force =     0.00000000    0.00000000    0.00000000
     The SCF correction term to forces
     atom    1 type  1   force =     0.00000000    0.00000000    0.00000000

     Total force =     0.000000     Total SCF correction =     0.000000


     Computing stress (Cartesian axis) and pressure

          total   stress  (Ry/bohr**3)                   (kbar)     P=       -5.87
  -0.00003989  -0.00000000  -0.00000000           -5.87       -0.00       -0.00
  -0.00000000  -0.00003989  -0.00000000           -0.00       -5.87       -0.00
  -0.00000000  -0.00000000  -0.00003989           -0.00       -0.00       -5.87

     Energy error            =      3.4E-04 Ry
     Gradient error          =      0.0E+00 Ry/Bohr
     Cell gradient error     =      5.9E+00 kbar

     number of scf cycles    =   3
     number of bfgs steps    =   2

     enthalpy           old  =     -56.4710718211 Ry
     enthalpy           new  =     -56.4714131890 Ry

     CASE: enthalpy          _new < enthalpy          _old

     new trust radius        =       0.0012672481 bohr
     new conv_thr            =       0.0000000010 Ry

     new unit-cell volume =     76.89363 a.u.^3 (    11.39446 Ang^3 )
     density =      8.13841 g/cm^3

CELL_PARAMETERS (angstrom)
  -1.417570227   1.417570227   1.417570227
   1.417570227  -1.417570227   1.417570227
   1.417570227   1.417570227  -1.417570227

ATOMIC_POSITIONS (angstrom)
Fe            0.0000000000        0.0000000000        0.0000000000



     Writing config-only to output data dir /home/gridsan/epan1/labutil/lab3_samples/problem1/Lab3/Fe_bcc_a_2.8046394196999995_ecut_30_nk_1/pwscf.save/
     NEW-OLD atomic charge density approx. for the potential
     extrapolated charge    7.98265, renormalised to    8.00000
     Generating pointlists ...

     total cpu time spent up to now is        8.6 secs

     Self-consistent Calculation

     iteration #  1     ecut=    30.00 Ry     beta= 0.50
     Davidson diagonalization with overlap
     ethr =  1.00E-06,  avg # of iterations =  2.0

     total cpu time spent up to now is        8.7 secs

     total energy              =     -56.47137816 Ry
     estimated scf accuracy    <       0.00002875 Ry

     total magnetization       =     4.00 Bohr mag/cell
     absolute magnetization    =     4.00 Bohr mag/cell

     iteration #  2     ecut=    30.00 Ry     beta= 0.50
     Davidson diagonalization with overlap
     ethr =  3.59E-07,  avg # of iterations =  3.0

     total cpu time spent up to now is        8.7 secs

     total energy              =     -56.47141678 Ry
     estimated scf accuracy    <       0.00001212 Ry

     total magnetization       =     4.00 Bohr mag/cell
     absolute magnetization    =     4.00 Bohr mag/cell

     iteration #  3     ecut=    30.00 Ry     beta= 0.50
     Davidson diagonalization with overlap
     ethr =  1.52E-07,  avg # of iterations =  1.0

     total cpu time spent up to now is        8.8 secs

     total energy              =     -56.47141530 Ry
     estimated scf accuracy    <       0.00000344 Ry

     total magnetization       =     4.00 Bohr mag/cell
     absolute magnetization    =     4.00 Bohr mag/cell

     iteration #  4     ecut=    30.00 Ry     beta= 0.50
     Davidson diagonalization with overlap
     ethr =  4.31E-08,  avg # of iterations =  2.0

     total cpu time spent up to now is        8.8 secs

     total energy              =     -56.47141630 Ry
     estimated scf accuracy    <       0.00000030 Ry

     total magnetization       =     4.00 Bohr mag/cell
     absolute magnetization    =     4.00 Bohr mag/cell

     iteration #  5     ecut=    30.00 Ry     beta= 0.50
     Davidson diagonalization with overlap
     ethr =  3.78E-09,  avg # of iterations =  1.0

     total cpu time spent up to now is        8.9 secs

     total energy              =     -56.47141625 Ry
     estimated scf accuracy    <       0.00000020 Ry

     total magnetization       =     4.00 Bohr mag/cell
     absolute magnetization    =     4.00 Bohr mag/cell

     iteration #  6     ecut=    30.00 Ry     beta= 0.50
     Davidson diagonalization with overlap
     ethr =  2.45E-09,  avg # of iterations =  1.0

     total cpu time spent up to now is        8.9 secs

     total energy              =     -56.47141619 Ry
     estimated scf accuracy    <       0.00000009 Ry

     total magnetization       =     4.00 Bohr mag/cell
     absolute magnetization    =     4.00 Bohr mag/cell

     iteration #  7     ecut=    30.00 Ry     beta= 0.50
     Davidson diagonalization with overlap
     ethr =  1.09E-09,  avg # of iterations =  2.0

     Magnetic moment per site  (integrated on atomic sphere of radius R)
     atom   1 (R=0.413)  charge=  6.4136  magn=  3.7960

     total cpu time spent up to now is        9.0 secs

     End of self-consistent calculation

 ------ SPIN UP ------------


          k = 0.0000 0.0000 0.0000 (   201 PWs)   bands (ev):

     4.7391  10.6314  10.6314  10.6314  11.6726  11.6726  37.9709  37.9709

 ------ SPIN DOWN ----------


          k = 0.0000 0.0000 0.0000 (   201 PWs)   bands (ev):

     5.6804  14.2187  14.2187  14.2187  16.6281  16.6281  38.2664  38.2664

     the Fermi energy is    14.1639 ev

!    total energy              =     -56.47141621 Ry
     estimated scf accuracy    <          7.3E-11 Ry
     smearing contrib. (-TS)   =      -0.00746718 Ry
     internal energy E=F+TS    =     -56.46394903 Ry

     The total energy is F=E-TS. E is the sum of the following terms:
     one-electron contribution =       7.10526816 Ry
     hartree contribution      =       6.56250149 Ry
     xc contribution           =     -26.65903574 Ry
     ewald contribution        =     -43.47268294 Ry

     total magnetization       =     4.00 Bohr mag/cell
     absolute magnetization    =     4.00 Bohr mag/cell

     convergence has been achieved in   7 iterations

     Forces acting on atoms (cartesian axes, Ry/au):

     atom    1 type  1   force =     0.00000000    0.00000000    0.00000000
     The non-local contrib.  to forces
     atom    1 type  1   force =     0.00000000   -0.00000000    0.00000000
     The ionic contribution  to forces
     atom    1 type  1   force =    -0.00000000   -0.00000000   -0.00000000
     The local contribution  to forces
     atom    1 type  1   force =    -0.00000000   -0.00000000   -0.00000000
     The core correction contribution to forces
     atom    1 type  1   force =     0.00000000   -0.00000000   -0.00000000
     The Hubbard contrib.    to forces
     atom    1 type  1   force =     0.00000000    0.00000000    0.00000000
     The SCF correction term to forces
     atom    1 type  1   force =     0.00000000    0.00000000    0.00000000

     Total force =     0.000000     Total SCF correction =     0.000000


     Computing stress (Cartesian axis) and pressure

          total   stress  (Ry/bohr**3)                   (kbar)     P=        0.60
   0.00000405   0.00000000   0.00000000            0.60        0.00        0.00
   0.00000000   0.00000405   0.00000000            0.00        0.60        0.00
   0.00000000   0.00000000   0.00000405            0.00        0.00        0.60

     Energy error            =      3.0E-06 Ry
     Gradient error          =      0.0E+00 Ry/Bohr
     Cell gradient error     =      6.0E-01 kbar

     number of scf cycles    =   4
     number of bfgs steps    =   3

     enthalpy           old  =     -56.4714131890 Ry
     enthalpy           new  =     -56.4714162115 Ry

     CASE: enthalpy          _new < enthalpy          _old

     new trust radius        =       0.0001164894 bohr
     new conv_thr            =       0.0000000010 Ry

     new unit-cell volume =     76.90895 a.u.^3 (    11.39673 Ang^3 )
     density =      8.13679 g/cm^3

CELL_PARAMETERS (angstrom)
  -1.417664385   1.417664385   1.417664385
   1.417664385  -1.417664385   1.417664385
   1.417664385   1.417664385  -1.417664385

ATOMIC_POSITIONS (angstrom)
Fe            0.0000000000        0.0000000000        0.0000000000



     Writing config-only to output data dir /home/gridsan/epan1/labutil/lab3_samples/problem1/Lab3/Fe_bcc_a_2.8046394196999995_ecut_30_nk_1/pwscf.save/
     NEW-OLD atomic charge density approx. for the potential
     extrapolated charge    8.00159, renormalised to    8.00000
     Generating pointlists ...

     total cpu time spent up to now is        9.6 secs

     Self-consistent Calculation

     iteration #  1     ecut=    30.00 Ry     beta= 0.50
     Davidson diagonalization with overlap
     ethr =  1.00E-06,  avg # of iterations =  2.0

     Threshold (ethr) on eigenvalues was too large:
     Diagonalizing with lowered threshold

     Davidson diagonalization with overlap
     ethr =  3.13E-09,  avg # of iterations =  1.0

     total cpu time spent up to now is        9.7 secs

     total energy              =     -56.47141587 Ry
     estimated scf accuracy    <       0.00000028 Ry

     total magnetization       =     4.00 Bohr mag/cell
     absolute magnetization    =     4.00 Bohr mag/cell

     iteration #  2     ecut=    30.00 Ry     beta= 0.50
     Davidson diagonalization with overlap
     ethr =  3.50E-09,  avg # of iterations =  3.0

     total cpu time spent up to now is        9.8 secs

     total energy              =     -56.47141625 Ry
     estimated scf accuracy    <       0.00000012 Ry

     total magnetization       =     4.00 Bohr mag/cell
     absolute magnetization    =     4.00 Bohr mag/cell

     iteration #  3     ecut=    30.00 Ry     beta= 0.50
     Davidson diagonalization with overlap
     ethr =  1.46E-09,  avg # of iterations =  1.0

     total cpu time spent up to now is        9.9 secs

     total energy              =     -56.47141623 Ry
     estimated scf accuracy    <       0.00000003 Ry

     total magnetization       =     4.00 Bohr mag/cell
     absolute magnetization    =     4.00 Bohr mag/cell

     iteration #  4     ecut=    30.00 Ry     beta= 0.50
     Davidson diagonalization with overlap
     ethr =  4.13E-10,  avg # of iterations =  2.0

     total cpu time spent up to now is        9.9 secs

     total energy              =     -56.47141624 Ry
     estimated scf accuracy    <          2.9E-09 Ry

     total magnetization       =     4.00 Bohr mag/cell
     absolute magnetization    =     4.00 Bohr mag/cell

     iteration #  5     ecut=    30.00 Ry     beta= 0.50
     Davidson diagonalization with overlap
     ethr =  3.60E-11,  avg # of iterations =  1.0

     total cpu time spent up to now is       10.0 secs

     total energy              =     -56.47141624 Ry
     estimated scf accuracy    <          2.0E-09 Ry

     total magnetization       =     4.00 Bohr mag/cell
     absolute magnetization    =     4.00 Bohr mag/cell

     iteration #  6     ecut=    30.00 Ry     beta= 0.50
     Davidson diagonalization with overlap
     ethr =  2.48E-11,  avg # of iterations =  2.0

     Magnetic moment per site  (integrated on atomic sphere of radius R)
     atom   1 (R=0.413)  charge=  6.4133  magn=  3.7960

     total cpu time spent up to now is       10.0 secs

     End of self-consistent calculation

 ------ SPIN UP ------------


          k = 0.0000 0.0000 0.0000 (   201 PWs)   bands (ev):

     4.7367  10.6280  10.6280  10.6280  11.6688  11.6688  37.9655  37.9655

 ------ SPIN DOWN ----------


          k = 0.0000 0.0000 0.0000 (   201 PWs)   bands (ev):

     5.6779  14.2153  14.2153  14.2153  16.6243  16.6243  38.2609  38.2609

     the Fermi energy is    14.1605 ev

!    total energy              =     -56.47141624 Ry
     estimated scf accuracy    <          3.1E-10 Ry
     smearing contrib. (-TS)   =      -0.00746718 Ry
     internal energy E=F+TS    =     -56.46394906 Ry

     The total energy is F=E-TS. E is the sum of the following terms:
     one-electron contribution =       7.10127591 Ry
     hartree contribution      =       6.56338021 Ry
     xc contribution           =     -26.65880959 Ry
     ewald contribution        =     -43.46979559 Ry

     total magnetization       =     4.00 Bohr mag/cell
     absolute magnetization    =     4.00 Bohr mag/cell

     convergence has been achieved in   6 iterations

     Forces acting on atoms (cartesian axes, Ry/au):

     atom    1 type  1   force =     0.00000000    0.00000000    0.00000000
     The non-local contrib.  to forces
     atom    1 type  1   force =     0.00000000    0.00000000    0.00000000
     The ionic contribution  to forces
     atom    1 type  1   force =    -0.00000000   -0.00000000   -0.00000000
     The local contribution  to forces
     atom    1 type  1   force =    -0.00000000   -0.00000000   -0.00000000
     The core correction contribution to forces
     atom    1 type  1   force =    -0.00000000   -0.00000000   -0.00000000
     The Hubbard contrib.    to forces
     atom    1 type  1   force =     0.00000000    0.00000000    0.00000000
     The SCF correction term to forces
     atom    1 type  1   force =    -0.00000000    0.00000000    0.00000000

     Total force =     0.000000     Total SCF correction =     0.000000


     Computing stress (Cartesian axis) and pressure

          total   stress  (Ry/bohr**3)                   (kbar)     P=       -0.34
  -0.00000231   0.00000000   0.00000000           -0.34        0.00        0.00
   0.00000000  -0.00000231   0.00000000            0.00       -0.34        0.00
   0.00000000   0.00000000  -0.00000231            0.00        0.00       -0.34

     Energy error            =      3.2E-08 Ry
     Gradient error          =      0.0E+00 Ry/Bohr
     Cell gradient error     =      3.4E-01 kbar

     bfgs converged in   5 scf cycles and   4 bfgs steps
     (criteria: energy <  1.0E-04 Ry, force <  1.0E-03 Ry/Bohr, cell <  5.0E-01 kbar)

     End of BFGS Geometry Optimization

     Final enthalpy           =     -56.4714162434 Ry

     File /home/gridsan/epan1/labutil/lab3_samples/problem1/Lab3/Fe_bcc_a_2.8046394196999995_ecut_30_nk_1/pwscf.bfgs deleted, as requested
Begin final coordinates
     new unit-cell volume =     76.90895 a.u.^3 (    11.39673 Ang^3 )
     density =      8.13679 g/cm^3

CELL_PARAMETERS (angstrom)
  -1.417664385   1.417664385   1.417664385
   1.417664385  -1.417664385   1.417664385
   1.417664385   1.417664385  -1.417664385

ATOMIC_POSITIONS (angstrom)
Fe            0.0000000000        0.0000000000        0.0000000000
End final coordinates



     Writing config-only to output data dir /home/gridsan/epan1/labutil/lab3_samples/problem1/Lab3/Fe_bcc_a_2.8046394196999995_ecut_30_nk_1/pwscf.save/

     Final scf calculation at the relaxed structure.
     The G-vectors are recalculated for the final unit cell
     Results may differ from those at the preceding step.

     Parallelization info
     --------------------
     sticks:   dense  smooth     PW     G-vecs:    dense   smooth      PW
     Min          97      49     10                 1223      430      48
     Max          98      50     11                 1225      431      51
     Sum         391     197     43                 4897     1721     201

     Using Slab Decomposition



     bravais-lattice index     =            0
     lattice parameter (alat)  =       4.5899  a.u.
     unit-cell volume          =      76.9089 (a.u.)^3
     number of atoms/cell      =            1
     number of atomic types    =            1
     number of electrons       =         8.00
     number of Kohn-Sham states=            8
     kinetic-energy cutoff     =      30.0000  Ry
     charge density cutoff     =     240.0000  Ry
     scf convergence threshold =      1.0E-09
     mixing beta               =       0.5000
     number of iterations used =            8  plain     mixing
     press convergence thresh. =      5.0E-01
     Exchange-correlation=  SLA  PW   PBE  PBE
                           (   1   4   3   4   0   0   0)

     celldm(1)=   4.589935  celldm(2)=   0.000000  celldm(3)=   0.000000
     celldm(4)=   0.000000  celldm(5)=   0.000000  celldm(6)=   0.000000

     crystal axes: (cart. coord. in units of alat)
               a(1) = (  -0.583668   0.583668   0.583668 )  
               a(2) = (   0.583668  -0.583668   0.583668 )  
               a(3) = (   0.583668   0.583668  -0.583668 )  

     reciprocal axes: (cart. coord. in units 2 pi/alat)
               b(1) = (  0.000000  0.856652  0.856652 )  
               b(2) = (  0.856652  0.000000  0.856652 )  
               b(3) = (  0.856652  0.856652  0.000000 )  


     PseudoPot. # 1 for Fe read from file:
     /home/gridsan/epan1/labutil/lab3_samples/pseudopotentials/Fe.pbe-nd-rrkjus.UPF
     MD5 check sum: 398036227a04b607635f6f5e8dfd8242
     Pseudo is Ultrasoft + core correction, Zval =  8.0
     Generated by new atomic code, or converted to UPF format
     Using radial grid of  957 points,  6 beta functions with: 
                l(1) =   0
                l(2) =   0
                l(3) =   1
                l(4) =   1
                l(5) =   2
                l(6) =   2
     Q(r) pseudized with 0 coefficients 


     atomic species   valence    mass     pseudopotential
        Fe             8.00    55.84500     Fe( 1.00)

     Starting magnetic structure 
     atomic species   magnetization
        Fe           0.592

     48 Sym. Ops., with inversion, found



   Cartesian axes

     site n.     atom                  positions (alat units)
         1           Fe  tau(   1) = (   0.0000000   0.0000000   0.0000000  )

     number of k points=     1  Methfessel-Paxton smearing, width (Ry)=  0.0200
                       cart. coord. in units 2pi/alat
        k(    1) = (   0.0000000   0.0000000   0.0000000), wk =   1.0000000

     Dense  grid:     4897 G-vectors     FFT dimensions: (  24,  24,  24)

     Smooth grid:     1721 G-vectors     FFT dimensions: (  18,  18,  18)

     Estimated max dynamical RAM per process >       7.56 MB

     Estimated total dynamical RAM >      30.25 MB
     Generating pointlists ...

     Initial potential from superposition of free atoms

     starting charge       7.9994, renormalised to       8.0000
     Starting wfcs are    6 randomized atomic wfcs +    2 random wfcs

     total cpu time spent up to now is       11.5 secs

     Self-consistent Calculation

     iteration #  1     ecut=    30.00 Ry     beta= 0.50
     Davidson diagonalization with overlap
     ethr =  1.00E-06,  avg # of iterations = 14.5

     total cpu time spent up to now is       11.9 secs

     total energy              =     -56.43726018 Ry
     estimated scf accuracy    <       0.13152263 Ry

     total magnetization       =     4.00 Bohr mag/cell
     absolute magnetization    =     4.00 Bohr mag/cell

     iteration #  2     ecut=    30.00 Ry     beta= 0.50
     Davidson diagonalization with overlap
     ethr =  1.64E-03,  avg # of iterations =  2.0

     total cpu time spent up to now is       12.4 secs

     total energy              =     -56.46667611 Ry
     estimated scf accuracy    <       0.00948970 Ry

     total magnetization       =     4.00 Bohr mag/cell
     absolute magnetization    =     4.00 Bohr mag/cell

     iteration #  3     ecut=    30.00 Ry     beta= 0.50
     Davidson diagonalization with overlap
     ethr =  1.19E-04,  avg # of iterations =  1.5

     total cpu time spent up to now is       12.7 secs

     total energy              =     -56.47118107 Ry
     estimated scf accuracy    <       0.00171203 Ry

     total magnetization       =     4.00 Bohr mag/cell
     absolute magnetization    =     4.00 Bohr mag/cell

     iteration #  4     ecut=    30.00 Ry     beta= 0.50
     Davidson diagonalization with overlap
     ethr =  2.14E-05,  avg # of iterations =  1.5

     total cpu time spent up to now is       12.7 secs

     total energy              =     -56.47135518 Ry
     estimated scf accuracy    <       0.00005527 Ry

     total magnetization       =     4.00 Bohr mag/cell
     absolute magnetization    =     4.00 Bohr mag/cell

     iteration #  5     ecut=    30.00 Ry     beta= 0.50
     Davidson diagonalization with overlap
     ethr =  6.91E-07,  avg # of iterations =  3.5

     total cpu time spent up to now is       12.8 secs

     total energy              =     -56.47138910 Ry
     estimated scf accuracy    <       0.00004089 Ry

     total magnetization       =     4.00 Bohr mag/cell
     absolute magnetization    =     4.00 Bohr mag/cell

     iteration #  6     ecut=    30.00 Ry     beta= 0.50
     Davidson diagonalization with overlap
     ethr =  5.11E-07,  avg # of iterations =  2.0

     total cpu time spent up to now is       12.8 secs

     total energy              =     -56.47139079 Ry
     estimated scf accuracy    <       0.00000360 Ry

     total magnetization       =     4.00 Bohr mag/cell
     absolute magnetization    =     4.00 Bohr mag/cell

     iteration #  7     ecut=    30.00 Ry     beta= 0.50
     Davidson diagonalization with overlap
     ethr =  4.50E-08,  avg # of iterations =  2.0

     total cpu time spent up to now is       13.4 secs

     total energy              =     -56.47139229 Ry
     estimated scf accuracy    <       0.00000026 Ry

     total magnetization       =     4.00 Bohr mag/cell
     absolute magnetization    =     4.00 Bohr mag/cell

     iteration #  8     ecut=    30.00 Ry     beta= 0.50
     Davidson diagonalization with overlap
     ethr =  3.19E-09,  avg # of iterations =  3.0

     total cpu time spent up to now is       14.3 secs

     total energy              =     -56.47139241 Ry
     estimated scf accuracy    <       0.00000007 Ry

     total magnetization       =     4.00 Bohr mag/cell
     absolute magnetization    =     4.00 Bohr mag/cell

     iteration #  9     ecut=    30.00 Ry     beta= 0.50
     Davidson diagonalization with overlap
     ethr =  9.34E-10,  avg # of iterations =  3.0

     total cpu time spent up to now is       15.1 secs

     total energy              =     -56.47139246 Ry
     estimated scf accuracy    <          5.6E-09 Ry

     total magnetization       =     4.00 Bohr mag/cell
     absolute magnetization    =     4.00 Bohr mag/cell

     iteration # 10     ecut=    30.00 Ry     beta= 0.50
     Davidson diagonalization with overlap
     ethr =  6.94E-11,  avg # of iterations =  5.0

     Magnetic moment per site  (integrated on atomic sphere of radius R)
     atom   1 (R=0.413)  charge=  6.4133  magn=  3.7960

     total cpu time spent up to now is       15.2 secs

     End of self-consistent calculation

 ------ SPIN UP ------------


          k = 0.0000 0.0000 0.0000 (   201 PWs)   bands (ev):

     4.7367  10.6279  10.6279  10.6279  11.6686  11.6686  37.9654  37.9654

 ------ SPIN DOWN ----------


          k = 0.0000 0.0000 0.0000 (   201 PWs)   bands (ev):

     5.6777  14.2151  14.2151  14.2151  16.6240  16.6240  38.2606  38.2606

     the Fermi energy is    14.1603 ev

!    total energy              =     -56.47139247 Ry
     estimated scf accuracy    <          1.5E-10 Ry
     smearing contrib. (-TS)   =      -0.00746718 Ry
     internal energy E=F+TS    =     -56.46392529 Ry

     The total energy is F=E-TS. E is the sum of the following terms:
     one-electron contribution =       7.10124969 Ry
     hartree contribution      =       6.56343484 Ry
     xc contribution           =     -26.65881423 Ry
     ewald contribution        =     -43.46979559 Ry

     total magnetization       =     4.00 Bohr mag/cell
     absolute magnetization    =     4.00 Bohr mag/cell

     convergence has been achieved in  10 iterations

     Forces acting on atoms (cartesian axes, Ry/au):

     atom    1 type  1   force =     0.00000000    0.00000000    0.00000000
     The non-local contrib.  to forces
     atom    1 type  1   force =     0.00000000    0.00000000    0.00000000
     The ionic contribution  to forces
     atom    1 type  1   force =    -0.00000000   -0.00000000   -0.00000000
     The local contribution  to forces
     atom    1 type  1   force =    -0.00000000   -0.00000000    0.00000000
     The core correction contribution to forces
     atom    1 type  1   force =     0.00000000   -0.00000000    0.00000000
     The Hubbard contrib.    to forces
     atom    1 type  1   force =     0.00000000    0.00000000    0.00000000
     The SCF correction term to forces
     atom    1 type  1   force =     0.00000000    0.00000000    0.00000000

     Total force =     0.000000     Total SCF correction =     0.000000


     Computing stress (Cartesian axis) and pressure

          total   stress  (Ry/bohr**3)                   (kbar)     P=       -1.67
  -0.00001134   0.00000000   0.00000000           -1.67        0.00        0.00
   0.00000000  -0.00001134   0.00000000            0.00       -1.67        0.00
  -0.00000000   0.00000000  -0.00001134           -0.00        0.00       -1.67


     init_run     :      1.09s CPU      2.00s WALL (       2 calls)
     electrons    :      5.41s CPU      9.45s WALL (       6 calls)
     update_pot   :      0.53s CPU      0.89s WALL (       4 calls)
     forces       :      0.51s CPU      0.64s WALL (       6 calls)
     stress       :      1.42s CPU      1.95s WALL (       6 calls)

     Called by init_run:
     wfcinit      :      0.01s CPU      0.03s WALL (       2 calls)
     potinit      :      0.26s CPU      0.49s WALL (       2 calls)
     hinit0       :      0.73s CPU      1.30s WALL (       2 calls)

     Called by electrons:
     c_bands      :      1.64s CPU      3.22s WALL (      52 calls)
     sum_band     :      1.19s CPU      1.90s WALL (      52 calls)
     v_of_rho     :      1.23s CPU      2.14s WALL (      57 calls)
     newd         :      0.55s CPU      0.76s WALL (      57 calls)
     mix_rho      :      0.51s CPU      0.84s WALL (      52 calls)

     Called by c_bands:
     init_us_2    :      0.01s CPU      0.01s WALL (     236 calls)
     init_us_2:cp :      0.01s CPU      0.01s WALL (     236 calls)
     cegterg      :      1.24s CPU      2.23s WALL (     104 calls)

     Called by *egterg:
     cdiaghg      :      0.04s CPU      0.07s WALL (     346 calls)
     h_psi        :      0.82s CPU      1.52s WALL (     360 calls)
     s_psi        :      0.00s CPU      0.00s WALL (     360 calls)
     g_psi        :      0.00s CPU      0.00s WALL (     252 calls)

     Called by h_psi:
     h_psi:calbec :      0.09s CPU      0.12s WALL (     360 calls)
     vloc_psi     :      0.72s CPU      1.38s WALL (     360 calls)
     add_vuspsi   :      0.00s CPU      0.02s WALL (     360 calls)

     General routines
     calbec       :      0.19s CPU      0.25s WALL (     524 calls)
     fft          :      1.36s CPU      2.32s WALL (    1659 calls)
     ffts         :      0.14s CPU      0.24s WALL (     218 calls)
     fftw         :      1.11s CPU      2.09s WALL (    5310 calls)
     interpolate  :      0.16s CPU      0.27s WALL (     114 calls)

     Parallel routines

     PWSCF        :      9.53s CPU     15.85s WALL


   This run was terminated on:  17: 2:47   1Nov2023            

=------------------------------------------------------------------------------=
   JOB DONE.
=------------------------------------------------------------------------------=
