LAMMPS (29 Oct 2020)
Reading data file ...
  orthogonal box = (0.0000000 0.0000000 0.0000000) to (24.540000 24.540000 24.540000)
  1 by 1 by 1 MPI processor grid
  reading atoms ...
  864 atoms
  read_data CPU = 0.003 seconds
Reading eam potential file /home/gridsan/epan1/3320_atomistic_shared/lammps/potentials/Ag_u3.eam with DATE: 2007-06-11
WARNING: No fixes defined, atoms won't move (../verlet.cpp:54)
Neighbor list info ...
  update every 1 steps, delay 10 steps, check yes
  max neighbors/atom: 2000, page size: 100000
  master list distance cutoff = 7.55
  ghost atom cutoff = 7.55
  binsize = 3.775, bins = 7 7 7
  1 neighbor lists, perpetual/occasional/extra = 1 0 0
  (1) pair eam, perpetual
      attributes: half, newton on
      pair build: half/bin/atomonly/newton
      stencil: half/bin/3d/newton
      bin: standard
Setting up Verlet run ...
  Unit style    : metal
  Current step  : 0
  Time step     : 0.001
Per MPI rank memory allocation (min/avg/max) = 3.422 | 3.422 | 3.422 Mbytes
Step PotEng Lx Ly Lz Press Pxx Pyy Pzz 
       0      -2462.4        24.54        24.54        24.54 -0.033363338 -0.033363338 -0.033363338 -0.033363338 
Loop time of 9.53674e-07 on 1 procs for 0 steps with 864 atoms

0.0% CPU use with 1 MPI tasks x no OpenMP threads

MPI task timing breakdown:
Section |  min time  |  avg time  |  max time  |%varavg| %total
---------------------------------------------------------------
Pair    | 0          | 0          | 0          |   0.0 |  0.00
Neigh   | 0          | 0          | 0          |   0.0 |  0.00
Comm    | 0          | 0          | 0          |   0.0 |  0.00
Output  | 0          | 0          | 0          |   0.0 |  0.00
Modify  | 0          | 0          | 0          |   0.0 |  0.00
Other   |            | 9.537e-07  |            |       |100.00

Nlocal:        864.000 ave         864 max         864 min
Histogram: 1 0 0 0 0 0 0 0 0 0
Nghost:        2565.00 ave        2565 max        2565 min
Histogram: 1 0 0 0 0 0 0 0 0 0
Neighs:        37152.0 ave       37152 max       37152 min
Histogram: 1 0 0 0 0 0 0 0 0 0

Total # of neighbors = 37152
Ave neighs/atom = 43.000000
Neighbor list builds = 0
Dangerous builds = 0
WARNING: Using 'neigh_modify every 1 delay 0 check yes' setting during minimization (../min.cpp:187)
Setting up cg style minimization ...
  Unit style    : metal
  Current step  : 0
WARNING: Energy due to 1 extra global DOFs will be included in minimizer energies
Per MPI rank memory allocation (min/avg/max) = 4.547 | 4.547 | 4.547 Mbytes
Step PotEng Lx Ly Lz Press Pxx Pyy Pzz 
       0      -2462.4        24.54        24.54        24.54 -0.033363338 -0.033363338 -0.033363338 -0.033363338 
       3      -2462.4    24.540002    24.540002    24.540002  -0.37418132  -0.37418132  -0.37418132  -0.37418132 
Loop time of 0.00718379 on 1 procs for 3 steps with 864 atoms

99.9% CPU use with 1 MPI tasks x no OpenMP threads

Minimization stats:
  Stopping criterion = energy tolerance
  Energy initial, next-to-last, final = 
     -2462.39995113441  -2462.40000132482  -2462.40000134768
  Force two-norm initial, final = 0.030214059 0.010357872
  Force max component initial, final = 0.00092321758 0.010354205
  Final line search alpha, max atom move = 0.016272508 0.00016848889
  Iterations, force evaluations = 3 6

MPI task timing breakdown:
Section |  min time  |  avg time  |  max time  |%varavg| %total
---------------------------------------------------------------
Pair    | 0.0067477  | 0.0067477  | 0.0067477  |   0.0 | 93.93
Neigh   | 0          | 0          | 0          |   0.0 |  0.00
Comm    | 7.6056e-05 | 7.6056e-05 | 7.6056e-05 |   0.0 |  1.06
Output  | 0          | 0          | 0          |   0.0 |  0.00
Modify  | 0          | 0          | 0          |   0.0 |  0.00
Other   |            | 0.00036    |            |       |  5.01

Nlocal:        864.000 ave         864 max         864 min
Histogram: 1 0 0 0 0 0 0 0 0 0
Nghost:        2565.00 ave        2565 max        2565 min
Histogram: 1 0 0 0 0 0 0 0 0 0
Neighs:        37152.0 ave       37152 max       37152 min
Histogram: 1 0 0 0 0 0 0 0 0 0

Total # of neighbors = 37152
Ave neighs/atom = 43.000000
Neighbor list builds = 0
Dangerous builds = 0
Total energy (eV) = -2462.40000134768
Number of atoms = 864
Lattice constant (Angstoms) = 24.5400024919811
Total wall time: 0:00:00
