
     Program PWSCF v.7.2 starts on  3Nov2023 at 14:10:25 

     This program is part of the open-source Quantum ESPRESSO suite
     for quantum simulation of materials; please cite
         "P. Giannozzi et al., J. Phys.:Condens. Matter 21 395502 (2009);
         "P. Giannozzi et al., J. Phys.:Condens. Matter 29 465901 (2017);
         "P. Giannozzi et al., J. Chem. Phys. 152 154105 (2020);
          URL http://www.quantum-espresso.org", 
     in publications or presentations arising from this work. More details at
     http://www.quantum-espresso.org/quote

     Parallel version (MPI), running on     8 processors

     MPI processes distributed on     8 nodes
     186947 MiB available memory on the printing compute node when the environment starts

     Waiting for input...
     Reading input from standard input

     Current dimensions of program PWSCF are:
     Max number of different atomic species (ntypx) = 10
     Max number of k-points (npk) =  40000
     Max angular momentum in pseudopotentials (lmaxx) =  4
     file Cu.pz-d-rrkjus.UPF: wavefunction(s)  3D renormalized
     Message from routine setup:
     using ibrav=0 with symmetry is DISCOURAGED, use correct ibrav instead

     R & G space division:  proc/nbgrp/npool/nimage =       8
     Subspace diagonalization in iterative solution of the eigenvalue problem:
     a serial algorithm will be used


     Parallelization info
     --------------------
     sticks:   dense  smooth     PW     G-vecs:    dense   smooth      PW
     Min          86      43     14                 2263      801     150
     Max          89      44     15                 2264      804     153
     Sum         697     349    113                18111     6423    1207

     Using Slab Decomposition



     bravais-lattice index     =            0
     lattice parameter (alat)  =       5.2270  a.u.
     unit-cell volume          =     187.0550 (a.u.)^3
     number of atoms/cell      =            2
     number of atomic types    =            2
     number of electrons       =        22.00
     number of Kohn-Sham states=           15
     kinetic-energy cutoff     =      40.0000  Ry
     charge density cutoff     =     320.0000  Ry
     scf convergence threshold =      1.0E-07
     mixing beta               =       0.5000
     number of iterations used =            8  plain     mixing
     energy convergence thresh.=      1.0E-04
     force convergence thresh. =      1.0E-03
     press convergence thresh. =      5.0E-01
     Exchange-correlation=  SLA  PZ   NOGX NOGC
                           (   1   1   0   0   0   0   0)
     nstep                     =           50


     celldm(1)=   5.226982  celldm(2)=   0.000000  celldm(3)=   0.000000
     celldm(4)=   0.000000  celldm(5)=   0.000000  celldm(6)=   0.000000

     crystal axes: (cart. coord. in units of alat)
               a(1) = (   1.000000   0.000000   0.000000 )  
               a(2) = (   0.000000   1.000000   0.000000 )  
               a(3) = (   0.000000   0.000000   1.309834 )  

     reciprocal axes: (cart. coord. in units 2 pi/alat)
               b(1) = (  1.000000  0.000000  0.000000 )  
               b(2) = (  0.000000  1.000000  0.000000 )  
               b(3) = (  0.000000  0.000000  0.763456 )  


     PseudoPot. # 1 for Au read from file:
     /home/gridsan/epan1/labutil/lab3_samples/pseudopotentials/Au.pz-d-rrkjus.UPF
     MD5 check sum: 424ffd4ac9c90487cbadcd287136c95b
     Pseudo is Ultrasoft, Zval = 11.0
     Generated by new atomic code, or converted to UPF format
     Using radial grid of 1279 points,  3 beta functions with: 
                l(1) =   2
                l(2) =   2
                l(3) =   1
     Q(r) pseudized with 0 coefficients 


     PseudoPot. # 2 for Cu read from file:
     /home/gridsan/epan1/labutil/lab3_samples/pseudopotentials/Cu.pz-d-rrkjus.UPF
     MD5 check sum: fd38ae683e239c95a66f426e1f8e5fc7
     Pseudo is Ultrasoft, Zval = 11.0
     Generated by new atomic code, or converted to UPF format
     Using radial grid of  899 points,  3 beta functions with: 
                l(1) =   2
                l(2) =   2
                l(3) =   1
     Q(r) pseudized with 0 coefficients 


     atomic species   valence    mass     pseudopotential
        Au            11.00   196.96657     Au( 1.00)
        Cu            11.00    63.54600     Cu( 1.00)

     Starting magnetic structure 
     atomic species   magnetization
        Au           0.700
        Cu           0.000

     16 Sym. Ops., with inversion, found



   Cartesian axes

     site n.     atom                  positions (alat units)
         1           Cu  tau(   1) = (   0.0000000   0.0000000   0.0000000  )
         2           Au  tau(   2) = (   0.5000000   0.5000000   0.6549168  )

     number of k points=    75  Methfessel-Paxton smearing, width (Ry)=  0.0200
                       cart. coord. in units 2pi/alat
        k(    1) = (   0.0000000   0.0000000   0.0000000), wk =   0.0019531
        k(    2) = (   0.0000000   0.0000000   0.0954320), wk =   0.0039062
        k(    3) = (   0.0000000   0.0000000   0.1908639), wk =   0.0039062
        k(    4) = (   0.0000000   0.0000000   0.2862959), wk =   0.0039062
        k(    5) = (   0.0000000   0.0000000  -0.3817278), wk =   0.0019531
        k(    6) = (   0.0000000   0.1250000   0.0000000), wk =   0.0078125
        k(    7) = (   0.0000000   0.1250000   0.0954320), wk =   0.0156250
        k(    8) = (   0.0000000   0.1250000   0.1908639), wk =   0.0156250
        k(    9) = (   0.0000000   0.1250000   0.2862959), wk =   0.0156250
        k(   10) = (   0.0000000   0.1250000  -0.3817278), wk =   0.0078125
        k(   11) = (   0.0000000   0.2500000   0.0000000), wk =   0.0078125
        k(   12) = (   0.0000000   0.2500000   0.0954320), wk =   0.0156250
        k(   13) = (   0.0000000   0.2500000   0.1908639), wk =   0.0156250
        k(   14) = (   0.0000000   0.2500000   0.2862959), wk =   0.0156250
        k(   15) = (   0.0000000   0.2500000  -0.3817278), wk =   0.0078125
        k(   16) = (   0.0000000   0.3750000   0.0000000), wk =   0.0078125
        k(   17) = (   0.0000000   0.3750000   0.0954320), wk =   0.0156250
        k(   18) = (   0.0000000   0.3750000   0.1908639), wk =   0.0156250
        k(   19) = (   0.0000000   0.3750000   0.2862959), wk =   0.0156250
        k(   20) = (   0.0000000   0.3750000  -0.3817278), wk =   0.0078125
        k(   21) = (   0.0000000  -0.5000000   0.0000000), wk =   0.0039062
        k(   22) = (   0.0000000  -0.5000000   0.0954320), wk =   0.0078125
        k(   23) = (   0.0000000  -0.5000000   0.1908639), wk =   0.0078125
        k(   24) = (   0.0000000  -0.5000000   0.2862959), wk =   0.0078125
        k(   25) = (   0.0000000  -0.5000000  -0.3817278), wk =   0.0039062
        k(   26) = (   0.1250000   0.1250000   0.0000000), wk =   0.0078125
        k(   27) = (   0.1250000   0.1250000   0.0954320), wk =   0.0156250
        k(   28) = (   0.1250000   0.1250000   0.1908639), wk =   0.0156250
        k(   29) = (   0.1250000   0.1250000   0.2862959), wk =   0.0156250
        k(   30) = (   0.1250000   0.1250000  -0.3817278), wk =   0.0078125
        k(   31) = (   0.1250000   0.2500000   0.0000000), wk =   0.0156250
        k(   32) = (   0.1250000   0.2500000   0.0954320), wk =   0.0312500
        k(   33) = (   0.1250000   0.2500000   0.1908639), wk =   0.0312500
        k(   34) = (   0.1250000   0.2500000   0.2862959), wk =   0.0312500
        k(   35) = (   0.1250000   0.2500000  -0.3817278), wk =   0.0156250
        k(   36) = (   0.1250000   0.3750000   0.0000000), wk =   0.0156250
        k(   37) = (   0.1250000   0.3750000   0.0954320), wk =   0.0312500
        k(   38) = (   0.1250000   0.3750000   0.1908639), wk =   0.0312500
        k(   39) = (   0.1250000   0.3750000   0.2862959), wk =   0.0312500
        k(   40) = (   0.1250000   0.3750000  -0.3817278), wk =   0.0156250
        k(   41) = (   0.1250000  -0.5000000   0.0000000), wk =   0.0078125
        k(   42) = (   0.1250000  -0.5000000   0.0954320), wk =   0.0156250
        k(   43) = (   0.1250000  -0.5000000   0.1908639), wk =   0.0156250
        k(   44) = (   0.1250000  -0.5000000   0.2862959), wk =   0.0156250
        k(   45) = (   0.1250000  -0.5000000  -0.3817278), wk =   0.0078125
        k(   46) = (   0.2500000   0.2500000   0.0000000), wk =   0.0078125
        k(   47) = (   0.2500000   0.2500000   0.0954320), wk =   0.0156250
        k(   48) = (   0.2500000   0.2500000   0.1908639), wk =   0.0156250
        k(   49) = (   0.2500000   0.2500000   0.2862959), wk =   0.0156250
        k(   50) = (   0.2500000   0.2500000  -0.3817278), wk =   0.0078125
        k(   51) = (   0.2500000   0.3750000   0.0000000), wk =   0.0156250
        k(   52) = (   0.2500000   0.3750000   0.0954320), wk =   0.0312500
        k(   53) = (   0.2500000   0.3750000   0.1908639), wk =   0.0312500
        k(   54) = (   0.2500000   0.3750000   0.2862959), wk =   0.0312500
        k(   55) = (   0.2500000   0.3750000  -0.3817278), wk =   0.0156250
        k(   56) = (   0.2500000  -0.5000000   0.0000000), wk =   0.0078125
        k(   57) = (   0.2500000  -0.5000000   0.0954320), wk =   0.0156250
        k(   58) = (   0.2500000  -0.5000000   0.1908639), wk =   0.0156250
        k(   59) = (   0.2500000  -0.5000000   0.2862959), wk =   0.0156250
        k(   60) = (   0.2500000  -0.5000000  -0.3817278), wk =   0.0078125
        k(   61) = (   0.3750000   0.3750000   0.0000000), wk =   0.0078125
        k(   62) = (   0.3750000   0.3750000   0.0954320), wk =   0.0156250
        k(   63) = (   0.3750000   0.3750000   0.1908639), wk =   0.0156250
        k(   64) = (   0.3750000   0.3750000   0.2862959), wk =   0.0156250
        k(   65) = (   0.3750000   0.3750000  -0.3817278), wk =   0.0078125
        k(   66) = (   0.3750000  -0.5000000   0.0000000), wk =   0.0078125
        k(   67) = (   0.3750000  -0.5000000   0.0954320), wk =   0.0156250
        k(   68) = (   0.3750000  -0.5000000   0.1908639), wk =   0.0156250
        k(   69) = (   0.3750000  -0.5000000   0.2862959), wk =   0.0156250
        k(   70) = (   0.3750000  -0.5000000  -0.3817278), wk =   0.0078125
        k(   71) = (  -0.5000000  -0.5000000   0.0000000), wk =   0.0019531
        k(   72) = (  -0.5000000  -0.5000000   0.0954320), wk =   0.0039062
        k(   73) = (  -0.5000000  -0.5000000   0.1908639), wk =   0.0039062
        k(   74) = (  -0.5000000  -0.5000000   0.2862959), wk =   0.0039062
        k(   75) = (  -0.5000000  -0.5000000  -0.3817278), wk =   0.0019531

     Dense  grid:    18111 G-vectors     FFT dimensions: (  30,  30,  40)

     Smooth grid:     6423 G-vectors     FFT dimensions: (  24,  24,  27)

     Estimated max dynamical RAM per process >      11.50 MB

     Estimated total dynamical RAM >      92.04 MB
     Generating pointlists ...
     new r_m :   0.3976 (alat units)  2.0781 (a.u.) for type    1
     new r_m :   0.3976 (alat units)  2.0781 (a.u.) for type    2

     Initial potential from superposition of free atoms

     starting charge      21.9996, renormalised to      22.0000
     Starting wfcs are   15 randomized atomic wfcs

     total cpu time spent up to now is        0.9 secs

     Self-consistent Calculation

     iteration #  1     ecut=    40.00 Ry     beta= 0.50
     Davidson diagonalization with overlap
     ethr =  1.00E-02,  avg # of iterations =  3.8

     total cpu time spent up to now is        2.4 secs

     total energy              =    -154.23416863 Ry
     estimated scf accuracy    <       0.72320787 Ry

     total magnetization       =     1.26 Bohr mag/cell
     absolute magnetization    =     1.49 Bohr mag/cell

     iteration #  2     ecut=    40.00 Ry     beta= 0.50
     Davidson diagonalization with overlap
     ethr =  3.29E-03,  avg # of iterations =  2.0

     total cpu time spent up to now is        3.6 secs

     total energy              =    -154.55636565 Ry
     estimated scf accuracy    <       0.35529268 Ry

     total magnetization       =     0.37 Bohr mag/cell
     absolute magnetization    =     0.53 Bohr mag/cell

     iteration #  3     ecut=    40.00 Ry     beta= 0.50
     Davidson diagonalization with overlap
     ethr =  1.61E-03,  avg # of iterations =  1.4

     total cpu time spent up to now is        4.6 secs

     total energy              =    -154.66896990 Ry
     estimated scf accuracy    <       0.08373443 Ry

     total magnetization       =     0.32 Bohr mag/cell
     absolute magnetization    =     0.49 Bohr mag/cell

     iteration #  4     ecut=    40.00 Ry     beta= 0.50
     Davidson diagonalization with overlap
     ethr =  3.81E-04,  avg # of iterations =  1.9

     total cpu time spent up to now is        5.7 secs

     total energy              =    -154.71647607 Ry
     estimated scf accuracy    <       0.03280628 Ry

     total magnetization       =     0.25 Bohr mag/cell
     absolute magnetization    =     0.32 Bohr mag/cell

     iteration #  5     ecut=    40.00 Ry     beta= 0.50
     Davidson diagonalization with overlap
     ethr =  1.49E-04,  avg # of iterations =  1.9

     total cpu time spent up to now is        6.8 secs

     total energy              =    -154.72635746 Ry
     estimated scf accuracy    <       0.00619907 Ry

     total magnetization       =    -0.00 Bohr mag/cell
     absolute magnetization    =     0.05 Bohr mag/cell

     iteration #  6     ecut=    40.00 Ry     beta= 0.50
     Davidson diagonalization with overlap
     ethr =  2.82E-05,  avg # of iterations =  2.8

     total cpu time spent up to now is        8.1 secs

     total energy              =    -154.72812834 Ry
     estimated scf accuracy    <       0.00048916 Ry

     total magnetization       =    -0.02 Bohr mag/cell
     absolute magnetization    =     0.02 Bohr mag/cell

     iteration #  7     ecut=    40.00 Ry     beta= 0.50
     Davidson diagonalization with overlap
     ethr =  2.22E-06,  avg # of iterations =  3.6

     total cpu time spent up to now is        9.3 secs

     total energy              =    -154.72810851 Ry
     estimated scf accuracy    <       0.00017189 Ry

     total magnetization       =    -0.00 Bohr mag/cell
     absolute magnetization    =     0.01 Bohr mag/cell

     iteration #  8     ecut=    40.00 Ry     beta= 0.50
     Davidson diagonalization with overlap
     ethr =  7.81E-07,  avg # of iterations =  1.6

     total cpu time spent up to now is       10.4 secs

     total energy              =    -154.72814019 Ry
     estimated scf accuracy    <       0.00000035 Ry

     total magnetization       =     0.00 Bohr mag/cell
     absolute magnetization    =     0.00 Bohr mag/cell

     iteration #  9     ecut=    40.00 Ry     beta= 0.50
     Davidson diagonalization with overlap
     ethr =  1.60E-09,  avg # of iterations =  2.8

     total cpu time spent up to now is       12.2 secs

     total energy              =    -154.72814048 Ry
     estimated scf accuracy    <       0.00000010 Ry

     total magnetization       =    -0.00 Bohr mag/cell
     absolute magnetization    =     0.00 Bohr mag/cell

     iteration # 10     ecut=    40.00 Ry     beta= 0.50
     Davidson diagonalization with overlap
     ethr =  4.77E-10,  avg # of iterations =  1.6

     Magnetic moment per site  (integrated on atomic sphere of radius R)
     atom   1 (R=0.398)  charge= 10.0449  magn= -0.0000
     atom   2 (R=0.398)  charge=  8.8267  magn=  0.0000

     total cpu time spent up to now is       13.3 secs

     End of self-consistent calculation

     Number of k-points >= 100: set verbosity='high' to print the bands.

     the Fermi energy is    15.8409 ev

!    total energy              =    -154.72814050 Ry
     estimated scf accuracy    <          2.7E-09 Ry
     smearing contrib. (-TS)   =      -0.00040698 Ry
     internal energy E=F+TS    =    -154.72773352 Ry

     The total energy is F=E-TS. E is the sum of the following terms:
     one-electron contribution =      -3.77573524 Ry
     hartree contribution      =      27.58297873 Ry
     xc contribution           =     -24.55925313 Ry
     ewald contribution        =    -153.97572388 Ry

     total magnetization       =    -0.00 Bohr mag/cell
     absolute magnetization    =     0.00 Bohr mag/cell

     convergence has been achieved in  10 iterations

     Forces acting on atoms (cartesian axes, Ry/au):

     atom    1 type  2   force =     0.00000000    0.00000000    0.00000000
     atom    2 type  1   force =     0.00000000    0.00000000    0.00000000
     The non-local contrib.  to forces
     atom    1 type  2   force =     0.00000000    0.00000000    0.00000000
     atom    2 type  1   force =     0.00000000    0.00000000    0.00000000
     The ionic contribution  to forces
     atom    1 type  2   force =    -0.00000000   -0.00000000   -0.00000000
     atom    2 type  1   force =     0.00000000    0.00000000    0.00000000
     The local contribution  to forces
     atom    1 type  2   force =     0.00000000    0.00000000    0.00000000
     atom    2 type  1   force =    -0.00000000   -0.00000000   -0.00000000
     The core correction contribution to forces
     atom    1 type  2   force =     0.00000000    0.00000000    0.00000000
     atom    2 type  1   force =     0.00000000    0.00000000    0.00000000
     The Hubbard contrib.    to forces
     atom    1 type  2   force =     0.00000000    0.00000000    0.00000000
     atom    2 type  1   force =     0.00000000    0.00000000    0.00000000
     The SCF correction term to forces
     atom    1 type  2   force =    -0.00000000   -0.00000000   -0.00000000
     atom    2 type  1   force =    -0.00000000   -0.00000000    0.00000000

     Total force =     0.000000     Total SCF correction =     0.000000


     Computing stress (Cartesian axis) and pressure

          total   stress  (Ry/bohr**3)                   (kbar)     P=       13.68
   0.00013159   0.00000000   0.00000000           19.36        0.00        0.00
   0.00000000   0.00013159   0.00000000            0.00       19.36        0.00
   0.00000000   0.00000000   0.00001588            0.00        0.00        2.34


     BFGS Geometry Optimization
     Energy error            =      0.0E+00 Ry
     Gradient error          =      0.0E+00 Ry/Bohr
     Cell gradient error     =      1.9E+01 kbar

     number of scf cycles    =   1
     number of bfgs steps    =   0

     enthalpy           new  =    -154.7281405011 Ry

     new trust radius        =       0.0089985866 bohr
     new conv_thr            =       0.0000001000 Ry

     new unit-cell volume =    188.36246 a.u.^3 (    27.91244 Ang^3 )
     density =     15.49816 g/cm^3

CELL_PARAMETERS (angstrom)
   2.775099381   0.000000000   0.000000000
   0.000000000   2.775099381   0.000000000
   0.000000000   0.000000000   3.624437998

ATOMIC_POSITIONS (angstrom)
Cu            0.0000000000        0.0000000000        0.0000000000
Au            1.3875496904        1.3875496904        1.8122189991



     Writing config-only to output data dir /home/gridsan/epan1/labutil/lab3_samples/problem3/Lab3/CuAu_a_2.766_c_3.623_ecut_40_nk_8/pwscf.save/
     NEW-OLD atomic charge density approx. for the potential
     extrapolated charge   22.15271, renormalised to   22.00000
     Generating pointlists ...

     total cpu time spent up to now is       14.4 secs

     Self-consistent Calculation

     iteration #  1     ecut=    40.00 Ry     beta= 0.50
     Davidson diagonalization with overlap
     ethr =  1.00E-06,  avg # of iterations =  3.3

     total cpu time spent up to now is       16.1 secs

     total energy              =    -154.71914214 Ry
     estimated scf accuracy    <       0.00933698 Ry

     total magnetization       =     0.00 Bohr mag/cell
     absolute magnetization    =     0.00 Bohr mag/cell

     iteration #  2     ecut=    40.00 Ry     beta= 0.50
     Davidson diagonalization with overlap
     ethr =  4.24E-05,  avg # of iterations =  2.1

     total cpu time spent up to now is       17.4 secs

     total energy              =    -154.72667652 Ry
     estimated scf accuracy    <       0.03109432 Ry

     total magnetization       =     0.00 Bohr mag/cell
     absolute magnetization    =     0.00 Bohr mag/cell

     iteration #  3     ecut=    40.00 Ry     beta= 0.50
     Davidson diagonalization with overlap
     ethr =  4.24E-05,  avg # of iterations =  2.0

     total cpu time spent up to now is       18.6 secs

     total energy              =    -154.72860317 Ry
     estimated scf accuracy    <       0.00355551 Ry

     total magnetization       =     0.00 Bohr mag/cell
     absolute magnetization    =     0.00 Bohr mag/cell

     iteration #  4     ecut=    40.00 Ry     beta= 0.50
     Davidson diagonalization with overlap
     ethr =  1.62E-05,  avg # of iterations =  1.0

     total cpu time spent up to now is       19.6 secs

     total energy              =    -154.72818404 Ry
     estimated scf accuracy    <       0.00177143 Ry

     total magnetization       =     0.00 Bohr mag/cell
     absolute magnetization    =     0.00 Bohr mag/cell

     iteration #  5     ecut=    40.00 Ry     beta= 0.50
     Davidson diagonalization with overlap
     ethr =  8.05E-06,  avg # of iterations =  1.0

     total cpu time spent up to now is       20.6 secs

     total energy              =    -154.72819518 Ry
     estimated scf accuracy    <       0.00024012 Ry

     total magnetization       =     0.00 Bohr mag/cell
     absolute magnetization    =     0.00 Bohr mag/cell

     iteration #  6     ecut=    40.00 Ry     beta= 0.50
     Davidson diagonalization with overlap
     ethr =  1.09E-06,  avg # of iterations =  2.0

     total cpu time spent up to now is       21.7 secs

     total energy              =    -154.72825134 Ry
     estimated scf accuracy    <       0.00000643 Ry

     total magnetization       =     0.00 Bohr mag/cell
     absolute magnetization    =     0.00 Bohr mag/cell

     iteration #  7     ecut=    40.00 Ry     beta= 0.50
     Davidson diagonalization with overlap
     ethr =  2.92E-08,  avg # of iterations =  1.3

     total cpu time spent up to now is       22.7 secs

     total energy              =    -154.72825066 Ry
     estimated scf accuracy    <       0.00000306 Ry

     total magnetization       =     0.00 Bohr mag/cell
     absolute magnetization    =     0.00 Bohr mag/cell

     iteration #  8     ecut=    40.00 Ry     beta= 0.50
     Davidson diagonalization with overlap
     ethr =  1.39E-08,  avg # of iterations =  1.1

     total cpu time spent up to now is       23.7 secs

     total energy              =    -154.72825090 Ry
     estimated scf accuracy    <       0.00000019 Ry

     total magnetization       =     0.00 Bohr mag/cell
     absolute magnetization    =     0.00 Bohr mag/cell

     iteration #  9     ecut=    40.00 Ry     beta= 0.50
     Davidson diagonalization with overlap
     ethr =  8.65E-10,  avg # of iterations =  1.9

     Magnetic moment per site  (integrated on atomic sphere of radius R)
     atom   1 (R=0.398)  charge= 10.0353  magn=  0.0000
     atom   2 (R=0.398)  charge=  8.8206  magn=  0.0000

     total cpu time spent up to now is       25.1 secs

     End of self-consistent calculation

     Number of k-points >= 100: set verbosity='high' to print the bands.

     the Fermi energy is    15.6822 ev

!    total energy              =    -154.72825091 Ry
     estimated scf accuracy    <       0.00000002 Ry
     smearing contrib. (-TS)   =      -0.00038243 Ry
     internal energy E=F+TS    =    -154.72786848 Ry

     The total energy is F=E-TS. E is the sum of the following terms:
     one-electron contribution =      -4.29545549 Ry
     hartree contribution      =      27.73481543 Ry
     xc contribution           =     -24.54901374 Ry
     ewald contribution        =    -153.61821468 Ry

     total magnetization       =     0.00 Bohr mag/cell
     absolute magnetization    =     0.00 Bohr mag/cell

     convergence has been achieved in   9 iterations

     Forces acting on atoms (cartesian axes, Ry/au):

     atom    1 type  2   force =     0.00000000    0.00000000    0.00000000
     atom    2 type  1   force =     0.00000000    0.00000000    0.00000000
     The non-local contrib.  to forces
     atom    1 type  2   force =     0.00000000    0.00000000    0.00000000
     atom    2 type  1   force =     0.00000000    0.00000000    0.00000000
     The ionic contribution  to forces
     atom    1 type  2   force =    -0.00000000   -0.00000000   -0.00000000
     atom    2 type  1   force =     0.00000000    0.00000000   -0.00000000
     The local contribution  to forces
     atom    1 type  2   force =     0.00000000   -0.00000000    0.00000000
     atom    2 type  1   force =     0.00000000    0.00000000   -0.00000000
     The core correction contribution to forces
     atom    1 type  2   force =     0.00000000    0.00000000    0.00000000
     atom    2 type  1   force =     0.00000000    0.00000000    0.00000000
     The Hubbard contrib.    to forces
     atom    1 type  2   force =     0.00000000    0.00000000    0.00000000
     atom    2 type  1   force =     0.00000000    0.00000000    0.00000000
     The SCF correction term to forces
     atom    1 type  2   force =     0.00000000   -0.00000000    0.00000000
     atom    2 type  1   force =     0.00000000   -0.00000000    0.00000000

     Total force =     0.000000     Total SCF correction =     0.000000


     Computing stress (Cartesian axis) and pressure

          total   stress  (Ry/bohr**3)                   (kbar)     P=       -0.64
   0.00003652   0.00000000   0.00000000            5.37        0.00        0.00
   0.00000000   0.00003652   0.00000000            0.00        5.37        0.00
   0.00000000   0.00000000  -0.00008600            0.00        0.00      -12.65

     Energy error            =      1.1E-04 Ry
     Gradient error          =      0.0E+00 Ry/Bohr
     Cell gradient error     =      1.3E+01 kbar

     number of scf cycles    =   2
     number of bfgs steps    =   1

     enthalpy           old  =    -154.7281405011 Ry
     enthalpy           new  =    -154.7282509053 Ry

     CASE: enthalpy          _new < enthalpy          _old

     new trust radius        =       0.0073431819 bohr
     new conv_thr            =       0.0000000010 Ry

     new unit-cell volume =    188.80836 a.u.^3 (    27.97851 Ang^3 )
     density =     15.46155 g/cm^3

CELL_PARAMETERS (angstrom)
   2.782105976   0.000000000   0.000000000
   0.000000000   2.782105976   0.000000000
   0.000000000   0.000000000   3.614741883

ATOMIC_POSITIONS (angstrom)
Cu            0.0000000000        0.0000000000        0.0000000000
Au            1.3910529878        1.3910529878        1.8073709413



     Writing config-only to output data dir /home/gridsan/epan1/labutil/lab3_samples/problem3/Lab3/CuAu_a_2.766_c_3.623_ecut_40_nk_8/pwscf.save/
     NEW-OLD atomic charge density approx. for the potential
     extrapolated charge   22.05196, renormalised to   22.00000
     Generating pointlists ...

     total cpu time spent up to now is       26.2 secs

     Self-consistent Calculation

     iteration #  1     ecut=    40.00 Ry     beta= 0.50
     Davidson diagonalization with overlap
     ethr =  1.00E-06,  avg # of iterations =  3.1

     total cpu time spent up to now is       27.9 secs

     total energy              =    -154.72732527 Ry
     estimated scf accuracy    <       0.00103426 Ry

     total magnetization       =     0.00 Bohr mag/cell
     absolute magnetization    =     0.00 Bohr mag/cell

     iteration #  2     ecut=    40.00 Ry     beta= 0.50
     Davidson diagonalization with overlap
     ethr =  4.70E-06,  avg # of iterations =  2.1

     total cpu time spent up to now is       29.2 secs

     total energy              =    -154.72810705 Ry
     estimated scf accuracy    <       0.00376182 Ry

     total magnetization       =    -0.00 Bohr mag/cell
     absolute magnetization    =     0.00 Bohr mag/cell

     iteration #  3     ecut=    40.00 Ry     beta= 0.50
     Davidson diagonalization with overlap
     ethr =  4.70E-06,  avg # of iterations =  2.0

     total cpu time spent up to now is       30.4 secs

     total energy              =    -154.72837044 Ry
     estimated scf accuracy    <       0.00036417 Ry

     total magnetization       =     0.00 Bohr mag/cell
     absolute magnetization    =     0.00 Bohr mag/cell

     iteration #  4     ecut=    40.00 Ry     beta= 0.50
     Davidson diagonalization with overlap
     ethr =  1.66E-06,  avg # of iterations =  1.1

     total cpu time spent up to now is       31.4 secs

     total energy              =    -154.72828829 Ry
     estimated scf accuracy    <       0.00018974 Ry

     total magnetization       =    -0.00 Bohr mag/cell
     absolute magnetization    =     0.00 Bohr mag/cell

     iteration #  5     ecut=    40.00 Ry     beta= 0.50
     Davidson diagonalization with overlap
     ethr =  8.62E-07,  avg # of iterations =  2.0

     total cpu time spent up to now is       32.5 secs

     total energy              =    -154.72833076 Ry
     estimated scf accuracy    <       0.00000400 Ry

     total magnetization       =    -0.00 Bohr mag/cell
     absolute magnetization    =     0.00 Bohr mag/cell

     iteration #  6     ecut=    40.00 Ry     beta= 0.50
     Davidson diagonalization with overlap
     ethr =  1.82E-08,  avg # of iterations =  1.8

     total cpu time spent up to now is       33.6 secs

     total energy              =    -154.72833175 Ry
     estimated scf accuracy    <       0.00000179 Ry

     total magnetization       =     0.00 Bohr mag/cell
     absolute magnetization    =     0.00 Bohr mag/cell

     iteration #  7     ecut=    40.00 Ry     beta= 0.50
     Davidson diagonalization with overlap
     ethr =  8.15E-09,  avg # of iterations =  1.1

     total cpu time spent up to now is       34.6 secs

     total energy              =    -154.72833187 Ry
     estimated scf accuracy    <       0.00000013 Ry

     total magnetization       =     0.00 Bohr mag/cell
     absolute magnetization    =     0.00 Bohr mag/cell

     iteration #  8     ecut=    40.00 Ry     beta= 0.50
     Davidson diagonalization with overlap
     ethr =  5.71E-10,  avg # of iterations =  2.0

     Magnetic moment per site  (integrated on atomic sphere of radius R)
     atom   1 (R=0.398)  charge= 10.0328  magn= -0.0000
     atom   2 (R=0.398)  charge=  8.8188  magn=  0.0000

     total cpu time spent up to now is       35.8 secs

     End of self-consistent calculation

     Number of k-points >= 100: set verbosity='high' to print the bands.

     the Fermi energy is    15.6258 ev

!    total energy              =    -154.72833189 Ry
     estimated scf accuracy    <          5.2E-10 Ry
     smearing contrib. (-TS)   =      -0.00033851 Ry
     internal energy E=F+TS    =    -154.72799338 Ry

     The total energy is F=E-TS. E is the sum of the following terms:
     one-electron contribution =      -4.47393261 Ry
     hartree contribution      =      27.78819210 Ry
     xc contribution           =     -24.54580634 Ry
     ewald contribution        =    -153.49644653 Ry

     total magnetization       =     0.00 Bohr mag/cell
     absolute magnetization    =     0.00 Bohr mag/cell

     convergence has been achieved in   8 iterations

     Forces acting on atoms (cartesian axes, Ry/au):

     atom    1 type  2   force =     0.00000000    0.00000000    0.00000000
     atom    2 type  1   force =     0.00000000    0.00000000    0.00000000
     The non-local contrib.  to forces
     atom    1 type  2   force =     0.00000000    0.00000000    0.00000000
     atom    2 type  1   force =     0.00000000    0.00000000    0.00000000
     The ionic contribution  to forces
     atom    1 type  2   force =    -0.00000000   -0.00000000   -0.00000000
     atom    2 type  1   force =    -0.00000000   -0.00000000   -0.00000000
     The local contribution  to forces
     atom    1 type  2   force =     0.00000000    0.00000000    0.00000000
     atom    2 type  1   force =    -0.00000000   -0.00000000   -0.00000000
     The core correction contribution to forces
     atom    1 type  2   force =     0.00000000    0.00000000    0.00000000
     atom    2 type  1   force =     0.00000000    0.00000000    0.00000000
     The Hubbard contrib.    to forces
     atom    1 type  2   force =     0.00000000    0.00000000    0.00000000
     atom    2 type  1   force =     0.00000000    0.00000000    0.00000000
     The SCF correction term to forces
     atom    1 type  2   force =     0.00000000    0.00000000    0.00000000
     atom    2 type  1   force =     0.00000000    0.00000000   -0.00000000

     Total force =     0.000000     Total SCF correction =     0.000000


     Computing stress (Cartesian axis) and pressure

          total   stress  (Ry/bohr**3)                   (kbar)     P=       -3.69
   0.00002015   0.00000000   0.00000000            2.96        0.00        0.00
   0.00000000   0.00002015   0.00000000            0.00        2.96        0.00
   0.00000000   0.00000000  -0.00011561            0.00        0.00      -17.01

     Energy error            =      8.1E-05 Ry
     Gradient error          =      0.0E+00 Ry/Bohr
     Cell gradient error     =      1.7E+01 kbar

     number of scf cycles    =   3
     number of bfgs steps    =   2

     enthalpy           old  =    -154.7282509053 Ry
     enthalpy           new  =    -154.7283318921 Ry

     CASE: enthalpy          _new < enthalpy          _old


     WARNING: bfgs curvature condition failed, Theta= 0.804
     new trust radius        =       0.0081087478 bohr
     new conv_thr            =       0.0000000010 Ry

     new unit-cell volume =    189.28144 a.u.^3 (    28.04862 Ang^3 )
     density =     15.42291 g/cm^3

CELL_PARAMETERS (angstrom)
   2.789707928   0.000000000   0.000000000
   0.000000000   2.789707928   0.000000000
   0.000000000   0.000000000   3.604076155

ATOMIC_POSITIONS (angstrom)
Cu            0.0000000000        0.0000000000        0.0000000000
Au            1.3948539641        1.3948539641        1.8020380776



     Writing config-only to output data dir /home/gridsan/epan1/labutil/lab3_samples/problem3/Lab3/CuAu_a_2.766_c_3.623_ecut_40_nk_8/pwscf.save/
     NEW-OLD atomic charge density approx. for the potential
     extrapolated charge   22.05498, renormalised to   22.00000
     Generating pointlists ...

     total cpu time spent up to now is       36.8 secs

     Self-consistent Calculation

     iteration #  1     ecut=    40.00 Ry     beta= 0.50
     Davidson diagonalization with overlap
     ethr =  1.00E-06,  avg # of iterations =  3.1

     total cpu time spent up to now is       38.7 secs

     total energy              =    -154.72727290 Ry
     estimated scf accuracy    <       0.00117930 Ry

     total magnetization       =     0.00 Bohr mag/cell
     absolute magnetization    =     0.00 Bohr mag/cell

     iteration #  2     ecut=    40.00 Ry     beta= 0.50
     Davidson diagonalization with overlap
     ethr =  5.36E-06,  avg # of iterations =  2.1

     total cpu time spent up to now is       40.0 secs

     total energy              =    -154.72816250 Ry
     estimated scf accuracy    <       0.00421682 Ry

     total magnetization       =     0.00 Bohr mag/cell
     absolute magnetization    =     0.00 Bohr mag/cell

     iteration #  3     ecut=    40.00 Ry     beta= 0.50
     Davidson diagonalization with overlap
     ethr =  5.36E-06,  avg # of iterations =  2.0

     total cpu time spent up to now is       41.2 secs

     total energy              =    -154.72845750 Ry
     estimated scf accuracy    <       0.00041020 Ry

     total magnetization       =     0.00 Bohr mag/cell
     absolute magnetization    =     0.00 Bohr mag/cell

     iteration #  4     ecut=    40.00 Ry     beta= 0.50
     Davidson diagonalization with overlap
     ethr =  1.86E-06,  avg # of iterations =  1.0

     total cpu time spent up to now is       42.2 secs

     total energy              =    -154.72836647 Ry
     estimated scf accuracy    <       0.00021235 Ry

     total magnetization       =    -0.00 Bohr mag/cell
     absolute magnetization    =     0.00 Bohr mag/cell

     iteration #  5     ecut=    40.00 Ry     beta= 0.50
     Davidson diagonalization with overlap
     ethr =  9.65E-07,  avg # of iterations =  2.0

     total cpu time spent up to now is       43.3 secs

     total energy              =    -154.72841459 Ry
     estimated scf accuracy    <       0.00000502 Ry

     total magnetization       =     0.00 Bohr mag/cell
     absolute magnetization    =     0.00 Bohr mag/cell

     iteration #  6     ecut=    40.00 Ry     beta= 0.50
     Davidson diagonalization with overlap
     ethr =  2.28E-08,  avg # of iterations =  1.7

     total cpu time spent up to now is       44.4 secs

     total energy              =    -154.72841426 Ry
     estimated scf accuracy    <       0.00000194 Ry

     total magnetization       =     0.00 Bohr mag/cell
     absolute magnetization    =     0.00 Bohr mag/cell

     iteration #  7     ecut=    40.00 Ry     beta= 0.50
     Davidson diagonalization with overlap
     ethr =  8.83E-09,  avg # of iterations =  1.3

     total cpu time spent up to now is       45.4 secs

     total energy              =    -154.72841445 Ry
     estimated scf accuracy    <       0.00000008 Ry

     total magnetization       =     0.00 Bohr mag/cell
     absolute magnetization    =     0.00 Bohr mag/cell

     iteration #  8     ecut=    40.00 Ry     beta= 0.50
     Davidson diagonalization with overlap
     ethr =  3.61E-10,  avg # of iterations =  2.0

     Magnetic moment per site  (integrated on atomic sphere of radius R)
     atom   1 (R=0.398)  charge= 10.0301  magn=  0.0000
     atom   2 (R=0.398)  charge=  8.8168  magn=  0.0000

     total cpu time spent up to now is       46.6 secs

     End of self-consistent calculation

     Number of k-points >= 100: set verbosity='high' to print the bands.

     the Fermi energy is    15.5658 ev

!    total energy              =    -154.72841446 Ry
     estimated scf accuracy    <          4.1E-10 Ry
     smearing contrib. (-TS)   =      -0.00027433 Ry
     internal energy E=F+TS    =    -154.72814014 Ry

     The total energy is F=E-TS. E is the sum of the following terms:
     one-electron contribution =      -4.66218459 Ry
     hartree contribution      =      27.84400078 Ry
     xc contribution           =     -24.54227976 Ry
     ewald contribution        =    -153.36767657 Ry

     total magnetization       =     0.00 Bohr mag/cell
     absolute magnetization    =     0.00 Bohr mag/cell

     convergence has been achieved in   8 iterations

     Forces acting on atoms (cartesian axes, Ry/au):

     atom    1 type  2   force =     0.00000000    0.00000000    0.00000000
     atom    2 type  1   force =     0.00000000    0.00000000    0.00000000
     The non-local contrib.  to forces
     atom    1 type  2   force =     0.00000000    0.00000000    0.00000000
     atom    2 type  1   force =     0.00000000    0.00000000    0.00000000
     The ionic contribution  to forces
     atom    1 type  2   force =    -0.00000000   -0.00000000   -0.00000000
     atom    2 type  1   force =     0.00000000    0.00000000   -0.00000000
     The local contribution  to forces
     atom    1 type  2   force =     0.00000000    0.00000000    0.00000000
     atom    2 type  1   force =    -0.00000000   -0.00000000   -0.00000000
     The core correction contribution to forces
     atom    1 type  2   force =     0.00000000    0.00000000    0.00000000
     atom    2 type  1   force =     0.00000000    0.00000000    0.00000000
     The Hubbard contrib.    to forces
     atom    1 type  2   force =     0.00000000    0.00000000    0.00000000
     atom    2 type  1   force =     0.00000000    0.00000000    0.00000000
     The SCF correction term to forces
     atom    1 type  2   force =     0.00000000    0.00000000    0.00000000
     atom    2 type  1   force =     0.00000000    0.00000000    0.00000000

     Total force =     0.000000     Total SCF correction =     0.000000


     Computing stress (Cartesian axis) and pressure

          total   stress  (Ry/bohr**3)                   (kbar)     P=       -8.11
  -0.00000570   0.00000000   0.00000000           -0.84        0.00        0.00
   0.00000000  -0.00000570   0.00000000            0.00       -0.84        0.00
   0.00000000   0.00000000  -0.00015395            0.00        0.00      -22.65

     Energy error            =      8.3E-05 Ry
     Gradient error          =      0.0E+00 Ry/Bohr
     Cell gradient error     =      2.3E+01 kbar

     number of scf cycles    =   4
     number of bfgs steps    =   3

     enthalpy           old  =    -154.7283318921 Ry
     enthalpy           new  =    -154.7284144622 Ry

     CASE: enthalpy          _new < enthalpy          _old

     new trust radius        =       0.0122143901 bohr
     new conv_thr            =       0.0000000010 Ry

     new unit-cell volume =    189.82614 a.u.^3 (    28.12933 Ang^3 )
     density =     15.37866 g/cm^3

CELL_PARAMETERS (angstrom)
   2.799940449   0.000000000   0.000000000
   0.000000000   2.799940449   0.000000000
   0.000000000   0.000000000   3.588077564

ATOMIC_POSITIONS (angstrom)
Cu            0.0000000000        0.0000000000        0.0000000000
Au            1.3999702244        1.3999702244        1.7940387822



     Writing config-only to output data dir /home/gridsan/epan1/labutil/lab3_samples/problem3/Lab3/CuAu_a_2.766_c_3.623_ecut_40_nk_8/pwscf.save/
     NEW-OLD atomic charge density approx. for the potential
     extrapolated charge   22.06313, renormalised to   22.00000
     Generating pointlists ...

     total cpu time spent up to now is       47.9 secs

     Self-consistent Calculation

     iteration #  1     ecut=    40.00 Ry     beta= 0.50
     Davidson diagonalization with overlap
     ethr =  1.00E-06,  avg # of iterations =  3.5

     total cpu time spent up to now is       49.7 secs

     total energy              =    -154.72700233 Ry
     estimated scf accuracy    <       0.00158881 Ry

     total magnetization       =     0.00 Bohr mag/cell
     absolute magnetization    =     0.00 Bohr mag/cell

     iteration #  2     ecut=    40.00 Ry     beta= 0.50
     Davidson diagonalization with overlap
     ethr =  7.22E-06,  avg # of iterations =  2.1

     total cpu time spent up to now is       51.0 secs

     total energy              =    -154.72820640 Ry
     estimated scf accuracy    <       0.00556343 Ry

     total magnetization       =    -0.00 Bohr mag/cell
     absolute magnetization    =     0.00 Bohr mag/cell

     iteration #  3     ecut=    40.00 Ry     beta= 0.50
     Davidson diagonalization with overlap
     ethr =  7.22E-06,  avg # of iterations =  2.0

     total cpu time spent up to now is       52.1 secs

     total energy              =    -154.72859210 Ry
     estimated scf accuracy    <       0.00055170 Ry

     total magnetization       =    -0.00 Bohr mag/cell
     absolute magnetization    =     0.00 Bohr mag/cell

     iteration #  4     ecut=    40.00 Ry     beta= 0.50
     Davidson diagonalization with overlap
     ethr =  2.51E-06,  avg # of iterations =  1.0

     total cpu time spent up to now is       53.1 secs

     total energy              =    -154.72846622 Ry
     estimated scf accuracy    <       0.00028437 Ry

     total magnetization       =    -0.00 Bohr mag/cell
     absolute magnetization    =     0.00 Bohr mag/cell

     iteration #  5     ecut=    40.00 Ry     beta= 0.50
     Davidson diagonalization with overlap
     ethr =  1.29E-06,  avg # of iterations =  2.0

     total cpu time spent up to now is       54.3 secs

     total energy              =    -154.72853423 Ry
     estimated scf accuracy    <       0.00001086 Ry

     total magnetization       =     0.00 Bohr mag/cell
     absolute magnetization    =     0.00 Bohr mag/cell

     iteration #  6     ecut=    40.00 Ry     beta= 0.50
     Davidson diagonalization with overlap
     ethr =  4.94E-08,  avg # of iterations =  1.3

     total cpu time spent up to now is       55.3 secs

     total energy              =    -154.72853390 Ry
     estimated scf accuracy    <       0.00000270 Ry

     total magnetization       =     0.00 Bohr mag/cell
     absolute magnetization    =     0.00 Bohr mag/cell

     iteration #  7     ecut=    40.00 Ry     beta= 0.50
     Davidson diagonalization with overlap
     ethr =  1.23E-08,  avg # of iterations =  1.8

     total cpu time spent up to now is       56.4 secs

     total energy              =    -154.72853430 Ry
     estimated scf accuracy    <       0.00000002 Ry

     total magnetization       =     0.00 Bohr mag/cell
     absolute magnetization    =     0.00 Bohr mag/cell

     iteration #  8     ecut=    40.00 Ry     beta= 0.50
     Davidson diagonalization with overlap
     ethr =  7.54E-11,  avg # of iterations =  2.4

     total cpu time spent up to now is       57.8 secs

     total energy              =    -154.72853431 Ry
     estimated scf accuracy    <       0.00000001 Ry

     total magnetization       =     0.00 Bohr mag/cell
     absolute magnetization    =     0.00 Bohr mag/cell

     iteration #  9     ecut=    40.00 Ry     beta= 0.50
     Davidson diagonalization with overlap
     ethr =  4.95E-11,  avg # of iterations =  1.0

     total cpu time spent up to now is       59.0 secs

     total energy              =    -154.72853431 Ry
     estimated scf accuracy    <          1.7E-09 Ry

     total magnetization       =     0.00 Bohr mag/cell
     absolute magnetization    =     0.00 Bohr mag/cell

     iteration # 10     ecut=    40.00 Ry     beta= 0.50
     Davidson diagonalization with overlap
     ethr =  7.62E-12,  avg # of iterations =  2.0

     Magnetic moment per site  (integrated on atomic sphere of radius R)
     atom   1 (R=0.398)  charge= 10.0272  magn=  0.0000
     atom   2 (R=0.398)  charge=  8.8144  magn= -0.0000

     total cpu time spent up to now is       60.2 secs

     End of self-consistent calculation

     Number of k-points >= 100: set verbosity='high' to print the bands.

     the Fermi energy is    15.4938 ev

!    total energy              =    -154.72853431 Ry
     estimated scf accuracy    <          3.3E-10 Ry
     smearing contrib. (-TS)   =      -0.00017192 Ry
     internal energy E=F+TS    =    -154.72836240 Ry

     The total energy is F=E-TS. E is the sum of the following terms:
     one-electron contribution =      -4.87849282 Ry
     hartree contribution      =      27.90812040 Ry
     xc contribution           =     -24.53820484 Ry
     ewald contribution        =    -153.21978512 Ry

     total magnetization       =     0.00 Bohr mag/cell
     absolute magnetization    =     0.00 Bohr mag/cell

     convergence has been achieved in  10 iterations

     Forces acting on atoms (cartesian axes, Ry/au):

     atom    1 type  2   force =     0.00000000    0.00000000    0.00000000
     atom    2 type  1   force =     0.00000000    0.00000000    0.00000000
     The non-local contrib.  to forces
     atom    1 type  2   force =     0.00000000    0.00000000    0.00000000
     atom    2 type  1   force =     0.00000000    0.00000000    0.00000000
     The ionic contribution  to forces
     atom    1 type  2   force =    -0.00000000   -0.00000000   -0.00000000
     atom    2 type  1   force =    -0.00000000   -0.00000000   -0.00000000
     The local contribution  to forces
     atom    1 type  2   force =     0.00000000    0.00000000   -0.00000000
     atom    2 type  1   force =    -0.00000000   -0.00000000   -0.00000000
     The core correction contribution to forces
     atom    1 type  2   force =     0.00000000    0.00000000    0.00000000
     atom    2 type  1   force =     0.00000000    0.00000000    0.00000000
     The Hubbard contrib.    to forces
     atom    1 type  2   force =     0.00000000    0.00000000    0.00000000
     atom    2 type  1   force =     0.00000000    0.00000000    0.00000000
     The SCF correction term to forces
     atom    1 type  2   force =     0.00000000   -0.00000000   -0.00000000
     atom    2 type  1   force =     0.00000000   -0.00000000    0.00000000

     Total force =     0.000000     Total SCF correction =     0.000000


     Computing stress (Cartesian axis) and pressure

          total   stress  (Ry/bohr**3)                   (kbar)     P=      -13.28
  -0.00003749   0.00000000   0.00000000           -5.52        0.00        0.00
   0.00000000  -0.00003749   0.00000000            0.00       -5.52        0.00
   0.00000000   0.00000000  -0.00019593            0.00        0.00      -28.82

     Energy error            =      1.2E-04 Ry
     Gradient error          =      0.0E+00 Ry/Bohr
     Cell gradient error     =      2.9E+01 kbar

     number of scf cycles    =   5
     number of bfgs steps    =   4

     enthalpy           old  =    -154.7284144622 Ry
     enthalpy           new  =    -154.7285343113 Ry

     CASE: enthalpy          _new < enthalpy          _old

     new trust radius        =       0.0184297385 bohr
     new conv_thr            =       0.0000000010 Ry

     new unit-cell volume =    190.49743 a.u.^3 (    28.22881 Ang^3 )
     density =     15.32446 g/cm^3

CELL_PARAMETERS (angstrom)
   2.814314038   0.000000000   0.000000000
   0.000000000   2.814314038   0.000000000
   0.000000000   0.000000000   3.564079678

ATOMIC_POSITIONS (angstrom)
Cu            0.0000000000        0.0000000000        0.0000000000
Au            1.4071570189        1.4071570189        1.7820398390



     Writing config-only to output data dir /home/gridsan/epan1/labutil/lab3_samples/problem3/Lab3/CuAu_a_2.766_c_3.623_ecut_40_nk_8/pwscf.save/
     NEW-OLD atomic charge density approx. for the potential
     extrapolated charge   22.07752, renormalised to   22.00000
     Generating pointlists ...

     total cpu time spent up to now is       61.3 secs

     Self-consistent Calculation

     iteration #  1     ecut=    40.00 Ry     beta= 0.50
     Davidson diagonalization with overlap
     ethr =  1.00E-06,  avg # of iterations =  4.0

     total cpu time spent up to now is       63.2 secs

     total energy              =    -154.72633930 Ry
     estimated scf accuracy    <       0.00244860 Ry

     total magnetization       =     0.00 Bohr mag/cell
     absolute magnetization    =     0.00 Bohr mag/cell

     iteration #  2     ecut=    40.00 Ry     beta= 0.50
     Davidson diagonalization with overlap
     ethr =  1.11E-05,  avg # of iterations =  2.1

     total cpu time spent up to now is       64.5 secs

     total energy              =    -154.72821817 Ry
     estimated scf accuracy    <       0.00832003 Ry

     total magnetization       =    -0.00 Bohr mag/cell
     absolute magnetization    =     0.00 Bohr mag/cell

     iteration #  3     ecut=    40.00 Ry     beta= 0.50
     Davidson diagonalization with overlap
     ethr =  1.11E-05,  avg # of iterations =  2.0

     total cpu time spent up to now is       65.6 secs

     total energy              =    -154.72878291 Ry
     estimated scf accuracy    <       0.00085372 Ry

     total magnetization       =    -0.00 Bohr mag/cell
     absolute magnetization    =     0.00 Bohr mag/cell

     iteration #  4     ecut=    40.00 Ry     beta= 0.50
     Davidson diagonalization with overlap
     ethr =  3.88E-06,  avg # of iterations =  1.0

     total cpu time spent up to now is       66.6 secs

     total energy              =    -154.72858807 Ry
     estimated scf accuracy    <       0.00043422 Ry

     total magnetization       =    -0.00 Bohr mag/cell
     absolute magnetization    =     0.00 Bohr mag/cell

     iteration #  5     ecut=    40.00 Ry     beta= 0.50
     Davidson diagonalization with overlap
     ethr =  1.97E-06,  avg # of iterations =  2.0

     total cpu time spent up to now is       67.8 secs

     total energy              =    -154.72869495 Ry
     estimated scf accuracy    <       0.00002031 Ry

     total magnetization       =     0.00 Bohr mag/cell
     absolute magnetization    =     0.00 Bohr mag/cell

     iteration #  6     ecut=    40.00 Ry     beta= 0.50
     Davidson diagonalization with overlap
     ethr =  9.23E-08,  avg # of iterations =  1.1

     total cpu time spent up to now is       68.8 secs

     total energy              =    -154.72869425 Ry
     estimated scf accuracy    <       0.00000523 Ry

     total magnetization       =     0.00 Bohr mag/cell
     absolute magnetization    =     0.00 Bohr mag/cell

     iteration #  7     ecut=    40.00 Ry     beta= 0.50
     Davidson diagonalization with overlap
     ethr =  2.38E-08,  avg # of iterations =  1.6

     total cpu time spent up to now is       69.8 secs

     total energy              =    -154.72869487 Ry
     estimated scf accuracy    <       0.00000010 Ry

     total magnetization       =     0.00 Bohr mag/cell
     absolute magnetization    =     0.00 Bohr mag/cell

     iteration #  8     ecut=    40.00 Ry     beta= 0.50
     Davidson diagonalization with overlap
     ethr =  4.65E-10,  avg # of iterations =  2.0

     total cpu time spent up to now is       71.2 secs

     total energy              =    -154.72869491 Ry
     estimated scf accuracy    <       0.00000004 Ry

     total magnetization       =     0.00 Bohr mag/cell
     absolute magnetization    =     0.00 Bohr mag/cell

     iteration #  9     ecut=    40.00 Ry     beta= 0.50
     Davidson diagonalization with overlap
     ethr =  1.97E-10,  avg # of iterations =  1.0

     total cpu time spent up to now is       72.4 secs

     total energy              =    -154.72869492 Ry
     estimated scf accuracy    <          2.8E-09 Ry

     total magnetization       =     0.00 Bohr mag/cell
     absolute magnetization    =     0.00 Bohr mag/cell

     iteration # 10     ecut=    40.00 Ry     beta= 0.50
     Davidson diagonalization with overlap
     ethr =  1.28E-11,  avg # of iterations =  2.0

     Magnetic moment per site  (integrated on atomic sphere of radius R)
     atom   1 (R=0.398)  charge= 10.0240  magn=  0.0000
     atom   2 (R=0.398)  charge=  8.8114  magn=  0.0000

     total cpu time spent up to now is       73.5 secs

     End of self-consistent calculation

     Number of k-points >= 100: set verbosity='high' to print the bands.

     the Fermi energy is    15.3979 ev

!    total energy              =    -154.72869492 Ry
     estimated scf accuracy    <          2.3E-11 Ry
     smearing contrib. (-TS)   =      -0.00006044 Ry
     internal energy E=F+TS    =    -154.72863447 Ry

     The total energy is F=E-TS. E is the sum of the following terms:
     one-electron contribution =      -5.14379724 Ry
     hartree contribution      =      27.98642374 Ry
     xc contribution           =     -24.53303880 Ry
     ewald contribution        =    -153.03822218 Ry

     total magnetization       =     0.00 Bohr mag/cell
     absolute magnetization    =     0.00 Bohr mag/cell

     convergence has been achieved in  10 iterations

     Forces acting on atoms (cartesian axes, Ry/au):

     atom    1 type  2   force =     0.00000000    0.00000000    0.00000000
     atom    2 type  1   force =     0.00000000    0.00000000    0.00000000
     The non-local contrib.  to forces
     atom    1 type  2   force =     0.00000000    0.00000000    0.00000000
     atom    2 type  1   force =     0.00000000    0.00000000    0.00000000
     The ionic contribution  to forces
     atom    1 type  2   force =    -0.00000000   -0.00000000   -0.00000000
     atom    2 type  1   force =     0.00000000    0.00000000   -0.00000000
     The local contribution  to forces
     atom    1 type  2   force =    -0.00000000    0.00000000    0.00000000
     atom    2 type  1   force =    -0.00000000   -0.00000000   -0.00000000
     The core correction contribution to forces
     atom    1 type  2   force =     0.00000000    0.00000000    0.00000000
     atom    2 type  1   force =     0.00000000    0.00000000    0.00000000
     The Hubbard contrib.    to forces
     atom    1 type  2   force =     0.00000000    0.00000000    0.00000000
     atom    2 type  1   force =     0.00000000    0.00000000    0.00000000
     The SCF correction term to forces
     atom    1 type  2   force =    -0.00000000    0.00000000   -0.00000000
     atom    2 type  1   force =     0.00000000   -0.00000000   -0.00000000

     Total force =     0.000000     Total SCF correction =     0.000000


     Computing stress (Cartesian axis) and pressure

          total   stress  (Ry/bohr**3)                   (kbar)     P=      -19.50
  -0.00008254   0.00000000   0.00000000          -12.14        0.00        0.00
   0.00000000  -0.00008254   0.00000000            0.00      -12.14        0.00
   0.00000000   0.00000000  -0.00023252            0.00        0.00      -34.20

     Energy error            =      1.6E-04 Ry
     Gradient error          =      0.0E+00 Ry/Bohr
     Cell gradient error     =      3.4E+01 kbar

     number of scf cycles    =   6
     number of bfgs steps    =   5

     enthalpy           old  =    -154.7285343113 Ry
     enthalpy           new  =    -154.7286949161 Ry

     CASE: enthalpy          _new < enthalpy          _old

     new trust radius        =       0.0278799123 bohr
     new conv_thr            =       0.0000000010 Ry

     new unit-cell volume =    191.25306 a.u.^3 (    28.34078 Ang^3 )
     density =     15.26392 g/cm^3

CELL_PARAMETERS (angstrom)
   2.834239215   0.000000000   0.000000000
   0.000000000   2.834239215   0.000000000
   0.000000000   0.000000000   3.528082848

ATOMIC_POSITIONS (angstrom)
Cu            0.0000000000        0.0000000000        0.0000000000
Au            1.4171196077        1.4171196077        1.7640414242



     Writing config-only to output data dir /home/gridsan/epan1/labutil/lab3_samples/problem3/Lab3/CuAu_a_2.766_c_3.623_ecut_40_nk_8/pwscf.save/
     NEW-OLD atomic charge density approx. for the potential
     extrapolated charge   22.08692, renormalised to   22.00000
     Generating pointlists ...

     total cpu time spent up to now is       74.6 secs

     Self-consistent Calculation

     iteration #  1     ecut=    40.00 Ry     beta= 0.50
     Davidson diagonalization with overlap
     ethr =  1.00E-06,  avg # of iterations =  4.9

     total cpu time spent up to now is       76.6 secs

     total energy              =    -154.72579911 Ry
     estimated scf accuracy    <       0.00320451 Ry

     total magnetization       =     0.00 Bohr mag/cell
     absolute magnetization    =     0.00 Bohr mag/cell

     iteration #  2     ecut=    40.00 Ry     beta= 0.50
     Davidson diagonalization with overlap
     ethr =  1.46E-05,  avg # of iterations =  2.1

     total cpu time spent up to now is       77.9 secs

     total energy              =    -154.72825335 Ry
     estimated scf accuracy    <       0.01058496 Ry

     total magnetization       =    -0.00 Bohr mag/cell
     absolute magnetization    =     0.00 Bohr mag/cell

     iteration #  3     ecut=    40.00 Ry     beta= 0.50
     Davidson diagonalization with overlap
     ethr =  1.46E-05,  avg # of iterations =  2.0

     total cpu time spent up to now is       79.0 secs

     total energy              =    -154.72896546 Ry
     estimated scf accuracy    <       0.00109825 Ry

     total magnetization       =    -0.00 Bohr mag/cell
     absolute magnetization    =     0.00 Bohr mag/cell

     iteration #  4     ecut=    40.00 Ry     beta= 0.50
     Davidson diagonalization with overlap
     ethr =  4.99E-06,  avg # of iterations =  1.0

     total cpu time spent up to now is       80.0 secs

     total energy              =    -154.72871435 Ry
     estimated scf accuracy    <       0.00054967 Ry

     total magnetization       =    -0.00 Bohr mag/cell
     absolute magnetization    =     0.00 Bohr mag/cell

     iteration #  5     ecut=    40.00 Ry     beta= 0.50
     Davidson diagonalization with overlap
     ethr =  2.50E-06,  avg # of iterations =  2.0

     total cpu time spent up to now is       81.2 secs

     total energy              =    -154.72885552 Ry
     estimated scf accuracy    <       0.00003389 Ry

     total magnetization       =     0.00 Bohr mag/cell
     absolute magnetization    =     0.00 Bohr mag/cell

     iteration #  6     ecut=    40.00 Ry     beta= 0.50
     Davidson diagonalization with overlap
     ethr =  1.54E-07,  avg # of iterations =  1.1

     total cpu time spent up to now is       82.2 secs

     total energy              =    -154.72885430 Ry
     estimated scf accuracy    <       0.00000918 Ry

     total magnetization       =     0.00 Bohr mag/cell
     absolute magnetization    =     0.00 Bohr mag/cell

     iteration #  7     ecut=    40.00 Ry     beta= 0.50
     Davidson diagonalization with overlap
     ethr =  4.17E-08,  avg # of iterations =  1.2

     total cpu time spent up to now is       83.2 secs

     total energy              =    -154.72885492 Ry
     estimated scf accuracy    <       0.00000054 Ry

     total magnetization       =     0.00 Bohr mag/cell
     absolute magnetization    =     0.00 Bohr mag/cell

     iteration #  8     ecut=    40.00 Ry     beta= 0.50
     Davidson diagonalization with overlap
     ethr =  2.43E-09,  avg # of iterations =  2.0

     total cpu time spent up to now is       84.5 secs

     total energy              =    -154.72885510 Ry
     estimated scf accuracy    <       0.00000016 Ry

     total magnetization       =     0.00 Bohr mag/cell
     absolute magnetization    =     0.00 Bohr mag/cell

     iteration #  9     ecut=    40.00 Ry     beta= 0.50
     Davidson diagonalization with overlap
     ethr =  7.29E-10,  avg # of iterations =  1.0

     total cpu time spent up to now is       85.7 secs

     total energy              =    -154.72885512 Ry
     estimated scf accuracy    <          4.0E-09 Ry

     total magnetization       =     0.00 Bohr mag/cell
     absolute magnetization    =     0.00 Bohr mag/cell

     iteration # 10     ecut=    40.00 Ry     beta= 0.50
     Davidson diagonalization with overlap
     ethr =  1.80E-11,  avg # of iterations =  2.0

     total cpu time spent up to now is       86.8 secs

     total energy              =    -154.72885512 Ry
     estimated scf accuracy    <          1.3E-09 Ry

     total magnetization       =     0.00 Bohr mag/cell
     absolute magnetization    =     0.00 Bohr mag/cell

     iteration # 11     ecut=    40.00 Ry     beta= 0.50
     Davidson diagonalization with overlap
     ethr =  6.14E-12,  avg # of iterations =  2.0

     Magnetic moment per site  (integrated on atomic sphere of radius R)
     atom   1 (R=0.398)  charge= 10.0208  magn=  0.0000
     atom   2 (R=0.398)  charge=  8.8076  magn=  0.0000

     total cpu time spent up to now is       88.0 secs

     End of self-consistent calculation

     Number of k-points >= 100: set verbosity='high' to print the bands.

     the Fermi energy is    15.2762 ev

!    total energy              =    -154.72885512 Ry
     estimated scf accuracy    <          9.7E-11 Ry
     smearing contrib. (-TS)   =      -0.00007036 Ry
     internal energy E=F+TS    =    -154.72878476 Ry

     The total energy is F=E-TS. E is the sum of the following terms:
     one-electron contribution =      -5.43934193 Ry
     hartree contribution      =      28.07218089 Ry
     xc contribution           =     -24.52676222 Ry
     ewald contribution        =    -152.83486149 Ry

     total magnetization       =     0.00 Bohr mag/cell
     absolute magnetization    =     0.00 Bohr mag/cell

     convergence has been achieved in  11 iterations

     Forces acting on atoms (cartesian axes, Ry/au):

     atom    1 type  2   force =     0.00000000    0.00000000    0.00000000
     atom    2 type  1   force =     0.00000000    0.00000000    0.00000000
     The non-local contrib.  to forces
     atom    1 type  2   force =     0.00000000    0.00000000    0.00000000
     atom    2 type  1   force =     0.00000000    0.00000000    0.00000000
     The ionic contribution  to forces
     atom    1 type  2   force =    -0.00000000   -0.00000000   -0.00000000
     atom    2 type  1   force =     0.00000000    0.00000000   -0.00000000
     The local contribution  to forces
     atom    1 type  2   force =     0.00000000    0.00000000   -0.00000000
     atom    2 type  1   force =    -0.00000000   -0.00000000   -0.00000000
     The core correction contribution to forces
     atom    1 type  2   force =     0.00000000    0.00000000    0.00000000
     atom    2 type  1   force =     0.00000000    0.00000000    0.00000000
     The Hubbard contrib.    to forces
     atom    1 type  2   force =     0.00000000    0.00000000    0.00000000
     atom    2 type  1   force =     0.00000000    0.00000000    0.00000000
     The SCF correction term to forces
     atom    1 type  2   force =     0.00000000    0.00000000    0.00000000
     atom    2 type  1   force =     0.00000000    0.00000000    0.00000000

     Total force =     0.000000     Total SCF correction =     0.000000


     Computing stress (Cartesian axis) and pressure

          total   stress  (Ry/bohr**3)                   (kbar)     P=      -26.89
  -0.00014891   0.00000000   0.00000000          -21.91        0.00        0.00
   0.00000000  -0.00014891   0.00000000            0.00      -21.91        0.00
   0.00000000   0.00000000  -0.00025057            0.00        0.00      -36.86

     Energy error            =      1.6E-04 Ry
     Gradient error          =      0.0E+00 Ry/Bohr
     Cell gradient error     =      3.7E+01 kbar

     number of scf cycles    =   7
     number of bfgs steps    =   6

     enthalpy           old  =    -154.7286949161 Ry
     enthalpy           new  =    -154.7288551197 Ry

     CASE: enthalpy          _new < enthalpy          _old

     new trust radius        =       0.0245294862 bohr
     new conv_thr            =       0.0000000010 Ry

     new unit-cell volume =    191.43042 a.u.^3 (    28.36706 Ang^3 )
     density =     15.24977 g/cm^3

CELL_PARAMETERS (angstrom)
   2.848211084   0.000000000   0.000000000
   0.000000000   2.848211084   0.000000000
   0.000000000   0.000000000   3.496793751

ATOMIC_POSITIONS (angstrom)
Cu            0.0000000000        0.0000000000        0.0000000000
Au            1.4241055419        1.4241055419        1.7483968753



     Writing config-only to output data dir /home/gridsan/epan1/labutil/lab3_samples/problem3/Lab3/CuAu_a_2.766_c_3.623_ecut_40_nk_8/pwscf.save/
     NEW-OLD atomic charge density approx. for the potential
     extrapolated charge   22.02038, renormalised to   22.00000
     Generating pointlists ...

     total cpu time spent up to now is       89.0 secs

     Self-consistent Calculation

     iteration #  1     ecut=    40.00 Ry     beta= 0.50
     Davidson diagonalization with overlap
     c_bands:  1 eigenvalues not converged
     ethr =  1.00E-06,  avg # of iterations =  4.6

     total cpu time spent up to now is       91.0 secs

     total energy              =    -154.72878268 Ry
     estimated scf accuracy    <       0.00021651 Ry

     total magnetization       =     0.00 Bohr mag/cell
     absolute magnetization    =     0.00 Bohr mag/cell

     iteration #  2     ecut=    40.00 Ry     beta= 0.50
     Davidson diagonalization with overlap
     ethr =  9.84E-07,  avg # of iterations =  2.1

     total cpu time spent up to now is       92.3 secs

     total energy              =    -154.72892275 Ry
     estimated scf accuracy    <       0.00069283 Ry

     total magnetization       =    -0.00 Bohr mag/cell
     absolute magnetization    =     0.00 Bohr mag/cell

     iteration #  3     ecut=    40.00 Ry     beta= 0.50
     Davidson diagonalization with overlap
     ethr =  9.84E-07,  avg # of iterations =  2.0

     total cpu time spent up to now is       93.4 secs

     total energy              =    -154.72897688 Ry
     estimated scf accuracy    <       0.00005588 Ry

     total magnetization       =    -0.00 Bohr mag/cell
     absolute magnetization    =     0.00 Bohr mag/cell

     iteration #  4     ecut=    40.00 Ry     beta= 0.50
     Davidson diagonalization with overlap
     ethr =  2.54E-07,  avg # of iterations =  1.0

     total cpu time spent up to now is       94.4 secs

     total energy              =    -154.72896429 Ry
     estimated scf accuracy    <       0.00002639 Ry

     total magnetization       =    -0.00 Bohr mag/cell
     absolute magnetization    =     0.00 Bohr mag/cell

     iteration #  5     ecut=    40.00 Ry     beta= 0.50
     Davidson diagonalization with overlap
     ethr =  1.20E-07,  avg # of iterations =  2.1

     total cpu time spent up to now is       95.6 secs

     total energy              =    -154.72897150 Ry
     estimated scf accuracy    <       0.00000348 Ry

     total magnetization       =     0.00 Bohr mag/cell
     absolute magnetization    =     0.00 Bohr mag/cell

     iteration #  6     ecut=    40.00 Ry     beta= 0.50
     Davidson diagonalization with overlap
     ethr =  1.58E-08,  avg # of iterations =  1.1

     total cpu time spent up to now is       96.6 secs

     total energy              =    -154.72897189 Ry
     estimated scf accuracy    <       0.00000010 Ry

     total magnetization       =     0.00 Bohr mag/cell
     absolute magnetization    =     0.00 Bohr mag/cell

     iteration #  7     ecut=    40.00 Ry     beta= 0.50
     Davidson diagonalization with overlap
     ethr =  4.49E-10,  avg # of iterations =  2.0

     total cpu time spent up to now is       97.8 secs

     total energy              =    -154.72897192 Ry
     estimated scf accuracy    <       0.00000001 Ry

     total magnetization       =     0.00 Bohr mag/cell
     absolute magnetization    =     0.00 Bohr mag/cell

     iteration #  8     ecut=    40.00 Ry     beta= 0.50
     Davidson diagonalization with overlap
     ethr =  6.23E-11,  avg # of iterations =  1.0

     total cpu time spent up to now is       98.9 secs

     total energy              =    -154.72897192 Ry
     estimated scf accuracy    <          2.5E-09 Ry

     total magnetization       =     0.00 Bohr mag/cell
     absolute magnetization    =     0.00 Bohr mag/cell

     iteration #  9     ecut=    40.00 Ry     beta= 0.50
     Davidson diagonalization with overlap
     ethr =  1.13E-11,  avg # of iterations =  2.0

     Magnetic moment per site  (integrated on atomic sphere of radius R)
     atom   1 (R=0.398)  charge= 10.0211  magn= -0.0000
     atom   2 (R=0.398)  charge=  8.8062  magn=  0.0000

     total cpu time spent up to now is      100.3 secs

     End of self-consistent calculation

     Number of k-points >= 100: set verbosity='high' to print the bands.

     the Fermi energy is    15.2312 ev

!    total energy              =    -154.72897192 Ry
     estimated scf accuracy    <          6.2E-13 Ry
     smearing contrib. (-TS)   =      -0.00017390 Ry
     internal energy E=F+TS    =    -154.72879802 Ry

     The total energy is F=E-TS. E is the sum of the following terms:
     one-electron contribution =      -5.50782715 Ry
     hartree contribution      =      28.09073732 Ry
     xc contribution           =     -24.52484322 Ry
     ewald contribution        =    -152.78686497 Ry

     total magnetization       =     0.00 Bohr mag/cell
     absolute magnetization    =     0.00 Bohr mag/cell

     convergence has been achieved in   9 iterations

     Forces acting on atoms (cartesian axes, Ry/au):

     atom    1 type  2   force =     0.00000000    0.00000000    0.00000000
     atom    2 type  1   force =     0.00000000    0.00000000    0.00000000
     The non-local contrib.  to forces
     atom    1 type  2   force =     0.00000000    0.00000000    0.00000000
     atom    2 type  1   force =     0.00000000    0.00000000    0.00000000
     The ionic contribution  to forces
     atom    1 type  2   force =    -0.00000000   -0.00000000   -0.00000000
     atom    2 type  1   force =    -0.00000000   -0.00000000   -0.00000000
     The local contribution  to forces
     atom    1 type  2   force =     0.00000000    0.00000000    0.00000000
     atom    2 type  1   force =    -0.00000000   -0.00000000   -0.00000000
     The core correction contribution to forces
     atom    1 type  2   force =     0.00000000    0.00000000    0.00000000
     atom    2 type  1   force =     0.00000000    0.00000000    0.00000000
     The Hubbard contrib.    to forces
     atom    1 type  2   force =     0.00000000    0.00000000    0.00000000
     atom    2 type  1   force =     0.00000000    0.00000000    0.00000000
     The SCF correction term to forces
     atom    1 type  2   force =     0.00000000    0.00000000    0.00000000
     atom    2 type  1   force =    -0.00000000    0.00000000    0.00000000

     Total force =     0.000000     Total SCF correction =     0.000000


     Computing stress (Cartesian axis) and pressure

          total   stress  (Ry/bohr**3)                   (kbar)     P=      -28.78
  -0.00017217   0.00000000   0.00000000          -25.33        0.00        0.00
   0.00000000  -0.00017217   0.00000000            0.00      -25.33        0.00
   0.00000000   0.00000000  -0.00024250            0.00        0.00      -35.67

     Energy error            =      1.2E-04 Ry
     Gradient error          =      0.0E+00 Ry/Bohr
     Cell gradient error     =      3.6E+01 kbar

     number of scf cycles    =   8
     number of bfgs steps    =   7

     enthalpy           old  =    -154.7288551197 Ry
     enthalpy           new  =    -154.7289719196 Ry

     CASE: enthalpy          _new < enthalpy          _old

     new trust radius        =       0.0272364929 bohr
     new conv_thr            =       0.0000000010 Ry

     new unit-cell volume =    191.22928 a.u.^3 (    28.33726 Ang^3 )
     density =     15.26581 g/cm^3

CELL_PARAMETERS (angstrom)
   2.860828313   0.000000000   0.000000000
   0.000000000   2.860828313   0.000000000
   0.000000000   0.000000000   3.462375743

ATOMIC_POSITIONS (angstrom)
Cu            0.0000000000        0.0000000000        0.0000000000
Au            1.4304141567        1.4304141567        1.7311878715



     Writing config-only to output data dir /home/gridsan/epan1/labutil/lab3_samples/problem3/Lab3/CuAu_a_2.766_c_3.623_ecut_40_nk_8/pwscf.save/
     NEW-OLD atomic charge density approx. for the potential
     extrapolated charge   21.97686, renormalised to   22.00000
     Generating pointlists ...

     total cpu time spent up to now is      101.9 secs

     Self-consistent Calculation

     iteration #  1     ecut=    40.00 Ry     beta= 0.50
     Davidson diagonalization with overlap
     c_bands:  1 eigenvalues not converged
     ethr =  1.00E-06,  avg # of iterations =  4.8

     total cpu time spent up to now is      103.8 secs

     total energy              =    -154.72897453 Ry
     estimated scf accuracy    <       0.00015468 Ry

     total magnetization       =    -0.00 Bohr mag/cell
     absolute magnetization    =     0.00 Bohr mag/cell

     iteration #  2     ecut=    40.00 Ry     beta= 0.50
     Davidson diagonalization with overlap
     ethr =  7.03E-07,  avg # of iterations =  2.1

     total cpu time spent up to now is      105.2 secs

     total energy              =    -154.72910630 Ry
     estimated scf accuracy    <       0.00053420 Ry

     total magnetization       =     0.00 Bohr mag/cell
     absolute magnetization    =     0.00 Bohr mag/cell

     iteration #  3     ecut=    40.00 Ry     beta= 0.50
     Davidson diagonalization with overlap
     ethr =  7.03E-07,  avg # of iterations =  2.0

     total cpu time spent up to now is      106.3 secs

     total energy              =    -154.72913695 Ry
     estimated scf accuracy    <       0.00006189 Ry

     total magnetization       =     0.00 Bohr mag/cell
     absolute magnetization    =     0.00 Bohr mag/cell

     iteration #  4     ecut=    40.00 Ry     beta= 0.50
     Davidson diagonalization with overlap
     ethr =  2.81E-07,  avg # of iterations =  1.0

     total cpu time spent up to now is      107.3 secs

     total energy              =    -154.72912460 Ry
     estimated scf accuracy    <       0.00002705 Ry

     total magnetization       =     0.00 Bohr mag/cell
     absolute magnetization    =     0.00 Bohr mag/cell

     iteration #  5     ecut=    40.00 Ry     beta= 0.50
     Davidson diagonalization with overlap
     ethr =  1.23E-07,  avg # of iterations =  2.0

     total cpu time spent up to now is      108.5 secs

     total energy              =    -154.72913178 Ry
     estimated scf accuracy    <       0.00000416 Ry

     total magnetization       =     0.00 Bohr mag/cell
     absolute magnetization    =     0.00 Bohr mag/cell

     iteration #  6     ecut=    40.00 Ry     beta= 0.50
     Davidson diagonalization with overlap
     ethr =  1.89E-08,  avg # of iterations =  1.6

     total cpu time spent up to now is      109.5 secs

     total energy              =    -154.72913255 Ry
     estimated scf accuracy    <          5.9E-09 Ry

     total magnetization       =     0.00 Bohr mag/cell
     absolute magnetization    =     0.00 Bohr mag/cell

     iteration #  7     ecut=    40.00 Ry     beta= 0.50
     Davidson diagonalization with overlap
     ethr =  2.68E-11,  avg # of iterations =  2.9

     total cpu time spent up to now is      111.0 secs

     total energy              =    -154.72913255 Ry
     estimated scf accuracy    <       0.00000003 Ry

     total magnetization       =     0.00 Bohr mag/cell
     absolute magnetization    =     0.00 Bohr mag/cell

     iteration #  8     ecut=    40.00 Ry     beta= 0.50
     Davidson diagonalization with overlap
     ethr =  2.68E-11,  avg # of iterations =  2.0

     Magnetic moment per site  (integrated on atomic sphere of radius R)
     atom   1 (R=0.398)  charge= 10.0243  magn=  0.0000
     atom   2 (R=0.398)  charge=  8.8068  magn= -0.0000

     total cpu time spent up to now is      112.4 secs

     End of self-consistent calculation

     Number of k-points >= 100: set verbosity='high' to print the bands.

     the Fermi energy is    15.2381 ev

!    total energy              =    -154.72913255 Ry
     estimated scf accuracy    <          3.3E-11 Ry
     smearing contrib. (-TS)   =      -0.00027826 Ry
     internal energy E=F+TS    =    -154.72885430 Ry

     The total energy is F=E-TS. E is the sum of the following terms:
     one-electron contribution =      -5.42887309 Ry
     hartree contribution      =      28.06599130 Ry
     xc contribution           =     -24.52587299 Ry
     ewald contribution        =    -152.84009952 Ry

     total magnetization       =     0.00 Bohr mag/cell
     absolute magnetization    =     0.00 Bohr mag/cell

     convergence has been achieved in   8 iterations

     Forces acting on atoms (cartesian axes, Ry/au):

     atom    1 type  2   force =     0.00000000    0.00000000    0.00000000
     atom    2 type  1   force =     0.00000000    0.00000000    0.00000000
     The non-local contrib.  to forces
     atom    1 type  2   force =     0.00000000    0.00000000    0.00000000
     atom    2 type  1   force =     0.00000000    0.00000000    0.00000000
     The ionic contribution  to forces
     atom    1 type  2   force =    -0.00000000   -0.00000000   -0.00000000
     atom    2 type  1   force =     0.00000000    0.00000000   -0.00000000
     The local contribution  to forces
     atom    1 type  2   force =     0.00000000    0.00000000    0.00000000
     atom    2 type  1   force =    -0.00000000   -0.00000000   -0.00000000
     The core correction contribution to forces
     atom    1 type  2   force =     0.00000000    0.00000000    0.00000000
     atom    2 type  1   force =     0.00000000    0.00000000    0.00000000
     The Hubbard contrib.    to forces
[...]

ATOMIC_POSITIONS (angstrom)
Cu            0.0000000000        0.0000000000        0.0000000000
Au            1.4596590895        1.4596590895        1.6322478777
End final coordinates



     Writing config-only to output data dir /home/gridsan/epan1/labutil/lab3_samples/problem3/Lab3/CuAu_a_2.766_c_3.623_ecut_40_nk_8/pwscf.save/

     Final scf calculation at the relaxed structure.
     The G-vectors are recalculated for the final unit cell
     Results may differ from those at the preceding step.

     Parallelization info
     --------------------
     sticks:   dense  smooth     PW     G-vecs:    dense   smooth      PW
     Min          97      48     16                 2273      800     152
     Max          98      49     17                 2276      803     155
     Sum         777     385    129                18195     6409    1231

     Using Slab Decomposition



     bravais-lattice index     =            0
     lattice parameter (alat)  =       5.2270  a.u.
     unit-cell volume          =     187.7481 (a.u.)^3
     number of atoms/cell      =            2
     number of atomic types    =            2
     number of electrons       =        22.00
     number of Kohn-Sham states=           15
     kinetic-energy cutoff     =      40.0000  Ry
     charge density cutoff     =     320.0000  Ry
     scf convergence threshold =      1.0E-09
     mixing beta               =       0.5000
     number of iterations used =            8  plain     mixing
     press convergence thresh. =      5.0E-01
     Exchange-correlation=  SLA  PZ   NOGX NOGC
                           (   1   1   0   0   0   0   0)

     celldm(1)=   5.226982  celldm(2)=   0.000000  celldm(3)=   0.000000
     celldm(4)=   0.000000  celldm(5)=   0.000000  celldm(6)=   0.000000

     crystal axes: (cart. coord. in units of alat)
               a(1) = (   1.055430   0.000000   0.000000 )  
               a(2) = (   0.000000   1.055430   0.000000 )  
               a(3) = (   0.000000   0.000000   1.180223 )  

     reciprocal axes: (cart. coord. in units 2 pi/alat)
               b(1) = (  0.947482  0.000000  0.000000 )  
               b(2) = (  0.000000  0.947482  0.000000 )  
               b(3) = (  0.000000  0.000000  0.847298 )  


     PseudoPot. # 1 for Au read from file:
     /home/gridsan/epan1/labutil/lab3_samples/pseudopotentials/Au.pz-d-rrkjus.UPF
     MD5 check sum: 424ffd4ac9c90487cbadcd287136c95b
     Pseudo is Ultrasoft, Zval = 11.0
     Generated by new atomic code, or converted to UPF format
     Using radial grid of 1279 points,  3 beta functions with: 
                l(1) =   2
                l(2) =   2
                l(3) =   1
     Q(r) pseudized with 0 coefficients 


     PseudoPot. # 2 for Cu read from file:
     /home/gridsan/epan1/labutil/lab3_samples/pseudopotentials/Cu.pz-d-rrkjus.UPF
     MD5 check sum: fd38ae683e239c95a66f426e1f8e5fc7
     Pseudo is Ultrasoft, Zval = 11.0
     Generated by new atomic code, or converted to UPF format
     Using radial grid of  899 points,  3 beta functions with: 
                l(1) =   2
                l(2) =   2
                l(3) =   1
     Q(r) pseudized with 0 coefficients 


     atomic species   valence    mass     pseudopotential
        Au            11.00   196.96657     Au( 1.00)
        Cu            11.00    63.54600     Cu( 1.00)

     Starting magnetic structure 
     atomic species   magnetization
        Au           0.000
        Cu           0.000

     16 Sym. Ops., with inversion, found



   Cartesian axes

     site n.     atom                  positions (alat units)
         1           Cu  tau(   1) = (   0.0000000   0.0000000   0.0000000  )
         2           Au  tau(   2) = (   0.5277148   0.5277148   0.5901113  )

     number of k points=    75  Methfessel-Paxton smearing, width (Ry)=  0.0200
                       cart. coord. in units 2pi/alat
        k(    1) = (   0.0000000   0.0000000   0.0000000), wk =   0.0019531
        k(    2) = (   0.0000000   0.0000000   0.1059122), wk =   0.0039062
        k(    3) = (   0.0000000   0.0000000   0.2118244), wk =   0.0039062
        k(    4) = (   0.0000000   0.0000000   0.3177367), wk =   0.0039062
        k(    5) = (   0.0000000   0.0000000  -0.4236489), wk =   0.0019531
        k(    6) = (   0.0000000   0.1184352   0.0000000), wk =   0.0078125
        k(    7) = (   0.0000000   0.1184352   0.1059122), wk =   0.0156250
        k(    8) = (   0.0000000   0.1184352   0.2118244), wk =   0.0156250
        k(    9) = (   0.0000000   0.1184352   0.3177367), wk =   0.0156250
        k(   10) = (   0.0000000   0.1184352  -0.4236489), wk =   0.0078125
        k(   11) = (   0.0000000   0.2368704   0.0000000), wk =   0.0078125
        k(   12) = (   0.0000000   0.2368704   0.1059122), wk =   0.0156250
        k(   13) = (   0.0000000   0.2368704   0.2118244), wk =   0.0156250
        k(   14) = (   0.0000000   0.2368704   0.3177367), wk =   0.0156250
        k(   15) = (   0.0000000   0.2368704  -0.4236489), wk =   0.0078125
        k(   16) = (   0.0000000   0.3553056   0.0000000), wk =   0.0078125
        k(   17) = (   0.0000000   0.3553056   0.1059122), wk =   0.0156250
        k(   18) = (   0.0000000   0.3553056   0.2118244), wk =   0.0156250
        k(   19) = (   0.0000000   0.3553056   0.3177367), wk =   0.0156250
        k(   20) = (   0.0000000   0.3553056  -0.4236489), wk =   0.0078125
        k(   21) = (   0.0000000  -0.4737408   0.0000000), wk =   0.0039062
        k(   22) = (   0.0000000  -0.4737408   0.1059122), wk =   0.0078125
        k(   23) = (   0.0000000  -0.4737408   0.2118244), wk =   0.0078125
        k(   24) = (   0.0000000  -0.4737408   0.3177367), wk =   0.0078125
        k(   25) = (   0.0000000  -0.4737408  -0.4236489), wk =   0.0039062
        k(   26) = (   0.1184352   0.1184352   0.0000000), wk =   0.0078125
        k(   27) = (   0.1184352   0.1184352   0.1059122), wk =   0.0156250
        k(   28) = (   0.1184352   0.1184352   0.2118244), wk =   0.0156250
        k(   29) = (   0.1184352   0.1184352   0.3177367), wk =   0.0156250
        k(   30) = (   0.1184352   0.1184352  -0.4236489), wk =   0.0078125
        k(   31) = (   0.1184352   0.2368704   0.0000000), wk =   0.0156250
        k(   32) = (   0.1184352   0.2368704   0.1059122), wk =   0.0312500
        k(   33) = (   0.1184352   0.2368704   0.2118244), wk =   0.0312500
        k(   34) = (   0.1184352   0.2368704   0.3177367), wk =   0.0312500
        k(   35) = (   0.1184352   0.2368704  -0.4236489), wk =   0.0156250
        k(   36) = (   0.1184352   0.3553056   0.0000000), wk =   0.0156250
        k(   37) = (   0.1184352   0.3553056   0.1059122), wk =   0.0312500
        k(   38) = (   0.1184352   0.3553056   0.2118244), wk =   0.0312500
        k(   39) = (   0.1184352   0.3553056   0.3177367), wk =   0.0312500
        k(   40) = (   0.1184352   0.3553056  -0.4236489), wk =   0.0156250
        k(   41) = (   0.1184352  -0.4737408   0.0000000), wk =   0.0078125
        k(   42) = (   0.1184352  -0.4737408   0.1059122), wk =   0.0156250
        k(   43) = (   0.1184352  -0.4737408   0.2118244), wk =   0.0156250
        k(   44) = (   0.1184352  -0.4737408   0.3177367), wk =   0.0156250
        k(   45) = (   0.1184352  -0.4737408  -0.4236489), wk =   0.0078125
        k(   46) = (   0.2368704   0.2368704   0.0000000), wk =   0.0078125
        k(   47) = (   0.2368704   0.2368704   0.1059122), wk =   0.0156250
        k(   48) = (   0.2368704   0.2368704   0.2118244), wk =   0.0156250
        k(   49) = (   0.2368704   0.2368704   0.3177367), wk =   0.0156250
        k(   50) = (   0.2368704   0.2368704  -0.4236489), wk =   0.0078125
        k(   51) = (   0.2368704   0.3553056   0.0000000), wk =   0.0156250
        k(   52) = (   0.2368704   0.3553056   0.1059122), wk =   0.0312500
        k(   53) = (   0.2368704   0.3553056   0.2118244), wk =   0.0312500
        k(   54) = (   0.2368704   0.3553056   0.3177367), wk =   0.0312500
        k(   55) = (   0.2368704   0.3553056  -0.4236489), wk =   0.0156250
        k(   56) = (   0.2368704  -0.4737408   0.0000000), wk =   0.0078125
        k(   57) = (   0.2368704  -0.4737408   0.1059122), wk =   0.0156250
        k(   58) = (   0.2368704  -0.4737408   0.2118244), wk =   0.0156250
        k(   59) = (   0.2368704  -0.4737408   0.3177367), wk =   0.0156250
        k(   60) = (   0.2368704  -0.4737408  -0.4236489), wk =   0.0078125
        k(   61) = (   0.3553056   0.3553056   0.0000000), wk =   0.0078125
        k(   62) = (   0.3553056   0.3553056   0.1059122), wk =   0.0156250
        k(   63) = (   0.3553056   0.3553056   0.2118244), wk =   0.0156250
        k(   64) = (   0.3553056   0.3553056   0.3177367), wk =   0.0156250
        k(   65) = (   0.3553056   0.3553056  -0.4236489), wk =   0.0078125
        k(   66) = (   0.3553056  -0.4737408   0.0000000), wk =   0.0078125
        k(   67) = (   0.3553056  -0.4737408   0.1059122), wk =   0.0156250
        k(   68) = (   0.3553056  -0.4737408   0.2118244), wk =   0.0156250
        k(   69) = (   0.3553056  -0.4737408   0.3177367), wk =   0.0156250
        k(   70) = (   0.3553056  -0.4737408  -0.4236489), wk =   0.0078125
        k(   71) = (  -0.4737408  -0.4737408   0.0000000), wk =   0.0019531
        k(   72) = (  -0.4737408  -0.4737408   0.1059122), wk =   0.0039062
        k(   73) = (  -0.4737408  -0.4737408   0.2118244), wk =   0.0039062
        k(   74) = (  -0.4737408  -0.4737408   0.3177367), wk =   0.0039062
        k(   75) = (  -0.4737408  -0.4737408  -0.4236489), wk =   0.0019531

     Dense  grid:    18195 G-vectors     FFT dimensions: (  32,  32,  36)

     Smooth grid:     6409 G-vectors     FFT dimensions: (  24,  24,  25)

     Estimated max dynamical RAM per process >      11.67 MB

     Estimated total dynamical RAM >      93.35 MB
     Generating pointlists ...

     Initial potential from superposition of free atoms

     starting charge      21.9996, renormalised to      22.0000
     Starting wfcs are   15 randomized atomic wfcs

     total cpu time spent up to now is      208.6 secs

     Self-consistent Calculation

     iteration #  1     ecut=    40.00 Ry     beta= 0.50
     Davidson diagonalization with overlap
     c_bands:  1 eigenvalues not converged
     c_bands:  1 eigenvalues not converged
     c_bands:  1 eigenvalues not converged
     c_bands:  1 eigenvalues not converged
     c_bands:  1 eigenvalues not converged
     c_bands:  1 eigenvalues not converged
     c_bands:  1 eigenvalues not converged
     c_bands:  1 eigenvalues not converged
     c_bands:  1 eigenvalues not converged
     c_bands:  1 eigenvalues not converged
     c_bands:  1 eigenvalues not converged
     c_bands:  1 eigenvalues not converged
     c_bands:  1 eigenvalues not converged
     c_bands:  1 eigenvalues not converged
     c_bands:  1 eigenvalues not converged
     c_bands:  1 eigenvalues not converged
     c_bands:  1 eigenvalues not converged
     c_bands:  1 eigenvalues not converged
     c_bands:  1 eigenvalues not converged
     c_bands:  1 eigenvalues not converged
     c_bands:  1 eigenvalues not converged
     c_bands:  1 eigenvalues not converged
     c_bands:  1 eigenvalues not converged
     ethr =  1.00E-06,  avg # of iterations = 14.1

     total cpu time spent up to now is      212.3 secs

     total energy              =    -154.64461842 Ry
     estimated scf accuracy    <       0.28063250 Ry

     total magnetization       =     0.00 Bohr mag/cell
     absolute magnetization    =     0.00 Bohr mag/cell

     iteration #  2     ecut=    40.00 Ry     beta= 0.50
     Davidson diagonalization with overlap
     ethr =  1.28E-03,  avg # of iterations =  2.0

     total cpu time spent up to now is      213.6 secs

     total energy              =    -154.71465254 Ry
     estimated scf accuracy    <       0.06204409 Ry

     total magnetization       =     0.00 Bohr mag/cell
     absolute magnetization    =     0.00 Bohr mag/cell

     iteration #  3     ecut=    40.00 Ry     beta= 0.50
     Davidson diagonalization with overlap
     ethr =  2.82E-04,  avg # of iterations =  2.0

     total cpu time spent up to now is      214.7 secs

     total energy              =    -154.72834475 Ry
     estimated scf accuracy    <       0.00862214 Ry

     total magnetization       =     0.00 Bohr mag/cell
     absolute magnetization    =     0.00 Bohr mag/cell

     iteration #  4     ecut=    40.00 Ry     beta= 0.50
     Davidson diagonalization with overlap
     ethr =  3.92E-05,  avg # of iterations =  1.3

     total cpu time spent up to now is      215.7 secs

     total energy              =    -154.72998535 Ry
     estimated scf accuracy    <       0.00021773 Ry

     total magnetization       =     0.00 Bohr mag/cell
     absolute magnetization    =     0.00 Bohr mag/cell

     iteration #  5     ecut=    40.00 Ry     beta= 0.50
     Davidson diagonalization with overlap
     ethr =  9.90E-07,  avg # of iterations =  2.3

     total cpu time spent up to now is      217.0 secs

     total energy              =    -154.73003350 Ry
     estimated scf accuracy    <       0.00007182 Ry

     total magnetization       =     0.00 Bohr mag/cell
     absolute magnetization    =     0.00 Bohr mag/cell

     iteration #  6     ecut=    40.00 Ry     beta= 0.50
     Davidson diagonalization with overlap
     ethr =  3.26E-07,  avg # of iterations =  1.5

     total cpu time spent up to now is      218.0 secs

     total energy              =    -154.73004348 Ry
     estimated scf accuracy    <       0.00000058 Ry

     total magnetization       =    -0.00 Bohr mag/cell
     absolute magnetization    =     0.00 Bohr mag/cell

     iteration #  7     ecut=    40.00 Ry     beta= 0.50
     Davidson diagonalization with overlap
     ethr =  2.62E-09,  avg # of iterations =  2.2

     total cpu time spent up to now is      219.8 secs

     total energy              =    -154.73004377 Ry
     estimated scf accuracy    <       0.00000006 Ry

     total magnetization       =    -0.00 Bohr mag/cell
     absolute magnetization    =     0.00 Bohr mag/cell

     iteration #  8     ecut=    40.00 Ry     beta= 0.50
     Davidson diagonalization with overlap
     ethr =  2.80E-10,  avg # of iterations =  1.4

     total cpu time spent up to now is      220.9 secs

     total energy              =    -154.73004377 Ry
     estimated scf accuracy    <       0.00000001 Ry

     total magnetization       =    -0.00 Bohr mag/cell
     absolute magnetization    =     0.00 Bohr mag/cell

     iteration #  9     ecut=    40.00 Ry     beta= 0.50
     Davidson diagonalization with overlap
     ethr =  4.83E-11,  avg # of iterations =  2.0

     Magnetic moment per site  (integrated on atomic sphere of radius R)
     atom   1 (R=0.393)  charge=  9.9872  magn= -0.0000
     atom   2 (R=0.393)  charge=  8.7094  magn= -0.0000

     total cpu time spent up to now is      222.0 secs

     End of self-consistent calculation

     Number of k-points >= 100: set verbosity='high' to print the bands.

     the Fermi energy is    15.6304 ev

!    total energy              =    -154.73004378 Ry
     estimated scf accuracy    <          6.3E-11 Ry
     smearing contrib. (-TS)   =      -0.00007562 Ry
     internal energy E=F+TS    =    -154.72996816 Ry

     The total energy is F=E-TS. E is the sum of the following terms:
     one-electron contribution =      -4.03846008 Ry
     hartree contribution      =      27.64379077 Ry
     xc contribution           =     -24.54886893 Ry
     ewald contribution        =    -153.78642993 Ry

     total magnetization       =    -0.00 Bohr mag/cell
     absolute magnetization    =     0.00 Bohr mag/cell

     convergence has been achieved in   9 iterations

     Forces acting on atoms (cartesian axes, Ry/au):

     atom    1 type  2   force =     0.00000000    0.00000000    0.00000000
     atom    2 type  1   force =     0.00000000    0.00000000    0.00000000
     The non-local contrib.  to forces
     atom    1 type  2   force =     0.00000000    0.00000000    0.00000000
     atom    2 type  1   force =     0.00000000    0.00000000    0.00000000
     The ionic contribution  to forces
     atom    1 type  2   force =    -0.00000000   -0.00000000    0.00000000
     atom    2 type  1   force =     0.00000000    0.00000000   -0.00000000
     The local contribution  to forces
     atom    1 type  2   force =     0.00000000    0.00000000    0.00000000
     atom    2 type  1   force =    -0.00000000   -0.00000000    0.00000000
     The core correction contribution to forces
     atom    1 type  2   force =     0.00000000    0.00000000    0.00000000
     atom    2 type  1   force =     0.00000000    0.00000000    0.00000000
     The Hubbard contrib.    to forces
     atom    1 type  2   force =     0.00000000    0.00000000    0.00000000
     atom    2 type  1   force =     0.00000000    0.00000000    0.00000000
     The SCF correction term to forces
     atom    1 type  2   force =     0.00000000   -0.00000000    0.00000000
     atom    2 type  1   force =     0.00000000    0.00000000    0.00000000

     Total force =     0.000000     Total SCF correction =     0.000000


     Computing stress (Cartesian axis) and pressure

          total   stress  (Ry/bohr**3)                   (kbar)     P=       -0.35
  -0.00000110   0.00000000   0.00000000           -0.16        0.00        0.00
   0.00000000  -0.00000110   0.00000000            0.00       -0.16        0.00
   0.00000000   0.00000000  -0.00000488            0.00        0.00       -0.72


     init_run     :      1.66s CPU      1.51s WALL (       2 calls)
     electrons    :    222.06s CPU    202.07s WALL (      17 calls)
     update_pot   :      2.28s CPU      2.54s WALL (      14 calls)
     forces       :      3.71s CPU      3.27s WALL (      17 calls)
     stress       :     12.79s CPU     11.31s WALL (      17 calls)

     Called by init_run:
     wfcinit      :      0.88s CPU      0.70s WALL (       2 calls)
     potinit      :      0.27s CPU      0.28s WALL (       3 calls)
     hinit0       :      0.54s CPU      0.54s WALL (       2 calls)

     Called by electrons:
     c_bands      :    186.26s CPU    170.74s WALL (     161 calls)
     sum_band     :     32.81s CPU     28.38s WALL (     161 calls)
     v_of_rho     :      0.50s CPU      0.50s WALL (     178 calls)
     newd         :      1.82s CPU      1.61s WALL (     178 calls)
     mix_rho      :      0.34s CPU      0.34s WALL (     161 calls)

     Called by c_bands:
     init_us_2    :      3.52s CPU      3.02s WALL (   53700 calls)
     init_us_2:cp :      3.43s CPU      2.94s WALL (   53700 calls)
     cegterg      :    168.17s CPU    148.06s WALL (   24150 calls)

     Called by *egterg:
     cdiaghg      :     31.65s CPU     27.88s WALL (   72182 calls)
     h_psi        :    114.41s CPU    100.73s WALL (   74732 calls)
     s_psi        :      1.83s CPU      1.60s WALL (   74732 calls)
     g_psi        :      0.50s CPU      0.44s WALL (   50282 calls)

     Called by h_psi:
     h_psi:calbec :      7.11s CPU      6.29s WALL (   74732 calls)
     vloc_psi     :    104.54s CPU     91.95s WALL (   74732 calls)
     add_vuspsi   :      1.95s CPU      1.75s WALL (   74732 calls)

     General routines
     calbec       :     10.99s CPU      9.50s WALL (  111632 calls)
     fft          :      0.73s CPU      0.67s WALL (    1988 calls)
     ffts         :      0.21s CPU      0.20s WALL (     678 calls)
     fftw         :    114.54s CPU    100.08s WALL ( 2146650 calls)
     interpolate  :      0.27s CPU      0.24s WALL (     356 calls)

     Parallel routines

     PWSCF        :   4m 3.43s CPU   3m42.89s WALL


   This run was terminated on:  14:14: 8   3Nov2023            

=------------------------------------------------------------------------------=
   JOB DONE.
=------------------------------------------------------------------------------=
