
     Program PWSCF v.7.2 starts on  3Nov2023 at 14: 2:21 

     This program is part of the open-source Quantum ESPRESSO suite
     for quantum simulation of materials; please cite
         "P. Giannozzi et al., J. Phys.:Condens. Matter 21 395502 (2009);
         "P. Giannozzi et al., J. Phys.:Condens. Matter 29 465901 (2017);
         "P. Giannozzi et al., J. Chem. Phys. 152 154105 (2020);
          URL http://www.quantum-espresso.org", 
     in publications or presentations arising from this work. More details at
     http://www.quantum-espresso.org/quote

     Parallel version (MPI), running on     8 processors

     MPI processes distributed on     8 nodes
     186968 MiB available memory on the printing compute node when the environment starts

     Waiting for input...
     Reading input from standard input

     Current dimensions of program PWSCF are:
     Max number of different atomic species (ntypx) = 10
     Max number of k-points (npk) =  40000
     Max angular momentum in pseudopotentials (lmaxx) =  4
     file Cu.pz-d-rrkjus.UPF: wavefunction(s)  3D renormalized
     Message from routine setup:
     using ibrav=0 with symmetry is DISCOURAGED, use correct ibrav instead

     R & G space division:  proc/nbgrp/npool/nimage =       8
     Subspace diagonalization in iterative solution of the eigenvalue problem:
     a serial algorithm will be used


     Parallelization info
     --------------------
     sticks:   dense  smooth     PW     G-vecs:    dense   smooth      PW
     Min          86      43     14                 2263      801     150
     Max          89      44     15                 2264      804     153
     Sum         697     349    113                18111     6423    1207

     Using Slab Decomposition



     bravais-lattice index     =            0
     lattice parameter (alat)  =       5.2270  a.u.
     unit-cell volume          =     187.0550 (a.u.)^3
     number of atoms/cell      =            2
     number of atomic types    =            2
     number of electrons       =        22.00
     number of Kohn-Sham states=           15
     kinetic-energy cutoff     =      40.0000  Ry
     charge density cutoff     =     320.0000  Ry
     scf convergence threshold =      1.0E-07
     mixing beta               =       0.5000
     number of iterations used =            8  plain     mixing
     energy convergence thresh.=      1.0E-04
     force convergence thresh. =      1.0E-03
     press convergence thresh. =      5.0E-01
     Exchange-correlation=  SLA  PZ   NOGX NOGC
                           (   1   1   0   0   0   0   0)
     nstep                     =           50


     celldm(1)=   5.226982  celldm(2)=   0.000000  celldm(3)=   0.000000
     celldm(4)=   0.000000  celldm(5)=   0.000000  celldm(6)=   0.000000

     crystal axes: (cart. coord. in units of alat)
               a(1) = (   1.000000   0.000000   0.000000 )  
               a(2) = (   0.000000   1.000000   0.000000 )  
               a(3) = (   0.000000   0.000000   1.309834 )  

     reciprocal axes: (cart. coord. in units 2 pi/alat)
               b(1) = (  1.000000  0.000000  0.000000 )  
               b(2) = (  0.000000  1.000000  0.000000 )  
               b(3) = (  0.000000  0.000000  0.763456 )  


     PseudoPot. # 1 for Au read from file:
     /home/gridsan/epan1/labutil/lab3_samples/pseudopotentials/Au.pz-d-rrkjus.UPF
     MD5 check sum: 424ffd4ac9c90487cbadcd287136c95b
     Pseudo is Ultrasoft, Zval = 11.0
     Generated by new atomic code, or converted to UPF format
     Using radial grid of 1279 points,  3 beta functions with: 
                l(1) =   2
                l(2) =   2
                l(3) =   1
     Q(r) pseudized with 0 coefficients 


     PseudoPot. # 2 for Cu read from file:
     /home/gridsan/epan1/labutil/lab3_samples/pseudopotentials/Cu.pz-d-rrkjus.UPF
     MD5 check sum: fd38ae683e239c95a66f426e1f8e5fc7
     Pseudo is Ultrasoft, Zval = 11.0
     Generated by new atomic code, or converted to UPF format
     Using radial grid of  899 points,  3 beta functions with: 
                l(1) =   2
                l(2) =   2
                l(3) =   1
     Q(r) pseudized with 0 coefficients 


     atomic species   valence    mass     pseudopotential
        Au            11.00   196.96657     Au( 1.00)
        Cu            11.00    63.54600     Cu( 1.00)

     Starting magnetic structure 
     atomic species   magnetization
        Au           0.700
        Cu           0.000

     16 Sym. Ops., with inversion, found



   Cartesian axes

     site n.     atom                  positions (alat units)
         1           Cu  tau(   1) = (   0.0000000   0.0000000   0.0000000  )
         2           Au  tau(   2) = (   0.5000000   0.5000000   0.6549168  )

     number of k points=    18  Methfessel-Paxton smearing, width (Ry)=  0.0200
                       cart. coord. in units 2pi/alat
        k(    1) = (   0.0000000   0.0000000   0.0000000), wk =   0.0156250
        k(    2) = (   0.0000000   0.0000000   0.1908639), wk =   0.0312500
        k(    3) = (   0.0000000   0.0000000  -0.3817278), wk =   0.0156250
        k(    4) = (   0.0000000   0.2500000   0.0000000), wk =   0.0625000
        k(    5) = (   0.0000000   0.2500000   0.1908639), wk =   0.1250000
        k(    6) = (   0.0000000   0.2500000  -0.3817278), wk =   0.0625000
        k(    7) = (   0.0000000  -0.5000000   0.0000000), wk =   0.0312500
        k(    8) = (   0.0000000  -0.5000000   0.1908639), wk =   0.0625000
        k(    9) = (   0.0000000  -0.5000000  -0.3817278), wk =   0.0312500
        k(   10) = (   0.2500000   0.2500000   0.0000000), wk =   0.0625000
        k(   11) = (   0.2500000   0.2500000   0.1908639), wk =   0.1250000
        k(   12) = (   0.2500000   0.2500000  -0.3817278), wk =   0.0625000
        k(   13) = (   0.2500000  -0.5000000   0.0000000), wk =   0.0625000
        k(   14) = (   0.2500000  -0.5000000   0.1908639), wk =   0.1250000
        k(   15) = (   0.2500000  -0.5000000  -0.3817278), wk =   0.0625000
        k(   16) = (  -0.5000000  -0.5000000   0.0000000), wk =   0.0156250
        k(   17) = (  -0.5000000  -0.5000000   0.1908639), wk =   0.0312500
        k(   18) = (  -0.5000000  -0.5000000  -0.3817278), wk =   0.0156250

     Dense  grid:    18111 G-vectors     FFT dimensions: (  30,  30,  40)

     Smooth grid:     6423 G-vectors     FFT dimensions: (  24,  24,  27)

     Estimated max dynamical RAM per process >       8.92 MB

     Estimated total dynamical RAM >      71.37 MB
     Generating pointlists ...
     new r_m :   0.3976 (alat units)  2.0781 (a.u.) for type    1
     new r_m :   0.3976 (alat units)  2.0781 (a.u.) for type    2

     Initial potential from superposition of free atoms

     starting charge      21.9996, renormalised to      22.0000
     Starting wfcs are   15 randomized atomic wfcs

     total cpu time spent up to now is        0.7 secs

     Self-consistent Calculation

     iteration #  1     ecut=    40.00 Ry     beta= 0.50
     Davidson diagonalization with overlap
     ethr =  1.00E-02,  avg # of iterations =  3.3

     total cpu time spent up to now is        1.1 secs

     total energy              =    -154.24161214 Ry
     estimated scf accuracy    <       0.72502019 Ry

     total magnetization       =     1.23 Bohr mag/cell
     absolute magnetization    =     1.51 Bohr mag/cell

     iteration #  2     ecut=    40.00 Ry     beta= 0.50
     Davidson diagonalization with overlap
     ethr =  3.30E-03,  avg # of iterations =  2.1

     total cpu time spent up to now is        1.4 secs

     total energy              =    -154.55124486 Ry
     estimated scf accuracy    <       0.34065143 Ry

     total magnetization       =     0.42 Bohr mag/cell
     absolute magnetization    =     0.59 Bohr mag/cell

     iteration #  3     ecut=    40.00 Ry     beta= 0.50
     Davidson diagonalization with overlap
     ethr =  1.55E-03,  avg # of iterations =  1.5

     total cpu time spent up to now is        1.6 secs

     total energy              =    -154.66280709 Ry
     estimated scf accuracy    <       0.08495457 Ry

     total magnetization       =     0.25 Bohr mag/cell
     absolute magnetization    =     0.58 Bohr mag/cell

     iteration #  4     ecut=    40.00 Ry     beta= 0.50
     Davidson diagonalization with overlap
     ethr =  3.86E-04,  avg # of iterations =  1.8

     total cpu time spent up to now is        1.9 secs

     total energy              =    -154.71043992 Ry
     estimated scf accuracy    <       0.03090425 Ry

     total magnetization       =     0.20 Bohr mag/cell
     absolute magnetization    =     0.40 Bohr mag/cell

     iteration #  5     ecut=    40.00 Ry     beta= 0.50
     Davidson diagonalization with overlap
     ethr =  1.40E-04,  avg # of iterations =  1.9

     total cpu time spent up to now is        2.2 secs

     total energy              =    -154.72074572 Ry
     estimated scf accuracy    <       0.00284570 Ry

     total magnetization       =     0.01 Bohr mag/cell
     absolute magnetization    =     0.06 Bohr mag/cell

     iteration #  6     ecut=    40.00 Ry     beta= 0.50
     Davidson diagonalization with overlap
     c_bands:  1 eigenvalues not converged
     ethr =  1.29E-05,  avg # of iterations =  3.7

     total cpu time spent up to now is        2.5 secs

     total energy              =    -154.72127542 Ry
     estimated scf accuracy    <       0.00035203 Ry

     total magnetization       =     0.01 Bohr mag/cell
     absolute magnetization    =     0.03 Bohr mag/cell

     iteration #  7     ecut=    40.00 Ry     beta= 0.50
     Davidson diagonalization with overlap
     c_bands:  1 eigenvalues not converged
     ethr =  1.60E-06,  avg # of iterations =  4.4

     total cpu time spent up to now is        2.9 secs

     total energy              =    -154.72138203 Ry
     estimated scf accuracy    <       0.00004959 Ry

     total magnetization       =     0.00 Bohr mag/cell
     absolute magnetization    =     0.01 Bohr mag/cell

     iteration #  8     ecut=    40.00 Ry     beta= 0.50
     Davidson diagonalization with overlap
     ethr =  2.25E-07,  avg # of iterations =  1.9

     total cpu time spent up to now is        3.2 secs

     total energy              =    -154.72138646 Ry
     estimated scf accuracy    <       0.00000222 Ry

     total magnetization       =     0.00 Bohr mag/cell
     absolute magnetization    =     0.00 Bohr mag/cell

     iteration #  9     ecut=    40.00 Ry     beta= 0.50
     Davidson diagonalization with overlap
     ethr =  1.01E-08,  avg # of iterations =  1.8

     total cpu time spent up to now is        3.5 secs

     total energy              =    -154.72138680 Ry
     estimated scf accuracy    <       0.00000045 Ry

     total magnetization       =     0.00 Bohr mag/cell
     absolute magnetization    =     0.00 Bohr mag/cell

     iteration # 10     ecut=    40.00 Ry     beta= 0.50
     Davidson diagonalization with overlap
     ethr =  2.04E-09,  avg # of iterations =  2.4

     Magnetic moment per site  (integrated on atomic sphere of radius R)
     atom   1 (R=0.398)  charge= 10.0458  magn=  0.0000
     atom   2 (R=0.398)  charge=  8.8210  magn=  0.0001

     total cpu time spent up to now is        3.8 secs

     End of self-consistent calculation

 ------ SPIN UP ------------


          k = 0.0000 0.0000 0.0000 (   821 PWs)   bands (ev):

     5.5539   8.7454   8.9330  11.4747  11.4747  12.6187  12.6924  13.4408
    13.9402  14.1904  14.1904  17.9540  24.2714  26.3405  26.3405

          k = 0.0000 0.0000 0.1909 (   798 PWs)   bands (ev):

     6.2922   8.8814   9.2207  11.6481  11.6481  12.4964  12.7513  13.2105
    13.7315  13.7315  13.7943  14.8312  27.7898  27.7898  28.5930

          k = 0.0000 0.0000-0.3817 (   814 PWs)   bands (ev):

     7.3717   9.0330   9.7274  11.9137  11.9137  11.9311  12.2850  12.9383
    13.2060  13.2060  13.2084  13.5939  31.1519  31.1520  31.2712

          k = 0.0000 0.2500 0.0000 (   801 PWs)   bands (ev):

     6.9410   9.2871   9.9225  10.7051  11.8309  12.0595  12.7798  12.9698
    13.4574  13.5366  13.8742  20.4332  21.0949  24.7775  28.6515

          k = 0.0000 0.2500 0.1909 (   802 PWs)   bands (ev):

     7.5199   9.3188  10.2245  10.7380  11.5915  12.1071  12.6916  12.8048
    13.3795  13.4108  14.0789  17.2820  21.5935  27.8415  29.6190

          k = 0.0000 0.2500-0.3817 (   796 PWs)   bands (ev):

     8.3199   9.1421  10.3240  11.6352  11.6616  11.7162  12.1792  12.7541
    13.8384  13.8754  13.8894  14.0909  24.0976  24.4975  32.2326

          k = 0.0000-0.5000 0.0000 (   806 PWs)   bands (ev):

     8.6785   9.9433  10.1466  11.0611  11.4759  12.3917  12.4535  12.5272
    13.1386  13.3527  14.8493  15.6987  25.6732  25.8647  27.4331

          k = 0.0000-0.5000 0.1909 (   800 PWs)   bands (ev):

     8.7151   8.9701  10.7160  11.2055  11.7949  12.5282  12.6727  12.7900
    13.7207  13.7574  14.8296  15.5500  20.9801  22.5126  31.8856

          k = 0.0000-0.5000-0.3817 (   780 PWs)   bands (ev):

     8.4715   8.6961  10.9967  11.4523  11.4779  12.8147  13.8362  13.8743
    14.0298  14.1210  14.5935  14.6498  18.5644  20.6733  33.1132

          k = 0.2500 0.2500 0.0000 (   791 PWs)   bands (ev):

     8.1684   9.9051  10.4662  10.4706  10.7655  11.5400  13.1110  13.2234
    13.2688  13.6147  14.2397  21.4166  22.4965  23.0265  25.6920

          k = 0.2500 0.2500 0.1909 (   802 PWs)   bands (ev):

     8.7242  10.1665  10.4816  10.5171  10.6103  11.2674  13.1006  13.2079
    13.3368  13.8048  14.0682  18.8544  22.7488  23.4588  28.4112

          k = 0.2500 0.2500-0.3817 (   790 PWs)   bands (ev):

     9.4301   9.8630  10.5080  10.5582  10.9230  11.8676  12.3422  13.2099
    13.2451  13.3716  15.2075  16.0155  25.1039  25.3692  25.3875

          k = 0.2500-0.5000 0.0000 (   796 PWs)   bands (ev):

     9.1632   9.7496   9.7776  10.4753  10.9978  12.8066  13.5380  13.5638
    13.8130  13.8600  15.4251  15.9483  25.3035  26.7668  26.8690

          k = 0.2500-0.5000 0.1909 (   796 PWs)   bands (ev):

     9.1259   9.7292  10.3071  10.5928  10.9372  12.6262  12.9602  13.2515
    13.9557  14.0205  16.6427  16.6552  22.0754  22.9590  27.0113

          k = 0.2500-0.5000-0.3817 (   804 PWs)   bands (ev):

     9.0552   9.7138  10.4805  10.5465  11.9189  12.4043  12.6521  13.1863
    13.7582  13.8459  18.1413  18.1441  18.8441  20.7777  27.4200

          k =-0.5000-0.5000 0.0000 (   800 PWs)   bands (ev):

     8.2155   9.5795   9.5795   9.7945  13.8989  13.9480  13.9647  14.1306
    14.2900  14.2900  16.4176  16.4176  21.0759  23.2552  26.6011

          k =-0.5000-0.5000 0.1909 (   808 PWs)   bands (ev):

     8.4735   9.6457   9.6457  10.5241  13.0210  13.0210  13.5661  13.6782
    13.9655  14.1333  18.6153  18.6153  21.2879  22.5159  25.8710

          k =-0.5000-0.5000-0.3817 (   816 PWs)   bands (ev):

     8.7675   9.7319   9.7319  11.9567  12.2886  12.2886  12.4973  13.4104
    13.9664  14.1361  21.4670  21.4670  21.8681  22.0917  22.9372

 ------ SPIN DOWN ----------


          k = 0.0000 0.0000 0.0000 (   821 PWs)   bands (ev):

     5.5542   8.7457   8.9332  11.4749  11.4749  12.6190  12.6927  13.4410
    13.9403  14.1907  14.1907  17.9543  24.2717  26.3409  26.3409

          k = 0.0000 0.0000 0.1909 (   798 PWs)   bands (ev):

     6.2924   8.8818   9.2210  11.6483  11.6483  12.4967  12.7517  13.2106
    13.7318  13.7318  13.7943  14.8314  27.7901  27.7901  28.5933

          k = 0.0000 0.0000-0.3817 (   814 PWs)   bands (ev):

     7.3719   9.0334   9.7278  11.9138  11.9138  11.9312  12.2853  12.9387
    13.2064  13.2064  13.2086  13.5939  31.1520  31.1521  31.2720

          k = 0.0000 0.2500 0.0000 (   801 PWs)   bands (ev):

     6.9413   9.2874   9.9227  10.7052  11.8310  12.0599  12.7801  12.9701
    13.4574  13.5368  13.8745  20.4336  21.0952  24.7778  28.6519

          k = 0.0000 0.2500 0.1909 (   802 PWs)   bands (ev):

     7.5201   9.3191  10.2248  10.7381  11.5917  12.1074  12.6919  12.8051
    13.3797  13.4111  14.0791  17.2822  21.5939  27.8418  29.6193

          k = 0.0000 0.2500-0.3817 (   796 PWs)   bands (ev):

     8.3201   9.1424  10.3243  11.6354  11.6616  11.7166  12.1795  12.7544
    13.8388  13.8754  13.8897  14.0911  24.0979  24.4979  32.2334

          k = 0.0000-0.5000 0.0000 (   806 PWs)   bands (ev):

     8.6788   9.9433  10.1468  11.0614  11.4763  12.3918  12.4539  12.5275
    13.1386  13.3531  14.8496  15.6992  25.6734  25.8649  27.4335

          k = 0.0000-0.5000 0.1909 (   800 PWs)   bands (ev):

     8.7154   8.9702  10.7162  11.2059  11.7949  12.5284  12.6729  12.7904
    13.7211  13.7574  14.8298  15.5505  20.9803  22.5129  31.8859

          k = 0.0000-0.5000-0.3817 (   780 PWs)   bands (ev):

     8.4717   8.6964  10.9970  11.4523  11.4781  12.8150  13.8366  13.8745
    14.0302  14.1210  14.5937  14.6502  18.5646  20.6737  33.1139

          k = 0.2500 0.2500 0.0000 (   791 PWs)   bands (ev):

     8.1686   9.9053  10.4663  10.4710  10.7656  11.5403  13.1113  13.2238
    13.2688  13.6149  14.2400  21.4170  22.4968  23.0267  25.6923

          k = 0.2500 0.2500 0.1909 (   802 PWs)   bands (ev):

     8.7245  10.1667  10.4817  10.5175  10.6104  11.2678  13.1008  13.2082
    13.3369  13.8051  14.0684  18.8546  22.7492  23.4591  28.4115

          k = 0.2500 0.2500-0.3817 (   790 PWs)   bands (ev):

     9.4303   9.8632  10.5081  10.5586  10.9233  11.8678  12.3424  13.2101
    13.2455  13.3719  15.2078  16.0157  25.1043  25.3695  25.3880

          k = 0.2500-0.5000 0.0000 (   796 PWs)   bands (ev):

     9.1635   9.7497   9.7777  10.4754  10.9981  12.8070  13.5380  13.5640
    13.8134  13.8603  15.4254  15.9488  25.3038  26.7670  26.8697

          k = 0.2500-0.5000 0.1909 (   796 PWs)   bands (ev):

     9.1261   9.7295  10.3073  10.5929  10.9374  12.6265  12.9603  13.2517
    13.9560  14.0208  16.6429  16.6555  22.0756  22.9594  27.0116

          k = 0.2500-0.5000-0.3817 (   804 PWs)   bands (ev):

     9.0554   9.7142  10.4808  10.5466  11.9191  12.4044  12.6524  13.1865
    13.7587  13.8461  18.1415  18.1443  18.8443  20.7781  27.4205

          k =-0.5000-0.5000 0.0000 (   800 PWs)   bands (ev):

     8.2158   9.5796   9.5796   9.7946  13.8991  13.9481  13.9649  14.1312
    14.2903  14.2903  16.4179  16.4179  21.0760  23.2557  26.6015

          k =-0.5000-0.5000 0.1909 (   808 PWs)   bands (ev):

     8.4738   9.6458   9.6458  10.5242  13.0213  13.0213  13.5662  13.6784
    13.9658  14.1340  18.6156  18.6156  21.2881  22.5163  25.8711

          k =-0.5000-0.5000-0.3817 (   816 PWs)   bands (ev):

     8.7678   9.7320   9.7320  11.9568  12.2889  12.2889  12.4974  13.4106
    13.9667  14.1367  21.4671  21.4671  21.8685  22.0919  22.9372

     the Fermi energy is    15.8405 ev

!    total energy              =    -154.72138690 Ry
     estimated scf accuracy    <       0.00000006 Ry
     smearing contrib. (-TS)   =      -0.00000347 Ry
     internal energy E=F+TS    =    -154.72138343 Ry

     The total energy is F=E-TS. E is the sum of the following terms:
     one-electron contribution =      -3.74469917 Ry
     hartree contribution      =      27.55053865 Ry
     xc contribution           =     -24.55149904 Ry
     ewald contribution        =    -153.97572388 Ry

     total magnetization       =     0.00 Bohr mag/cell
     absolute magnetization    =     0.00 Bohr mag/cell

     convergence has been achieved in  10 iterations

     Forces acting on atoms (cartesian axes, Ry/au):

     atom    1 type  2   force =     0.00000000    0.00000000    0.00000000
     atom    2 type  1   force =     0.00000000    0.00000000    0.00000000
     The non-local contrib.  to forces
     atom    1 type  2   force =     0.00000000    0.00000000    0.00000000
     atom    2 type  1   force =     0.00000000    0.00000000    0.00000000
     The ionic contribution  to forces
     atom    1 type  2   force =    -0.00000000   -0.00000000   -0.00000000
     atom    2 type  1   force =     0.00000000    0.00000000    0.00000000
     The local contribution  to forces
     atom    1 type  2   force =     0.00000000    0.00000000   -0.00000000
     atom    2 type  1   force =    -0.00000000   -0.00000000   -0.00000000
     The core correction contribution to forces
     atom    1 type  2   force =     0.00000000    0.00000000    0.00000000
     atom    2 type  1   force =     0.00000000    0.00000000    0.00000000
     The Hubbard contrib.    to forces
     atom    1 type  2   force =     0.00000000    0.00000000    0.00000000
     atom    2 type  1   force =     0.00000000    0.00000000    0.00000000
     The SCF correction term to forces
     atom    1 type  2   force =    -0.00000000   -0.00000000    0.00000000
     atom    2 type  1   force =    -0.00000000   -0.00000000   -0.00000000

     Total force =     0.000000     Total SCF correction =     0.000000


     Computing stress (Cartesian axis) and pressure

          total   stress  (Ry/bohr**3)                   (kbar)     P=       13.99
   0.00019752   0.00000000   0.00000000           29.06        0.00        0.00
   0.00000000   0.00019752   0.00000000            0.00       29.06        0.00
   0.00000000   0.00000000  -0.00010975            0.00        0.00      -16.14


     BFGS Geometry Optimization
     Energy error            =      0.0E+00 Ry
     Gradient error          =      0.0E+00 Ry/Bohr
     Cell gradient error     =      2.9E+01 kbar

     number of scf cycles    =   1
     number of bfgs steps    =   0

     enthalpy           new  =    -154.7213869020 Ry

     new trust radius        =       0.0135075277 bohr
     new conv_thr            =       0.0000001000 Ry

     new unit-cell volume =    188.38865 a.u.^3 (    27.91632 Ang^3 )
     density =     15.49600 g/cm^3

CELL_PARAMETERS (angstrom)
   2.779658827   0.000000000   0.000000000
   0.000000000   2.779658827   0.000000000
   0.000000000   0.000000000   3.613059829

ATOMIC_POSITIONS (angstrom)
Cu            0.0000000000        0.0000000000        0.0000000000
Au            1.3898294135        1.3898294135        1.8065299143



     Writing config-only to output data dir /home/gridsan/epan1/labutil/lab3_samples/problem3/Lab3/CuAu_a_2.766_c_3.623_ecut_40_nk_4/pwscf.save/
     NEW-OLD atomic charge density approx. for the potential
     extrapolated charge   22.15574, renormalised to   22.00000
     Generating pointlists ...

     total cpu time spent up to now is        4.4 secs

     Self-consistent Calculation

     iteration #  1     ecut=    40.00 Ry     beta= 0.50
     Davidson diagonalization with overlap
     ethr =  1.00E-06,  avg # of iterations =  3.8

     total cpu time spent up to now is        4.9 secs

     total energy              =    -154.71307743 Ry
     estimated scf accuracy    <       0.00875809 Ry

     total magnetization       =     0.00 Bohr mag/cell
     absolute magnetization    =     0.00 Bohr mag/cell

     iteration #  2     ecut=    40.00 Ry     beta= 0.50
     Davidson diagonalization with overlap
     ethr =  3.98E-05,  avg # of iterations =  2.2

     total cpu time spent up to now is        5.2 secs

     total energy              =    -154.72016754 Ry
     estimated scf accuracy    <       0.02809801 Ry

     total magnetization       =     0.00 Bohr mag/cell
     absolute magnetization    =     0.00 Bohr mag/cell

     iteration #  3     ecut=    40.00 Ry     beta= 0.50
     Davidson diagonalization with overlap
     ethr =  3.98E-05,  avg # of iterations =  1.9

     total cpu time spent up to now is        5.5 secs

     total energy              =    -154.72202826 Ry
     estimated scf accuracy    <       0.00303487 Ry

     total magnetization       =     0.00 Bohr mag/cell
     absolute magnetization    =     0.00 Bohr mag/cell

     iteration #  4     ecut=    40.00 Ry     beta= 0.50
     Davidson diagonalization with overlap
     ethr =  1.38E-05,  avg # of iterations =  1.0

     total cpu time spent up to now is        5.8 secs

     total energy              =    -154.72154813 Ry
     estimated scf accuracy    <       0.00149974 Ry

     total magnetization       =     0.00 Bohr mag/cell
     absolute magnetization    =     0.00 Bohr mag/cell

     iteration #  5     ecut=    40.00 Ry     beta= 0.50
     Davidson diagonalization with overlap
     ethr =  6.82E-06,  avg # of iterations =  1.7

     total cpu time spent up to now is        6.1 secs

     total energy              =    -154.72171220 Ry
     estimated scf accuracy    <       0.00004930 Ry

     total magnetization       =     0.00 Bohr mag/cell
     absolute magnetization    =     0.00 Bohr mag/cell

     iteration #  6     ecut=    40.00 Ry     beta= 0.50
     Davidson diagonalization with overlap
     ethr =  2.24E-07,  avg # of iterations =  2.0

     total cpu time spent up to now is        6.4 secs

     total energy              =    -154.72171777 Ry
     estimated scf accuracy    <       0.00000300 Ry

     total magnetization       =     0.00 Bohr mag/cell
     absolute magnetization    =     0.00 Bohr mag/cell

     iteration #  7     ecut=    40.00 Ry     beta= 0.50
     Davidson diagonalization with overlap
     ethr =  1.36E-08,  avg # of iterations =  2.1

     total cpu time spent up to now is        6.7 secs

     total energy              =    -154.72171922 Ry
     estimated scf accuracy    <       0.00000056 Ry

     total magnetization       =     0.00 Bohr mag/cell
     absolute magnetization    =     0.00 Bohr mag/cell

     iteration #  8     ecut=    40.00 Ry     beta= 0.50
     Davidson diagonalization with overlap
     ethr =  2.55E-09,  avg # of iterations =  1.9

     total cpu time spent up to now is        7.0 secs

     total energy              =    -154.72171863 Ry
     estimated scf accuracy    <       0.00000173 Ry

     total magnetization       =     0.00 Bohr mag/cell
     absolute magnetization    =     0.00 Bohr mag/cell

     iteration #  9     ecut=    40.00 Ry     beta= 0.50
     Davidson diagonalization with overlap
     ethr =  2.55E-09,  avg # of iterations =  2.0

     Magnetic moment per site  (integrated on atomic sphere of radius R)
     atom   1 (R=0.398)  charge= 10.0366  magn= -0.0000
     atom   2 (R=0.398)  charge=  8.8143  magn=  0.0000

     total cpu time spent up to now is        7.3 secs

     End of self-consistent calculation

 ------ SPIN UP ------------


          k = 0.0000 0.0000 0.0000 (   821 PWs)   bands (ev):

     5.4699   8.6689   8.8458  11.3372  11.3372  12.4484  12.5735  13.3091
    13.7872  14.0353  14.0353  17.9184  24.1880  26.0433  26.0433

          k = 0.0000 0.0000 0.1914 (   798 PWs)   bands (ev):

     6.2154   8.8089   9.1345  11.5050  11.5050  12.3740  12.5834  13.0863
    13.5766  13.5766  13.6386  14.7632  27.4999  27.4999  28.5483

          k = 0.0000 0.0000-0.3828 (   814 PWs)   bands (ev):

     7.3113   8.9657   9.6362  11.7620  11.7620  11.8483  12.1579  12.7741
    13.0553  13.0553  13.0884  13.4341  30.8762  30.8762  31.0028

          k = 0.0000 0.2488 0.0000 (   801 PWs)   bands (ev):

     6.8428   9.1979   9.8126  10.6003  11.6890  11.9097  12.6542  12.8452
    13.3061  13.3946  13.7203  20.1905  21.0037  24.6974  28.3329

          k = 0.0000 0.2488 0.1914 (   802 PWs)   bands (ev):

     7.4298   9.2286  10.1197  10.6312  11.4424  11.9587  12.5696  12.6781
    13.2267  13.2690  13.9295  17.1659  21.3565  27.6346  29.5691

          k = 0.0000 0.2488-0.3828 (   796 PWs)   bands (ev):

     8.2454   9.0410  10.2266  11.5056  11.5475  11.5680  12.0582  12.6280
    13.6916  13.7237  13.7430  13.9458  23.8623  24.2787  31.9289

          k = 0.0000-0.4975 0.0000 (   806 PWs)   bands (ev):

     8.5816   9.8644  10.0321  10.9296  11.3447  12.2423  12.3318  12.3952
    12.9878  13.2031  14.6701  15.4846  25.5574  25.7692  27.3251

          k = 0.0000-0.4975 0.1914 (   800 PWs)   bands (ev):

     8.6275   8.8781  10.6060  11.0708  11.6400  12.4012  12.5451  12.6596
    13.5757  13.6101  14.6625  15.3543  20.8280  22.3570  31.7848

          k = 0.0000-0.4975-0.3828 (   780 PWs)   bands (ev):

     8.3783   8.6119  10.8602  11.2947  11.3898  12.6921  13.6656  13.7133
    13.8878  13.9743  14.4709  14.5207  18.3583  20.4925  32.7723

          k = 0.2488 0.2488 0.0000 (   791 PWs)   bands (ev):

     8.0564   9.7945  10.3542  10.3573  10.6674  11.4038  12.9695  13.0863
    13.1187  13.4655  14.0888  21.1737  22.2563  22.9157  25.5778

          k = 0.2488 0.2488 0.1914 (   802 PWs)   bands (ev):

     8.6189  10.0628  10.3617  10.4073  10.5005  11.1298  12.9698  13.0693
    13.1966  13.6544  13.9154  18.7292  22.5127  23.1935  28.1965

          k = 0.2488 0.2488-0.3828 (   790 PWs)   bands (ev):

     9.3231   9.7690  10.3816  10.4499  10.7911  11.7674  12.2094  13.0731
    13.1023  13.2268  15.0612  15.8631  24.8569  25.1069  25.1763

          k = 0.2488-0.4975 0.0000 (   796 PWs)   bands (ev):

     9.0689   9.6490   9.6633  10.3683  10.8765  12.6610  13.3818  13.4128
    13.6669  13.7138  15.2387  15.7360  25.0577  26.5476  26.6802

          k = 0.2488-0.4975 0.1914 (   796 PWs)   bands (ev):

     9.0309   9.6373  10.1917  10.4708  10.8143  12.4826  12.8258  13.1119
    13.7973  13.8564  16.4572  16.4692  21.9204  22.7952  26.7309

          k = 0.2488-0.4975-0.3828 (   804 PWs)   bands (ev):

     8.9544   9.6219  10.3630  10.4162  11.8144  12.2765  12.5146  13.0510
    13.5939  13.6872  17.9782  17.9803  18.6378  20.5939  27.1675

          k =-0.4975-0.4975 0.0000 (   800 PWs)   bands (ev):

     8.1399   9.4881   9.4881   9.6686  13.7437  13.7827  13.7996  13.9411
    14.1431  14.1431  16.2295  16.2295  20.7921  22.9883  26.4777

          k =-0.4975-0.4975 0.1914 (   808 PWs)   bands (ev):

     8.4008   9.5458   9.5458  10.4018  12.8758  12.8758  13.4157  13.5316
    13.8006  13.9440  18.4342  18.4342  21.0061  22.2767  25.6806

          k =-0.4975-0.4975-0.3828 (   816 PWs)   bands (ev):

     8.6986   9.6211   9.6211  11.8326  12.1533  12.1533  12.3709  13.2720
    13.8015  13.9470  21.2862  21.2862  21.6356  21.8102  22.7124

 ------ SPIN DOWN ----------


          k = 0.0000 0.0000 0.0000 (   821 PWs)   bands (ev):

     5.4699   8.6689   8.8458  11.3372  11.3372  12.4484  12.5735  13.3091
    13.7872  14.0353  14.0353  17.9184  24.1880  26.0433  26.0433

          k = 0.0000 0.0000 0.1914 (   798 PWs)   bands (ev):

     6.2154   8.8089   9.1345  11.5050  11.5050  12.3740  12.5834  13.0863
    13.5766  13.5766  13.6386  14.7632  27.4999  27.4999  28.5483

          k = 0.0000 0.0000-0.3828 (   814 PWs)   bands (ev):

     7.3113   8.9657   9.6362  11.7620  11.7620  11.8483  12.1579  12.7742
    13.0553  13.0553  13.0884  13.4341  30.8761  30.8762  31.0029

          k = 0.0000 0.2488 0.0000 (   801 PWs)   bands (ev):

     6.8428   9.1979   9.8126  10.6003  11.6890  11.9098  12.6542  12.8452
    13.3061  13.3946  13.7203  20.1905  21.0037  24.6974  28.3329

          k = 0.0000 0.2488 0.1914 (   802 PWs)   bands (ev):

     7.4298   9.2286  10.1197  10.6312  11.4424  11.9587  12.5696  12.6781
    13.2267  13.2690  13.9295  17.1659  21.3565  27.6346  29.5691

          k = 0.0000 0.2488-0.3828 (   796 PWs)   bands (ev):

     8.2454   9.0410  10.2266  11.5056  11.5475  11.5680  12.0582  12.6280
    13.6916  13.7237  13.7430  13.9458  23.8623  24.2787  31.9290

          k = 0.0000-0.4975 0.0000 (   806 PWs)   bands (ev):

     8.5816   9.8644  10.0321  10.9296  11.3447  12.2423  12.3318  12.3952
    12.9878  13.2031  14.6701  15.4846  25.5574  25.7692  27.3251

          k = 0.0000-0.4975 0.1914 (   800 PWs)   bands (ev):

     8.6275   8.8781  10.6060  11.0708  11.6400  12.4012  12.5451  12.6596
    13.5757  13.6101  14.6625  15.3543  20.8280  22.3570  31.7848

          k = 0.0000-0.4975-0.3828 (   780 PWs)   bands (ev):

     8.3783   8.6119  10.8602  11.2947  11.3898  12.6921  13.6656  13.7133
    13.8878  13.9743  14.4709  14.5207  18.3583  20.4925  32.7725

          k = 0.2488 0.2488 0.0000 (   791 PWs)   bands (ev):

     8.0564   9.7945  10.3542  10.3573  10.6674  11.4038  12.9695  13.0863
    13.1187  13.4655  14.0888  21.1737  22.2563  22.9157  25.5778

          k = 0.2488 0.2488 0.1914 (   802 PWs)   bands (ev):

     8.6189  10.0628  10.3617  10.4073  10.5005  11.1298  12.9698  13.0693
    13.1966  13.6544  13.9154  18.7292  22.5127  23.1935  28.1965

          k = 0.2488 0.2488-0.3828 (   790 PWs)   bands (ev):

     9.3231   9.7690  10.3816  10.4499  10.7911  11.7674  12.2094  13.0731
    13.1023  13.2268  15.0612  15.8631  24.8569  25.1069  25.1763

          k = 0.2488-0.4975 0.0000 (   796 PWs)   bands (ev):

     9.0689   9.6490   9.6633  10.3683  10.8765  12.6610  13.3818  13.4128
    13.6669  13.7138  15.2387  15.7360  25.0577  26.5477  26.6802

          k = 0.2488-0.4975 0.1914 (   796 PWs)   bands (ev):

     9.0309   9.6373  10.1917  10.4708  10.8143  12.4826  12.8258  13.1119
    13.7973  13.8564  16.4572  16.4692  21.9204  22.7952  26.7309

          k = 0.2488-0.4975-0.3828 (   804 PWs)   bands (ev):

     8.9544   9.6219  10.3630  10.4162  11.8144  12.2765  12.5146  13.0510
    13.5939  13.6872  17.9782  17.9803  18.6378  20.5939  27.1675

          k =-0.4975-0.4975 0.0000 (   800 PWs)   bands (ev):

     8.1399   9.4882   9.4882   9.6686  13.7437  13.7827  13.7996  13.9411
    14.1431  14.1431  16.2295  16.2295  20.7921  22.9883  26.4777

          k =-0.4975-0.4975 0.1914 (   808 PWs)   bands (ev):

     8.4008   9.5458   9.5458  10.4018  12.8758  12.8758  13.4157  13.5316
    13.8006  13.9440  18.4342  18.4342  21.0061  22.2767  25.6806

          k =-0.4975-0.4975-0.3828 (   816 PWs)   bands (ev):

     8.6986   9.6211   9.6211  11.8326  12.1533  12.1533  12.3709  13.2720
    13.8015  13.9470  21.2862  21.2862  21.6356  21.8102  22.7124

     the Fermi energy is    15.6423 ev

!    total energy              =    -154.72171882 Ry
     estimated scf accuracy    <       0.00000004 Ry
     smearing contrib. (-TS)   =       0.00009992 Ry
     internal energy E=F+TS    =    -154.72181874 Ry

     The total energy is F=E-TS. E is the sum of the following terms:
     one-electron contribution =      -4.27291694 Ry
     hartree contribution      =      27.70156589 Ry
     xc contribution           =     -24.54005584 Ry
     ewald contribution        =    -153.61041185 Ry

     total magnetization       =     0.00 Bohr mag/cell
     absolute magnetization    =     0.00 Bohr mag/cell

     convergence has been achieved in   9 iterations

     Forces acting on atoms (cartesian axes, Ry/au):

     atom    1 type  2   force =     0.00000000    0.00000000    0.00000000
     atom    2 type  1   force =     0.00000000    0.00000000    0.00000000
     The non-local contrib.  to forces
     atom    1 type  2   force =     0.00000000    0.00000000    0.00000000
     atom    2 type  1   force =     0.00000000    0.00000000    0.00000000
     The ionic contribution  to forces
     atom    1 type  2   force =     0.00000000    0.00000000   -0.00000000
     atom    2 type  1   force =     0.00000000    0.00000000   -0.00000000
     The local contribution  to forces
     atom    1 type  2   force =     0.00000000    0.00000000    0.00000000
     atom    2 type  1   force =     0.00000000    0.00000000   -0.00000000
     The core correction contribution to forces
     atom    1 type  2   force =     0.00000000    0.00000000    0.00000000
     atom    2 type  1   force =     0.00000000    0.00000000    0.00000000
     The Hubbard contrib.    to forces
     atom    1 type  2   force =     0.00000000    0.00000000    0.00000000
     atom    2 type  1   force =     0.00000000    0.00000000    0.00000000
     The SCF correction term to forces
     atom    1 type  2   force =     0.00000000    0.00000000    0.00000000
     atom    2 type  1   force =    -0.00000000    0.00000000    0.00000000

     Total force =     0.000000     Total SCF correction =     0.000000


     Computing stress (Cartesian axis) and pressure

          total   stress  (Ry/bohr**3)                   (kbar)     P=       -3.90
   0.00006475   0.00000000   0.00000000            9.52        0.00        0.00
   0.00000000   0.00006475   0.00000000            0.00        9.52        0.00
   0.00000000   0.00000000  -0.00020906            0.00        0.00      -30.75

     Energy error            =      3.3E-04 Ry
     Gradient error          =      0.0E+00 Ry/Bohr
     Cell gradient error     =      3.1E+01 kbar

     number of scf cycles    =   2
     number of bfgs steps    =   1

     enthalpy           old  =    -154.7213869020 Ry
     enthalpy           new  =    -154.7217188223 Ry

     CASE: enthalpy          _new < enthalpy          _old

     new trust radius        =       0.0202334776 bohr
     new conv_thr            =       0.0000000010 Ry

     new unit-cell volume =    188.86873 a.u.^3 (    27.98746 Ang^3 )
     density =     15.45661 g/cm^3

CELL_PARAMETERS (angstrom)
   2.793512539   0.000000000   0.000000000
   0.000000000   2.793512539   0.000000000
   0.000000000   0.000000000   3.586428777

ATOMIC_POSITIONS (angstrom)
Cu            0.0000000000        0.0000000000        0.0000000000
Au            1.3967562694        1.3967562694        1.7932143884



     Writing config-only to output data dir /home/gridsan/epan1/labutil/lab3_samples/problem3/Lab3/CuAu_a_2.766_c_3.623_ecut_40_nk_4/pwscf.save/
     NEW-OLD atomic charge density approx. for the potential
     extrapolated charge   22.05592, renormalised to   22.00000
     Generating pointlists ...

     total cpu time spent up to now is        7.9 secs

     Self-consistent Calculation

     iteration #  1     ecut=    40.00 Ry     beta= 0.50
     Davidson diagonalization with overlap
     ethr =  1.00E-06,  avg # of iterations =  4.1

     total cpu time spent up to now is        8.4 secs

     total energy              =    -154.72106477 Ry
     estimated scf accuracy    <       0.00101966 Ry

     total magnetization       =     0.00 Bohr mag/cell
     absolute magnetization    =     0.00 Bohr mag/cell

     iteration #  2     ecut=    40.00 Ry     beta= 0.50
     Davidson diagonalization with overlap
     ethr =  4.63E-06,  avg # of iterations =  2.2

     total cpu time spent up to now is        8.7 secs

     total energy              =    -154.72191243 Ry
     estimated scf accuracy    <       0.00302963 Ry

     total magnetization       =     0.00 Bohr mag/cell
     absolute magnetization    =     0.00 Bohr mag/cell

     iteration #  3     ecut=    40.00 Ry     beta= 0.50
     Davidson diagonalization with overlap
     ethr =  4.63E-06,  avg # of iterations =  1.9

     total cpu time spent up to now is        9.0 secs

     total energy              =    -154.72211537 Ry
     estimated scf accuracy    <       0.00032855 Ry

     total magnetization       =     0.00 Bohr mag/cell
     absolute magnetization    =     0.00 Bohr mag/cell

     iteration #  4     ecut=    40.00 Ry     beta= 0.50
     Davidson diagonalization with overlap
     ethr =  1.49E-06,  avg # of iterations =  1.0

     total cpu time spent up to now is        9.3 secs

     total energy              =    -154.72203787 Ry
     estimated scf accuracy    <       0.00016024 Ry

     total magnetization       =     0.00 Bohr mag/cell
     absolute magnetization    =     0.00 Bohr mag/cell

     iteration #  5     ecut=    40.00 Ry     beta= 0.50
     Davidson diagonalization with overlap
     ethr =  7.28E-07,  avg # of iterations =  2.0

     total cpu time spent up to now is        9.6 secs

     total energy              =    -154.72208003 Ry
     estimated scf accuracy    <       0.00001083 Ry

     total magnetization       =     0.00 Bohr mag/cell
     absolute magnetization    =     0.00 Bohr mag/cell

     iteration #  6     ecut=    40.00 Ry     beta= 0.50
     Davidson diagonalization with overlap
     ethr =  4.92E-08,  avg # of iterations =  1.1

     total cpu time spent up to now is        9.8 secs

     total energy              =    -154.72208120 Ry
     estimated scf accuracy    <       0.00000063 Ry

     total magnetization       =     0.00 Bohr mag/cell
     absolute magnetization    =     0.00 Bohr mag/cell

     iteration #  7     ecut=    40.00 Ry     beta= 0.50
     Davidson diagonalization with overlap
     ethr =  2.86E-09,  avg # of iterations =  1.2

     total cpu time spent up to now is       10.1 secs

     total energy              =    -154.72208113 Ry
     estimated scf accuracy    <       0.00000024 Ry

     total magnetization       =     0.00 Bohr mag/cell
     absolute magnetization    =     0.00 Bohr mag/cell

     iteration #  8     ecut=    40.00 Ry     beta= 0.50
     Davidson diagonalization with overlap
     ethr =  1.11E-09,  avg # of iterations =  2.0

     Magnetic moment per site  (integrated on atomic sphere of radius R)
     atom   1 (R=0.398)  charge= 10.0354  magn= -0.0000
     atom   2 (R=0.398)  charge=  8.8111  magn=  0.0000

     total cpu time spent up to now is       10.4 secs

     End of self-consistent calculation

 ------ SPIN UP ------------


          k = 0.0000 0.0000 0.0000 (   821 PWs)   bands (ev):

     5.4437   8.6611   8.8267  11.2744  11.2744  12.3467  12.5493  13.2745
    13.7291  13.9769  13.9769  18.0524  24.3351  25.8086  25.8086

          k = 0.0000 0.0000 0.1928 (   798 PWs)   bands (ev):

     6.2048   8.8096   9.1229  11.4360  11.4360  12.3405  12.4879  13.0611
    13.5101  13.5101  13.5735  14.8389  27.2911  27.2911  28.7626

          k = 0.0000 0.0000-0.3856 (   814 PWs)   bands (ev):

     7.3283   8.9771   9.6301  11.6840  11.6840  11.8845  12.1128  12.6892
    12.9858  12.9858  13.0677  13.3577  30.7097  30.7097  30.8252

          k = 0.0000 0.2475 0.0000 (   801 PWs)   bands (ev):

     6.8033   9.1798   9.7681  10.5789  11.6247  11.8325  12.6195  12.8137
    13.2416  13.3453  13.6587  20.0261  21.0838  24.8368  28.0862

          k = 0.0000 0.2475 0.1928 (   802 PWs)   bands (ev):

     7.4053   9.2110  10.0875  10.6068  11.3609  11.8862  12.5397  12.6415
    13.1580  13.2186  13.8786  17.1893  21.2132  27.5689  29.7693

          k = 0.0000 0.2475-0.3856 (   796 PWs)   bands (ev):

     8.2447   9.0095  10.2080  11.4157  11.4873  11.5683  12.0209  12.5922
    13.6402  13.6662  13.6918  13.8973  23.7346  24.1857  31.7359

          k = 0.0000-0.4951 0.0000 (   806 PWs)   bands (ev):

     8.5487   9.8745   9.9883  10.8639  11.2884  12.1768  12.2978  12.3440
    12.9186  13.1379  14.5745  15.3513  25.6261  25.8611  27.4348

          k = 0.0000-0.4951 0.1928 (   800 PWs)   bands (ev):

     8.6082   8.8562  10.5766  11.0045  11.5535  12.3548  12.5061  12.6160
    13.5242  13.5590  14.5811  15.2424  20.8259  22.3573  31.8782

          k = 0.0000-0.4951-0.3856 (   780 PWs)   bands (ev):

     8.3491   8.5967  10.7877  11.1985  11.4076  12.6630  13.5795  13.6388
    13.8464  13.9301  14.4345  14.4771  18.2694  20.4563  32.5183

          k = 0.2475 0.2475 0.0000 (   791 PWs)   bands (ev):

     8.0028   9.7494  10.3141  10.3175  10.6571  11.3406  12.9149  13.0403
    13.0523  13.4062  14.0370  21.0071  22.1211  22.9786  25.6570

          k = 0.2475 0.2475 0.1928 (   802 PWs)   bands (ev):

     8.5790  10.0327  10.3116  10.3713  10.4689  11.0601  12.9330  13.0208
    13.1470  13.5961  13.8568  18.7531  22.3698  23.0204  28.1239

          k = 0.2475 0.2475-0.3856 (   790 PWs)   bands (ev):

     9.2840   9.7510  10.3218  10.4165  10.7246  11.7739  12.1560  13.0270
    13.0470  13.1714  15.0269  15.8227  24.7196  24.9472  25.0909

          k = 0.2475-0.4951 0.0000 (   796 PWs)   bands (ev):

     9.0392   9.5785   9.6581  10.3389  10.8293  12.5927  13.3111  13.3480
    13.6149  13.6649  15.1310  15.6031  24.9172  26.3577  26.7379

          k = 0.2475-0.4951 0.1928 (   796 PWs)   bands (ev):

     9.0029   9.6193  10.1465  10.4201  10.7644  12.4152  12.7820  13.0614
    13.7277  13.7824  16.3514  16.3917  21.9155  22.7779  26.5440

          k = 0.2475-0.4951-0.3856 (   804 PWs)   bands (ev):

     8.9187   9.6012  10.3145  10.3509  11.8133  12.2316  12.4570  13.0066
    13.5164  13.6157  17.9208  17.9217  18.5467  20.5464  27.0228

          k =-0.4951-0.4951 0.0000 (   800 PWs)   bands (ev):

     8.1272   9.4724   9.4724   9.6008  13.6773  13.7062  13.7200  13.8331
    14.0980  14.0980  16.1046  16.1046  20.5959  22.8320  26.5170

          k =-0.4951-0.4951 0.1928 (   808 PWs)   bands (ev):

     8.3956   9.5172   9.5172  10.3483  12.8109  12.8109  13.3585  13.4755
    13.7210  13.8365  18.3481  18.3481  20.8123  22.1466  25.6369

          k =-0.4951-0.4951-0.3856 (   816 PWs)   bands (ev):

     8.7025   9.5765   9.5765  11.7881  12.0948  12.0948  12.3456  13.2248
    13.7221  13.8398  21.2191  21.2191  21.5063  21.6323  22.5814

 ------ SPIN DOWN ----------


          k = 0.0000 0.0000 0.0000 (   821 PWs)   bands (ev):

     5.4437   8.6611   8.8267  11.2744  11.2744  12.3467  12.5493  13.2745
    13.7291  13.9769  13.9769  18.0524  24.3351  25.8086  25.8086

          k = 0.0000 0.0000 0.1928 (   798 PWs)   bands (ev):

     6.2048   8.8096   9.1229  11.4360  11.4360  12.3405  12.4879  13.0611
    13.5101  13.5101  13.5735  14.8389  27.2911  27.2911  28.7626

          k = 0.0000 0.0000-0.3856 (   814 PWs)   bands (ev):

     7.3283   8.9771   9.6301  11.6840  11.6840  11.8845  12.1128  12.6892
    12.9858  12.9858  13.0677  13.3577  30.7097  30.7097  30.8253

          k = 0.0000 0.2475 0.0000 (   801 PWs)   bands (ev):

     6.8033   9.1798   9.7681  10.5789  11.6247  11.8325  12.6195  12.8137
    13.2416  13.3453  13.6587  20.0261  21.0838  24.8368  28.0862

          k = 0.0000 0.2475 0.1928 (   802 PWs)   bands (ev):

     7.4053   9.2110  10.0875  10.6068  11.3609  11.8862  12.5397  12.6415
    13.1580  13.2186  13.8786  17.1893  21.2132  27.5689  29.7693

          k = 0.0000 0.2475-0.3856 (   796 PWs)   bands (ev):

     8.2447   9.0095  10.2080  11.4157  11.4873  11.5683  12.0209  12.5922
    13.6402  13.6662  13.6918  13.8973  23.7346  24.1857  31.7360

          k = 0.0000-0.4951 0.0000 (   806 PWs)   bands (ev):

     8.5487   9.8745   9.9883  10.8639  11.2884  12.1768  12.2978  12.3440
    12.9186  13.1379  14.5745  15.3513  25.6261  25.8611  27.4348

          k = 0.0000-0.4951 0.1928 (   800 PWs)   bands (ev):

     8.6082   8.8562  10.5766  11.0045  11.5535  12.3548  12.5061  12.6160
    13.5242  13.5590  14.5811  15.2424  20.8259  22.3573  31.8782

          k = 0.0000-0.4951-0.3856 (   780 PWs)   bands (ev):

     8.3491   8.5967  10.7877  11.1985  11.4076  12.6630  13.5795  13.6388
    13.8464  13.9301  14.4345  14.4771  18.2694  20.4563  32.5184

          k = 0.2475 0.2475 0.0000 (   791 PWs)   bands (ev):

     8.0028   9.7494  10.3141  10.3175  10.6571  11.3406  12.9149  13.0403
    13.0523  13.4062  14.0370  21.0071  22.1211  22.9786  25.6570

          k = 0.2475 0.2475 0.1928 (   802 PWs)   bands (ev):

     8.5790  10.0327  10.3116  10.3713  10.4689  11.0601  12.9330  13.0208
    13.1470  13.5961  13.8568  18.7531  22.3698  23.0204  28.1239

          k = 0.2475 0.2475-0.3856 (   790 PWs)   bands (ev):

     9.2840   9.7510  10.3218  10.4165  10.7246  11.7739  12.1560  13.0270
    13.0470  13.1714  15.0269  15.8227  24.7196  24.9472  25.0909

          k = 0.2475-0.4951 0.0000 (   796 PWs)   bands (ev):

     9.0392   9.5785   9.6581  10.3389  10.8293  12.5927  13.3111  13.3480
    13.6149  13.6649  15.1310  15.6031  24.9172  26.3577  26.7380

          k = 0.2475-0.4951 0.1928 (   796 PWs)   bands (ev):

     9.0029   9.6193  10.1465  10.4201  10.7644  12.4152  12.7820  13.0614
    13.7277  13.7824  16.3514  16.3917  21.9155  22.7779  26.5440

          k = 0.2475-0.4951-0.3856 (   804 PWs)   bands (ev):

     8.9187   9.6012  10.3145  10.3509  11.8133  12.2316  12.4570  13.0066
    13.5164  13.6157  17.9208  17.9217  18.5467  20.5464  27.0228

          k =-0.4951-0.4951 0.0000 (   800 PWs)   bands (ev):

     8.1272   9.4724   9.4724   9.6008  13.6773  13.7062  13.7200  13.8331
    14.0980  14.0980  16.1046  16.1046  20.5959  22.8320  26.5170

          k =-0.4951-0.4951 0.1928 (   808 PWs)   bands (ev):

     8.3956   9.5172   9.5172  10.3483  12.8109  12.8109  13.3585  13.4755
    13.7210  13.8365  18.3481  18.3481  20.8123  22.1466  25.6369

          k =-0.4951-0.4951-0.3856 (   816 PWs)   bands (ev):

     8.7025   9.5765   9.5765  11.7881  12.0948  12.0948  12.3456  13.2248
    13.7221  13.8398  21.2191  21.2191  21.5063  21.6323  22.5814

     the Fermi energy is    15.5185 ev

!    total energy              =    -154.72208117 Ry
     estimated scf accuracy    <          6.4E-11 Ry
     smearing contrib. (-TS)   =       0.00023296 Ry
     internal energy E=F+TS    =    -154.72231413 Ry

     The total energy is F=E-TS. E is the sum of the following terms:
     one-electron contribution =      -4.46577987 Ry
     hartree contribution      =      27.75782510 Ry
     xc contribution           =     -24.53587856 Ry
     ewald contribution        =    -153.47848082 Ry

     total magnetization       =     0.00 Bohr mag/cell
     absolute magnetization    =     0.00 Bohr mag/cell

     convergence has been achieved in   8 iterations

     Forces acting on atoms (cartesian axes, Ry/au):

     atom    1 type  2   force =     0.00000000    0.00000000    0.00000000
     atom    2 type  1   force =     0.00000000    0.00000000    0.00000000
     The non-local contrib.  to forces
     atom    1 type  2   force =     0.00000000    0.00000000    0.00000000
     atom    2 type  1   force =     0.00000000    0.00000000    0.00000000
     The ionic contribution  to forces
     atom    1 type  2   force =     0.00000000    0.00000000   -0.00000000
     atom    2 type  1   force =     0.00000000    0.00000000   -0.00000000
     The local contribution  to forces
     atom    1 type  2   force =     0.00000000    0.00000000    0.00000000
     atom    2 type  1   force =     0.00000000    0.00000000   -0.00000000
     The core correction contribution to forces
     atom    1 type  2   force =     0.00000000    0.00000000    0.00000000
     atom    2 type  1   force =     0.00000000    0.00000000    0.00000000
     The Hubbard contrib.    to forces
     atom    1 type  2   force =     0.00000000    0.00000000    0.00000000
     atom    2 type  1   force =     0.00000000    0.00000000    0.00000000
     The SCF correction term to forces
     atom    1 type  2   force =    -0.00000000    0.00000000   -0.00000000
     atom    2 type  1   force =    -0.00000000   -0.00000000    0.00000000

     Total force =     0.000000     Total SCF correction =     0.000000


     Computing stress (Cartesian axis) and pressure

          total   stress  (Ry/bohr**3)                   (kbar)     P=       -7.53
   0.00001815   0.00000000   0.00000000            2.67        0.00        0.00
   0.00000000   0.00001815   0.00000000            0.00        2.67        0.00
   0.00000000   0.00000000  -0.00018995            0.00        0.00      -27.94

     Energy error            =      3.6E-04 Ry
     Gradient error          =      0.0E+00 Ry/Bohr
     Cell gradient error     =      2.8E+01 kbar

     number of scf cycles    =   3
     number of bfgs steps    =   2

     enthalpy           old  =    -154.7217188223 Ry
     enthalpy           new  =    -154.7220811729 Ry

     CASE: enthalpy          _new < enthalpy          _old

     new trust radius        =       0.0306145158 bohr
     new conv_thr            =       0.0000000010 Ry

     new unit-cell volume =    189.04497 a.u.^3 (    28.01357 Ang^3 )
     density =     15.44220 g/cm^3

CELL_PARAMETERS (angstrom)
   2.810511530   0.000000000   0.000000000
   0.000000000   2.810511530   0.000000000
   0.000000000   0.000000000   3.546482199

ATOMIC_POSITIONS (angstrom)
Cu            0.0000000000        0.0000000000        0.0000000000
Au            1.4052557649        1.4052557649        1.7732410995



     Writing config-only to output data dir /home/gridsan/epan1/labutil/lab3_samples/problem3/Lab3/CuAu_a_2.766_c_3.623_ecut_40_nk_4/pwscf.save/
     NEW-OLD atomic charge density approx. for the potential
     extrapolated charge   22.02051, renormalised to   22.00000
     Generating pointlists ...

     total cpu time spent up to now is       11.0 secs

     Self-consistent Calculation

     iteration #  1     ecut=    40.00 Ry     beta= 0.50
     Davidson diagonalization with overlap
     ethr =  1.00E-06,  avg # of iterations =  4.6

     total cpu time spent up to now is       11.5 secs

     total energy              =    -154.72223715 Ry
     estimated scf accuracy    <       0.00013791 Ry

     total magnetization       =     0.00 Bohr mag/cell
     absolute magnetization    =     0.00 Bohr mag/cell

     iteration #  2     ecut=    40.00 Ry     beta= 0.50
     Davidson diagonalization with overlap
     ethr =  6.27E-07,  avg # of iterations =  2.3

     total cpu time spent up to now is       12.3 secs

     total energy              =    -154.72235088 Ry
     estimated scf accuracy    <       0.00037528 Ry

     total magnetization       =     0.00 Bohr mag/cell
     absolute magnetization    =     0.00 Bohr mag/cell

     iteration #  3     ecut=    40.00 Ry     beta= 0.50
     Davidson diagonalization with overlap
     ethr =  6.27E-07,  avg # of iterations =  1.9

     total cpu time spent up to now is       12.9 secs

     total energy              =    -154.72237404 Ry
     estimated scf accuracy    <       0.00004146 Ry

     total magnetization       =     0.00 Bohr mag/cell
     absolute magnetization    =     0.00 Bohr mag/cell

     iteration #  4     ecut=    40.00 Ry     beta= 0.50
     Davidson diagonalization with overlap
     ethr =  1.88E-07,  avg # of iterations =  1.0

     total cpu time spent up to now is       13.1 secs

     total energy              =    -154.72236624 Ry
     estimated scf accuracy    <       0.00001612 Ry

     total magnetization       =     0.00 Bohr mag/cell
     absolute magnetization    =     0.00 Bohr mag/cell

     iteration #  5     ecut=    40.00 Ry     beta= 0.50
     Davidson diagonalization with overlap
     ethr =  7.33E-08,  avg # of iterations =  2.0

     total cpu time spent up to now is       13.4 secs

     total energy              =    -154.72237126 Ry
     estimated scf accuracy    <       0.00000314 Ry

     total magnetization       =     0.00 Bohr mag/cell
     absolute magnetization    =     0.00 Bohr mag/cell

     iteration #  6     ecut=    40.00 Ry     beta= 0.50
     Davidson diagonalization with overlap
     ethr =  1.43E-08,  avg # of iterations =  1.0

     total cpu time spent up to now is       13.8 secs

     total energy              =    -154.72237137 Ry
     estimated scf accuracy    <       0.00000038 Ry

     total magnetization       =     0.00 Bohr mag/cell
     absolute magnetization    =     0.00 Bohr mag/cell

     iteration #  7     ecut=    40.00 Ry     beta= 0.50
     Davidson diagonalization with overlap
     ethr =  1.72E-09,  avg # of iterations =  1.8

     total cpu time spent up to now is       14.2 secs

     total energy              =    -154.72237141 Ry
     estimated scf accuracy    <       0.00000001 Ry

     total magnetization       =     0.00 Bohr mag/cell
     absolute magnetization    =     0.00 Bohr mag/cell

     iteration #  8     ecut=    40.00 Ry     beta= 0.50
     Davidson diagonalization with overlap
     ethr =  5.34E-11,  avg # of iterations =  2.0

     Magnetic moment per site  (integrated on atomic sphere of radius R)
     atom   1 (R=0.398)  charge= 10.0380  magn=  0.0000
     atom   2 (R=0.398)  charge=  8.8082  magn= -0.0000

     total cpu time spent up to now is       14.7 secs

     End of self-consistent calculation

 ------ SPIN UP ------------


          k = 0.0000 0.0000 0.0000 (   821 PWs)   bands (ev):

     5.4376   8.6732   8.8335  11.2350  11.2350  12.2497  12.5728  13.2823
    13.7090  13.9560  13.9560  18.3020  24.6255  25.5554  25.5554

          k = 0.0000 0.0000 0.1950 (   798 PWs)   bands (ev):

     6.2206   8.8337   9.1435  11.3865  11.3865  12.3506  12.3992  13.0821
    13.4766  13.4766  13.5439  15.0052  27.0785  27.0785  29.1496

          k = 0.0000 0.0000-0.3900 (   814 PWs)   bands (ev):

     7.3793   9.0165   9.6679  11.6190  11.6190  11.9864  12.1060  12.6128
    12.9490  12.9490  13.0989  13.3146  30.5581  30.5581  30.6581

          k = 0.0000 0.2460 0.0000 (   801 PWs)   bands (ev):

     6.7817   9.1848   9.7404  10.5897  11.5837  11.7631  12.6276  12.8271
    13.2132  13.3340  13.6330  19.8627  21.2687  25.1138  27.8233

          k = 0.0000 0.2460 0.1950 (   802 PWs)   bands (ev):

     7.4039   9.2182  10.0780  10.6125  11.2918  11.8262  12.5538  12.6480
    13.1234  13.2068  13.8684  17.2886  21.0843  27.5588  30.1365

          k = 0.0000 0.2460-0.3900 (   796 PWs)   bands (ev):

     8.2715   9.0034  10.2133  11.3360  11.4158  11.6476  12.0207  12.6003
    13.6269  13.6477  13.6814  13.8894  23.6282  24.1370  31.5604

          k = 0.0000-0.4921 0.0000 (   806 PWs)   bands (ev):

     8.5311   9.9255   9.9665  10.8176  11.2444  12.1330  12.3067  12.3282
    12.8830  13.1085  14.5057  15.2196  25.8041  26.0647  27.6722

          k = 0.0000-0.4921 0.1950 (   800 PWs)   bands (ev):

     8.6099   8.8602  10.5777  10.9483  11.4807  12.3355  12.5123  12.6112
    13.5129  13.5480  14.5290  15.1400  20.9002  22.4332  32.0336

          k = 0.0000-0.4921-0.3900 (   780 PWs)   bands (ev):

     8.3417   8.6039  10.7237  11.1108  11.4823  12.6813  13.5123  13.5978
    13.8491  13.9294  14.4286  14.4700  18.2179  20.4828  32.2583

          k = 0.2460 0.2460 0.0000 (   791 PWs)   bands (ev):

     7.9648   9.7234  10.2860  10.3096  10.6833  11.2893  12.8977  13.0197
    13.0345  13.3805  14.0251  20.8419  21.9967  23.1433  25.8557

          k = 0.2460 0.2460 0.1950 (   802 PWs)   bands (ev):

     8.5603  10.0265  10.2812  10.3556  10.4671  11.0017  12.9392  13.0114
    13.1387  13.5736  13.8349  18.8569  22.2418  22.8531  28.1048

          k = 0.2460 0.2460-0.3900 (   790 PWs)   bands (ev):

     9.2664   9.7585  10.2780  10.4031  10.6706  11.8345  12.1366  13.0250
    13.0268  13.1536  15.0419  15.8285  24.6104  24.7982  25.0516

          k = 0.2460-0.4921 0.0000 (   796 PWs)   bands (ev):

     9.0264   9.5228   9.6893  10.3413  10.7978  12.5530  13.2703  13.3138
    13.6028  13.6548  15.0412  15.4737  24.7871  26.1627  26.9071

          k = 0.2460-0.4921 0.1950 (   796 PWs)   bands (ev):

     8.9963   9.6258  10.1260  10.3910  10.7330  12.3765  12.7778  13.0505
    13.6927  13.7329  16.2660  16.3440  21.9855  22.8279  26.3624

          k = 0.2460-0.4921-0.3900 (   804 PWs)   bands (ev):

     8.9030   9.6001  10.2849  10.2989  11.8620  12.2251  12.4327  13.0058
    13.4598  13.5791  17.8955  17.9071  18.4911  20.5554  26.9046

          k =-0.4921-0.4921 0.0000 (   800 PWs)   bands (ev):

     8.1336   9.4900   9.4900   9.5497  13.6441  13.6551  13.6739  13.7298
    14.0950  14.0950  15.9835  15.9835  20.3981  22.6941  26.6498

          k =-0.4921-0.4921 0.1950 (   808 PWs)   bands (ev):

     8.4126   9.5150   9.5150  10.3208  12.7748  12.7748  13.3338  13.4573
    13.6751  13.7337  18.2897  18.2897  20.6175  22.0435  25.6615

          k =-0.4921-0.4921-0.3900 (   816 PWs)   bands (ev):

     8.7320   9.5496   9.5496  11.7806  12.0677  12.0677  12.3619  13.2204
    13.6764  13.7376  21.1900  21.1900  21.4051  21.4642  22.4726

 ------ SPIN DOWN ----------


          k = 0.0000 0.0000 0.0000 (   821 PWs)   bands (ev):

     5.4376   8.6732   8.8335  11.2350  11.2350  12.2497  12.5728  13.2823
    13.7090  13.9560  13.9560  18.3020  24.6255  25.5554  25.5554

          k = 0.0000 0.0000 0.1950 (   798 PWs)   bands (ev):

     6.2206   8.8337   9.1435  11.3865  11.3865  12.3506  12.3992  13.0821
    13.4766  13.4766  13.5439  15.0052  27.0785  27.0785  29.1496

          k = 0.0000 0.0000-0.3900 (   814 PWs)   bands (ev):

     7.3793   9.0165   9.6679  11.6190  11.6190  11.9864  12.1060  12.6128
    12.9490  12.9490  13.0989  13.3146  30.5581  30.5581  30.6581

          k = 0.0000 0.2460 0.0000 (   801 PWs)   bands (ev):

     6.7817   9.1848   9.7404  10.5897  11.5837  11.7631  12.6276  12.8271
    13.2132  13.3340  13.6330  19.8627  21.2687  25.1138  27.8233

          k = 0.0000 0.2460 0.1950 (   802 PWs)   bands (ev):

     7.4039   9.2182  10.0780  10.6125  11.2918  11.8262  12.5538  12.6480
    13.1234  13.2068  13.8684  17.2886  21.0843  27.5588  30.1365

          k = 0.0000 0.2460-0.3900 (   796 PWs)   bands (ev):

     8.2715   9.0034  10.2133  11.3360  11.4158  11.6476  12.0207  12.6003
    13.6269  13.6477  13.6814  13.8894  23.6282  24.1370  31.5604

          k = 0.0000-0.4921 0.0000 (   806 PWs)   bands (ev):

     8.5311   9.9255   9.9665  10.8176  11.2444  12.1330  12.3067  12.3282
    12.8830  13.1085  14.5057  15.2196  25.8041  26.0647  27.6722

          k = 0.0000-0.4921 0.1950 (   800 PWs)   bands (ev):

     8.6099   8.8602  10.5777  10.9483  11.4807  12.3355  12.5123  12.6112
    13.5129  13.5480  14.5290  15.1400  20.9002  22.4332  32.0336

          k = 0.0000-0.4921-0.3900 (   780 PWs)   bands (ev):

     8.3417   8.6039  10.7237  11.1108  11.4823  12.6813  13.5123  13.5978
    13.8491  13.9294  14.4286  14.4700  18.2179  20.4828  32.2584

          k = 0.2460 0.2460 0.0000 (   791 PWs)   bands (ev):

     7.9648   9.7234  10.2860  10.3096  10.6833  11.2893  12.8977  13.0197
    13.0345  13.3805  14.0251  20.8419  21.9967  23.1433  25.8557

          k = 0.2460 0.2460 0.1950 (   802 PWs)   bands (ev):

     8.5603  10.0265  10.2812  10.3556  10.4671  11.0017  12.9392  13.0114
    13.1387  13.5736  13.8349  18.8569  22.2418  22.8531  28.1048

          k = 0.2460 0.2460-0.3900 (   790 PWs)   bands (ev):

     9.2664   9.7585  10.2780  10.4031  10.6706  11.8345  12.1366  13.0250
    13.0268  13.1536  15.0419  15.8285  24.6104  24.7982  25.0516

          k = 0.2460-0.4921 0.0000 (   796 PWs)   bands (ev):

     9.0264   9.5228   9.6893  10.3413  10.7978  12.5530  13.2703  13.3138
    13.6028  13.6548  15.0412  15.4737  24.7871  26.1627  26.9071

          k = 0.2460-0.4921 0.1950 (   796 PWs)   bands (ev):

     8.9963   9.6258  10.1260  10.3910  10.7330  12.3765  12.7778  13.0505
    13.6927  13.7329  16.2660  16.3440  21.9855  22.8279  26.3624

          k = 0.2460-0.4921-0.3900 (   804 PWs)   bands (ev):

     8.9030   9.6001  10.2849  10.2989  11.8620  12.2251  12.4327  13.0058
    13.4598  13.5791  17.8955  17.9071  18.4911  20.5554  26.9046

          k =-0.4921-0.4921 0.0000 (   800 PWs)   bands (ev):

     8.1336   9.4900   9.4900   9.5497  13.6441  13.6551  13.6739  13.7298
    14.0950  14.0950  15.9835  15.9835  20.3981  22.6941  26.6498

          k =-0.4921-0.4921 0.1950 (   808 PWs)   bands (ev):

     8.4126   9.5150   9.5150  10.3208  12.7748  12.7748  13.3338  13.4573
    13.6751  13.7337  18.2897  18.2897  20.6175  22.0435  25.6615

          k =-0.4921-0.4921-0.3900 (   816 PWs)   bands (ev):

     8.7320   9.5496   9.5496  11.7806  12.0677  12.0677  12.3619  13.2204
    13.6764  13.7376  21.1900  21.1900  21.4051  21.4642  22.4726

     the Fermi energy is    15.3781 ev

!    total energy              =    -154.72237141 Ry
     estimated scf accuracy    <          9.3E-10 Ry
     smearing contrib. (-TS)   =       0.00031507 Ry
     internal energy E=F+TS    =    -154.72268649 Ry

     The total energy is F=E-TS. E is the sum of the following terms:
     one-electron contribution =      -4.53857022 Ry
     hartree contribution      =      27.77811578 Ry
     xc contribution           =     -24.53344411 Ry
     ewald contribution        =    -153.42878794 Ry

     total magnetization       =     0.00 Bohr mag/cell
     absolute magnetization    =     0.00 Bohr mag/cell

     convergence has been achieved in   8 iterations

     Forces acting on atoms (cartesian axes, Ry/au):

     atom    1 type  2   force =     0.00000000    0.00000000    0.00000000
     atom    2 type  1   force =     0.00000000    0.00000000    0.00000000
     The non-local contrib.  to forces
     atom    1 type  2   force =     0.00000000    0.00000000    0.00000000
     atom    2 type  1   force =     0.00000000    0.00000000    0.00000000
     The ionic contribution  to forces
     atom    1 type  2   force =     0.00000000    0.00000000   -0.00000000
     atom    2 type  1   force =    -0.00000000   -0.00000000   -0.00000000
     The local contribution  to forces
     atom    1 type  2   force =     0.00000000    0.00000000   -0.00000000
     atom    2 type  1   force =     0.00000000   -0.00000000   -0.00000000
     The core correction contribution to forces
     atom    1 type  2   force =     0.00000000    0.00000000    0.00000000
     atom    2 type  1   force =     0.00000000    0.00000000    0.00000000
     The Hubbard contrib.    to forces
     atom    1 type  2   force =     0.00000000    0.00000000    0.00000000
     atom    2 type  1   force =     0.00000000    0.00000000    0.00000000
     The SCF correction term to forces
     atom    1 type  2   force =    -0.00000000    0.00000000   -0.00000000
     atom    2 type  1   force =     0.00000000    0.00000000   -0.00000000

     Total force =     0.000000     Total SCF correction =     0.000000


     Computing stress (Cartesian axis) and pressure

          total   stress  (Ry/bohr**3)                   (kbar)     P=      -10.86
  -0.00005267   0.00000000   0.00000000           -7.75        0.00        0.00
   0.00000000  -0.00005267   0.00000000            0.00       -7.75        0.00
   0.00000000   0.00000000  -0.00011619            0.00        0.00      -17.09

     Energy error            =      2.9E-04 Ry
     Gradient error          =      0.0E+00 Ry/Bohr
     Cell gradient error     =      1.7E+01 kbar

     number of scf cycles    =   4
     number of bfgs steps    =   3

     enthalpy           old  =    -154.7220811729 Ry
     enthalpy           new  =    -154.7223714141 Ry

     CASE: enthalpy          _new < enthalpy          _old

     new trust radius        =       0.0172025133 bohr
     new conv_thr            =       0.0000000010 Ry

     new unit-cell volume =    188.45775 a.u.^3 (    27.92656 Ang^3 )
     density =     15.49032 g/cm^3

CELL_PARAMETERS (angstrom)
   2.814961689   0.000000000   0.000000000
   0.000000000   2.814961689   0.000000000
   0.000000000   0.000000000   3.524296295

ATOMIC_POSITIONS (angstrom)
Cu            0.0000000000        0.0000000000        0.0000000000
Au            1.4074808444        1.4074808444        1.7621481475



     Writing config-only to output data dir /home/gridsan/epan1/labutil/lab3_samples/problem3/Lab3/CuAu_a_2.766_c_3.623_ecut_40_nk_4/pwscf.save/
     NEW-OLD atomic charge density approx. for the potential
     extrapolated charge   21.93145, renormalised to   22.00000
     Generating pointlists ...

     total cpu time spent up to now is       15.6 secs

     Self-consistent Calculation

     iteration #  1     ecut=    40.00 Ry     beta= 0.50
     Davidson diagonalization with overlap
     ethr =  1.00E-06,  avg # of iterations =  3.4

     total cpu time spent up to now is       16.1 secs

     total energy              =    -154.72107560 Ry
     estimated scf accuracy    <       0.00132297 Ry

     total magnetization       =     0.00 Bohr mag/cell
     absolute magnetization    =     0.00 Bohr mag/cell

     iteration #  2     ecut=    40.00 Ry     beta= 0.50
     Davidson diagonalization with overlap
     ethr =  6.01E-06,  avg # of iterations =  2.2

     total cpu time spent up to now is       16.5 secs

     total energy              =    -154.72207356 Ry
     estimated scf accuracy    <       0.00544248 Ry

     total magnetization       =     0.00 Bohr mag/cell
     absolute magnetization    =     0.00 Bohr mag/cell

     iteration #  3     ecut=    40.00 Ry     beta= 0.50
     Davidson diagonalization with overlap
     ethr =  6.01E-06,  avg # of iterations =  2.0

     total cpu time spent up to now is       16.8 secs

     total energy              =    -154.72249206 Ry
     estimated scf accuracy    <       0.00044341 Ry

     total magnetization       =     0.00 Bohr mag/cell
     absolute magnetization    =     0.00 Bohr mag/cell

     iteration #  4     ecut=    40.00 Ry     beta= 0.50
     Davidson diagonalization with overlap
     ethr =  2.02E-06,  avg # of iterations =  1.0

     total cpu time spent up to now is       17.0 secs

     total energy              =    -154.72242360 Ry
     estimated scf accuracy    <       0.00023369 Ry

     total magnetization       =     0.00 Bohr mag/cell
     absolute magnetization    =     0.00 Bohr mag/cell

     iteration #  5     ecut=    40.00 Ry     beta= 0.50
     Davidson diagonalization with overlap
     ethr =  1.06E-06,  avg # of iterations =  1.4

     total cpu time spent up to now is       17.3 secs

     total energy              =    -154.72244040 Ry
     estimated scf accuracy    <       0.00001404 Ry

     total magnetization       =    -0.00 Bohr mag/cell
     absolute magnetization    =     0.00 Bohr mag/cell

     iteration #  6     ecut=    40.00 Ry     beta= 0.50
     Davidson diagonalization with overlap
     ethr =  6.38E-08,  avg # of iterations =  2.0

     total cpu time spent up to now is       17.6 secs

     total energy              =    -154.72244603 Ry
     estimated scf accuracy    <       0.00000363 Ry

     total magnetization       =    -0.00 Bohr mag/cell
     absolute magnetization    =     0.00 Bohr mag/cell

     iteration #  7     ecut=    40.00 Ry     beta= 0.50
     Davidson diagonalization with overlap
     ethr =  1.65E-08,  avg # of iterations =  1.0

     total cpu time spent up to now is       17.9 secs

     total energy              =    -154.72244457 Ry
     estimated scf accuracy    <       0.00000328 Ry

     total magnetization       =    -0.00 Bohr mag/cell
     absolute magnetization    =     0.00 Bohr mag/cell

     iteration #  8     ecut=    40.00 Ry     beta= 0.50
     Davidson diagonalization with overlap
     ethr =  1.49E-08,  avg # of iterations =  1.9

     total cpu time spent up to now is       18.2 secs

     total energy              =    -154.72244519 Ry
     estimated scf accuracy    <          1.9E-09 Ry

     total magnetization       =    -0.00 Bohr mag/cell
     absolute magnetization    =     0.00 Bohr mag/cell

     iteration #  9     ecut=    40.00 Ry     beta= 0.50
     Davidson diagonalization with overlap
     ethr =  8.68E-12,  avg # of iterations =  4.2

     total cpu time spent up to now is       18.7 secs

     total energy              =    -154.72244516 Ry
     estimated scf accuracy    <       0.00000014 Ry

     total magnetization       =    -0.00 Bohr mag/cell
     absolute magnetization    =     0.00 Bohr mag/cell

     iteration # 10     ecut=    40.00 Ry     beta= 0.50
     Davidson diagonalization with overlap
     ethr =  8.68E-12,  avg # of iterations =  3.2

     total cpu time spent up to now is       19.1 secs

     total energy              =    -154.72244518 Ry
     estimated scf accuracy    <          3.0E-09 Ry

     total magnetization       =    -0.00 Bohr mag/cell
     absolute magnetization    =     0.00 Bohr mag/cell

     iteration # 11     ecut=    40.00 Ry     beta= 0.50
     Davidson diagonalization with overlap
     ethr =  8.68E-12,  avg # of iterations =  2.0

     Magnetic moment per site  (integrated on atomic sphere of radius R)
     atom   1 (R=0.398)  charge= 10.0435  magn=  0.0000
     atom   2 (R=0.398)  charge=  8.8103  magn= -0.0000

     total cpu time spent up to now is       19.4 secs

     End of self-consistent calculation

 ------ SPIN UP ------------


          k = 0.0000 0.0000 0.0000 (   821 PWs)   bands (ev):

     5.4786   8.7302   8.8859  11.2817  11.2817  12.2770  12.6471  13.3520
    13.7730  14.0194  14.0194  18.4939  24.8707  25.5351  25.5351

          k = 0.0000 0.0000 0.1962 (   798 PWs)   bands (ev):

     6.2740   8.8978   9.2044  11.4298  11.4298  12.4167  12.4322  13.1572
    13.5300  13.5300  13.6015  15.1560  27.0831  27.0831  29.4419

          k = 0.0000 0.0000-0.3924 (   814 PWs)   bands (ev):

     7.4516   9.0896   9.7387  11.6584  11.6584  12.1037  12.1618  12.6559
    12.9953  12.9953  13.1774  13.3614  30.6008  30.6008  30.6805

          k = 0.0000 0.2457 0.0000 (   801 PWs)   bands (ev):

     6.8193   9.2404   9.7830  10.6565  11.6321  11.8018  12.6944  12.8964
    13.2674  13.3962  13.6918  19.8769  21.4445  25.3478  27.8075

          k = 0.0000 0.2457 0.1962 (   802 PWs)   bands (ev):

     7.4526   9.2755  10.1312  10.6764  11.3251  11.8699  12.6224  12.7137
    13.1732  13.2682  13.9368  17.4172  21.1203  27.6607  30.4169

          k = 0.0000 0.2457-0.3924 (   796 PWs)   bands (ev):

     8.3350   9.0532  10.2764  11.3649  11.4493  11.7494  12.0803  12.6666
    13.6920  13.7104  13.7475  13.9566  23.6812  24.2165  31.5955

          k = 0.0000-0.4913 0.0000 (   806 PWs)   bands (ev):

     8.5753  10.0076  10.0141  10.8526  11.2924  12.1866  12.3704  12.3800
    12.9305  13.1593  14.5465  15.2479  25.9876  26.2553  27.8933

          k = 0.0000-0.4913 0.1962 (   800 PWs)   bands (ev):

     8.6633   8.9140  10.6380  10.9870  11.5129  12.3878  12.5775  12.6717
    13.5765  13.6148  14.5766  15.1778  21.0310  22.5675  32.1669

          k = 0.0000-0.4913-0.3924 (   780 PWs)   bands (ev):

     8.3879   8.6592  10.7568  11.1335  11.5819  12.7522  13.5573  13.6472
    13.9221  14.0034  14.4914  14.5301  18.2928  20.5959  32.2538

          k = 0.2457 0.2457 0.0000 (   791 PWs)   bands (ev):

     7.9977   9.7658  10.3335  10.3650  10.7576  11.3327  12.9541  13.0697
    13.0982  13.4362  14.0925  20.8546  22.0378  23.3155  26.0524

          k = 0.2457 0.2457 0.1962 (   802 PWs)   bands (ev):

     8.6042  10.0809  10.3263  10.4093  10.5247  11.0388  13.0084  13.0732
    13.2004  13.6327  13.8962  18.9945  22.2772  22.8770  28.2050

          k = 0.2457 0.2457-0.3924 (   790 PWs)   bands (ev):

     9.3125   9.8188  10.3170  10.4584  10.7056  11.9323  12.1876  13.0833
    13.0884  13.2122  15.1274  15.9114  24.6620  24.8361  25.1334

          k = 0.2457-0.4913 0.0000 (   796 PWs)   bands (ev):

     9.0732   9.5505   9.7598  10.4011  10.8475  12.5969  13.3198  13.3651
    13.6660  13.7216  15.0746  15.5010  24.8265  26.1812  27.0852

          k = 0.2457-0.4913 0.1962 (   796 PWs)   bands (ev):

     9.0460   9.6848  10.1728  10.4372  10.7808  12.4197  12.8414  13.1101
    13.7452  13.7857  16.3132  16.4025  22.1155  22.9488  26.3841

          k = 0.2457-0.4913-0.3924 (   804 PWs)   bands (ev):

     8.9481   9.6558  10.3295  10.3346  11.9536  12.2821  12.4825  13.0694
    13.5097  13.6304  17.9664  17.9805  18.5636  20.6575  26.9525

          k =-0.4913-0.4913 0.0000 (   800 PWs)   bands (ev):

     8.1845   9.5525   9.5525   9.5784  13.6965  13.7047  13.7215  13.7678
    14.1663  14.1663  15.9981  15.9981  20.4125  22.7391  26.8064

          k =-0.4913-0.4913 0.1962 (   808 PWs)   bands (ev):

     8.4700   9.5689   9.5689  10.3640  12.8212  12.8212  13.3947  13.5152
    13.7228  13.7721  18.3448  18.3448  20.6329  22.0965  25.7782

          k =-0.4913-0.4913-0.3924 (   816 PWs)   bands (ev):

     8.7973   9.5930   9.5930  11.8346  12.1140  12.1140  12.4436  13.2828
    13.7242  13.7764  21.2670  21.2670  21.4538  21.5000  22.5114

 ------ SPIN DOWN ----------


          k = 0.0000 0.0000 0.0000 (   821 PWs)   bands (ev):

     5.4786   8.7302   8.8859  11.2817  11.2817  12.2770  12.6471  13.3520
    13.7730  14.0194  14.0194  18.4939  24.8707  25.5351  25.5351

          k = 0.0000 0.0000 0.1962 (   798 PWs)   bands (ev):

     6.2740   8.8978   9.2044  11.4298  11.4298  12.4167  12.4322  13.1572
    13.5300  13.5300  13.6015  15.1560  27.0831  27.0831  29.4419

          k = 0.0000 0.0000-0.3924 (   814 PWs)   bands (ev):

     7.4516   9.0896   9.7387  11.6584  11.6584  12.1037  12.1618  12.6559
    12.9953  12.9953  13.1774  13.3614  30.6008  30.6008  30.6805

          k = 0.0000 0.2457 0.0000 (   801 PWs)   bands (ev):

     6.8193   9.2404   9.7830  10.6565  11.6321  11.8018  12.6944  12.8964
    13.2674  13.3962  13.6918  19.8769  21.4445  25.3478  27.8075

          k = 0.0000 0.2457 0.1962 (   802 PWs)   bands (ev):

     7.4526   9.2755  10.1312  10.6764  11.3251  11.8699  12.6224  12.7137
    13.1732  13.2682  13.9368  17.4172  21.1203  27.6607  30.4170

          k = 0.0000 0.2457-0.3924 (   796 PWs)   bands (ev):

     8.3350   9.0532  10.2764  11.3649  11.4493  11.7494  12.0803  12.6666
    13.6920  13.7104  13.7475  13.9566  23.6812  24.2165  31.5955

          k = 0.0000-0.4913 0.0000 (   806 PWs)   bands (ev):

     8.5753  10.0076  10.0141  10.8526  11.2924  12.1866  12.3704  12.3800
    12.9305  13.1593  14.5465  15.2479  25.9876  26.2553  27.8933

          k = 0.0000-0.4913 0.1962 (   800 PWs)   bands (ev):

     8.6633   8.9140  10.6380  10.9870  11.5129  12.3878  12.5775  12.6717
    13.5765  13.6148  14.5766  15.1778  21.0310  22.5675  32.1669

          k = 0.0000-0.4913-0.3924 (   780 PWs)   bands (ev):

     8.3879   8.6592  10.7568  11.1335  11.5819  12.7522  13.5573  13.6472
    13.9221  14.0034  14.4914  14.5301  18.2928  20.5959  32.2539

          k = 0.2457 0.2457 0.0000 (   791 PWs)   bands (ev):

     7.9977   9.7658  10.3335  10.3650  10.7576  11.3327  12.9541  13.0697
    13.0982  13.4362  14.0925  20.8546  22.0378  23.3155  26.0524

          k = 0.2457 0.2457 0.1962 (   802 PWs)   bands (ev):

     8.6042  10.0809  10.3263  10.4093  10.5247  11.0388  13.0084  13.0732
    13.2004  13.6327  13.8962  18.9945  22.2772  22.8770  28.2050

          k = 0.2457 0.2457-0.3924 (   790 PWs)   bands (ev):

     9.3125   9.8188  10.3170  10.4584  10.7056  11.9323  12.1876  13.0833
    13.0884  13.2122  15.1274  15.9114  24.6620  24.8361  25.1334

          k = 0.2457-0.4913 0.0000 (   796 PWs)   bands (ev):

     9.0732   9.5505   9.7598  10.4011  10.8475  12.5969  13.3198  13.3651
    13.6660  13.7216  15.0746  15.5010  24.8265  26.1812  27.0852

          k = 0.2457-0.4913 0.1962 (   796 PWs)   bands (ev):

     9.0460   9.6848  10.1728  10.4372  10.7808  12.4197  12.8414  13.1101
    13.7452  13.7857  16.3132  16.4025  22.1155  22.9488  26.3841

          k = 0.2457-0.4913-0.3924 (   804 PWs)   bands (ev):

     8.9481   9.6558  10.3295  10.3346  11.9536  12.2821  12.4825  13.0694
    13.5097  13.6304  17.9664  17.9805  18.5636  20.6575  26.9525

          k =-0.4913-0.4913 0.0000 (   800 PWs)   bands (ev):

     8.1845   9.5525   9.5525   9.5784  13.6965  13.7047  13.7215  13.7678
    14.1663  14.1663  15.9981  15.9981  20.4125  22.7391  26.8064

          k =-0.4913-0.4913 0.1962 (   808 PWs)   bands (ev):

     8.4700   9.5689   9.5689  10.3640  12.8212  12.8212  13.3947  13.5152
    13.7228  13.7721  18.3448  18.3448  20.6329  22.0965  25.7782

          k =-0.4913-0.4913-0.3924 (   816 PWs)   bands (ev):

     8.7973   9.5930   9.5930  11.8346  12.1140  12.1140  12.4436  13.2828
    13.7242  13.7764  21.2670  21.2670  21.4538  21.5000  22.5114

     the Fermi energy is    15.4094 ev

!    total energy              =    -154.72244518 Ry
     estimated scf accuracy    <          1.7E-11 Ry
     smearing contrib. (-TS)   =       0.00022978 Ry
     internal energy E=F+TS    =    -154.72267495 Ry

     The total energy is F=E-TS. E is the sum of the following terms:
     one-electron contribution =      -4.30737642 Ry
     hartree contribution      =      27.70956199 Ry
     xc contribution           =     -24.53760787 Ry
     ewald contribution        =    -153.58725265 Ry

     total magnetization       =    -0.00 Bohr mag/cell
     absolute magnetization    =     0.00 Bohr mag/cell

     convergence has been achieved in  11 iterations

     Forces acting on atoms (cartesian axes, Ry/au):

[...]
     Q(r) pseudized with 0 coefficients 


     atomic species   valence    mass     pseudopotential
        Au            11.00   196.96657     Au( 1.00)
        Cu            11.00    63.54600     Cu( 1.00)

     Starting magnetic structure 
     atomic species   magnetization
        Au          -0.000
        Cu          -0.000

     16 Sym. Ops., with inversion, found



   Cartesian axes

     site n.     atom                  positions (alat units)
         1           Cu  tau(   1) = (   0.0000000   0.0000000   0.0000000  )
         2           Au  tau(   2) = (   0.5458054   0.5458054   0.5461468  )

     number of k points=    18  Methfessel-Paxton smearing, width (Ry)=  0.0200
                       cart. coord. in units 2pi/alat
        k(    1) = (   0.0000000   0.0000000   0.0000000), wk =   0.0156250
        k(    2) = (   0.0000000   0.0000000   0.2288762), wk =   0.0312500
        k(    3) = (   0.0000000   0.0000000  -0.4577524), wk =   0.0156250
        k(    4) = (   0.0000000   0.2290194   0.0000000), wk =   0.0625000
        k(    5) = (   0.0000000   0.2290194   0.2288762), wk =   0.1250000
        k(    6) = (   0.0000000   0.2290194  -0.4577524), wk =   0.0625000
        k(    7) = (   0.0000000  -0.4580387   0.0000000), wk =   0.0312500
        k(    8) = (   0.0000000  -0.4580387   0.2288762), wk =   0.0625000
        k(    9) = (   0.0000000  -0.4580387  -0.4577524), wk =   0.0312500
        k(   10) = (   0.2290194   0.2290194   0.0000000), wk =   0.0625000
        k(   11) = (   0.2290194   0.2290194   0.2288762), wk =   0.1250000
        k(   12) = (   0.2290194   0.2290194  -0.4577524), wk =   0.0625000
        k(   13) = (   0.2290194  -0.4580387   0.0000000), wk =   0.0625000
        k(   14) = (   0.2290194  -0.4580387   0.2288762), wk =   0.1250000
        k(   15) = (   0.2290194  -0.4580387  -0.4577524), wk =   0.0625000
        k(   16) = (  -0.4580387  -0.4580387   0.0000000), wk =   0.0156250
        k(   17) = (  -0.4580387  -0.4580387   0.2288762), wk =   0.0312500
        k(   18) = (  -0.4580387  -0.4580387  -0.4577524), wk =   0.0156250

     Dense  grid:    17885 G-vectors     FFT dimensions: (  36,  36,  36)

     Smooth grid:     6379 G-vectors     FFT dimensions: (  24,  24,  24)

     Estimated max dynamical RAM per process >       9.09 MB

     Estimated total dynamical RAM >      72.73 MB
     Generating pointlists ...

     Initial potential from superposition of free atoms

     starting charge      21.9996, renormalised to      22.0000
     Starting wfcs are   15 randomized atomic wfcs

     total cpu time spent up to now is       88.9 secs

     Self-consistent Calculation

     iteration #  1     ecut=    40.00 Ry     beta= 0.50
     Davidson diagonalization with overlap
     c_bands:  1 eigenvalues not converged
     c_bands:  1 eigenvalues not converged
     c_bands:  1 eigenvalues not converged
     c_bands:  1 eigenvalues not converged
     c_bands:  1 eigenvalues not converged
     ethr =  1.00E-06,  avg # of iterations = 14.2

     total cpu time spent up to now is       89.7 secs

     total energy              =    -154.64075009 Ry
     estimated scf accuracy    <       0.29853829 Ry

     total magnetization       =    -0.00 Bohr mag/cell
     absolute magnetization    =     0.00 Bohr mag/cell

     iteration #  2     ecut=    40.00 Ry     beta= 0.50
     Davidson diagonalization with overlap
     ethr =  1.36E-03,  avg # of iterations =  2.0

     total cpu time spent up to now is       90.0 secs

     total energy              =    -154.71118119 Ry
     estimated scf accuracy    <       0.07420990 Ry

     total magnetization       =    -0.00 Bohr mag/cell
     absolute magnetization    =     0.00 Bohr mag/cell

     iteration #  3     ecut=    40.00 Ry     beta= 0.50
     Davidson diagonalization with overlap
     ethr =  3.37E-04,  avg # of iterations =  2.0
     Minimization algorithm failed to find Fermi energy: reverting to bisection
     Possible cause: smearing is larger than the electronic band-gap.

     total cpu time spent up to now is       90.3 secs

     total energy              =    -154.72850473 Ry
     estimated scf accuracy    <       0.01104601 Ry

     total magnetization       =    -0.00 Bohr mag/cell
     absolute magnetization    =     0.00 Bohr mag/cell

     iteration #  4     ecut=    40.00 Ry     beta= 0.50
     Davidson diagonalization with overlap
     ethr =  5.02E-05,  avg # of iterations =  1.6
     Minimization algorithm failed to find Fermi energy: reverting to bisection
     Possible cause: smearing is larger than the electronic band-gap.

     total cpu time spent up to now is       90.6 secs

     total energy              =    -154.73055451 Ry
     estimated scf accuracy    <       0.00021637 Ry

     total magnetization       =    -0.00 Bohr mag/cell
     absolute magnetization    =     0.00 Bohr mag/cell

     iteration #  5     ecut=    40.00 Ry     beta= 0.50
     Davidson diagonalization with overlap
     ethr =  9.84E-07,  avg # of iterations =  2.6
     Minimization algorithm failed to find Fermi energy: reverting to bisection
     Possible cause: smearing is larger than the electronic band-gap.

     total cpu time spent up to now is       90.9 secs

     total energy              =    -154.73059921 Ry
     estimated scf accuracy    <       0.00006261 Ry

     total magnetization       =    -0.00 Bohr mag/cell
     absolute magnetization    =     0.00 Bohr mag/cell

     iteration #  6     ecut=    40.00 Ry     beta= 0.50
     Davidson diagonalization with overlap
     ethr =  2.85E-07,  avg # of iterations =  1.5
     Minimization algorithm failed to find Fermi energy: reverting to bisection
     Possible cause: smearing is larger than the electronic band-gap.

     total cpu time spent up to now is       91.2 secs

     total energy              =    -154.73060864 Ry
     estimated scf accuracy    <       0.00000023 Ry

     total magnetization       =     0.00 Bohr mag/cell
     absolute magnetization    =     0.00 Bohr mag/cell

     iteration #  7     ecut=    40.00 Ry     beta= 0.50
     Davidson diagonalization with overlap
     ethr =  1.07E-09,  avg # of iterations =  2.7
     Minimization algorithm failed to find Fermi energy: reverting to bisection
     Possible cause: smearing is larger than the electronic band-gap.

     total cpu time spent up to now is       91.5 secs

     total energy              =    -154.73060884 Ry
     estimated scf accuracy    <       0.00000013 Ry

     total magnetization       =     0.00 Bohr mag/cell
     absolute magnetization    =     0.00 Bohr mag/cell

     iteration #  8     ecut=    40.00 Ry     beta= 0.50
     Davidson diagonalization with overlap
     ethr =  5.91E-10,  avg # of iterations =  1.0
     Minimization algorithm failed to find Fermi energy: reverting to bisection
     Possible cause: smearing is larger than the electronic band-gap.

     total cpu time spent up to now is       91.7 secs

     total energy              =    -154.73060884 Ry
     estimated scf accuracy    <       0.00000002 Ry

     total magnetization       =     0.00 Bohr mag/cell
     absolute magnetization    =     0.00 Bohr mag/cell

     iteration #  9     ecut=    40.00 Ry     beta= 0.50
     Davidson diagonalization with overlap
     ethr =  7.99E-11,  avg # of iterations =  1.6

     Magnetic moment per site  (integrated on atomic sphere of radius R)
     atom   1 (R=0.387)  charge=  9.9212  magn= -0.0000
     atom   2 (R=0.387)  charge=  8.5911  magn=  0.0000

     total cpu time spent up to now is       92.2 secs

     End of self-consistent calculation

 ------ SPIN UP ------------


          k = 0.0000 0.0000 0.0000 (   775 PWs)   bands (ev):

     5.6910   9.1851   9.1857  11.5977  11.5977  11.6013  13.3403  13.3434
    14.0991  14.1000  14.1000  23.1200  23.1413  23.1413  28.5928

          k = 0.0000 0.0000 0.2289 (   799 PWs)   bands (ev):

     6.8496   9.5696   9.8160  11.4580  11.4580  11.9207  12.9376  13.3652
    13.3652  13.4956  13.7583  18.4096  25.3700  25.3700  29.6653

          k = 0.0000 0.0000-0.4578 (   804 PWs)   bands (ev):

     8.5563  10.0926  10.6288  11.2997  11.2997  12.3919  12.4730  12.8066
    12.8066  13.1842  14.0881  14.3654  29.5053  29.8099  29.8099

          k = 0.0000 0.2290 0.0000 (   799 PWs)   bands (ev):

     6.8513   9.5710   9.8176  11.4557  11.4596  11.9177  12.9395  13.3633
    13.3640  13.4955  13.7586  18.4239  25.3527  25.3723  29.6532

          k = 0.0000 0.2290 0.2289 (   784 PWs)   bands (ev):

     7.8317   9.7506  10.4594  11.0400  11.2038  11.7317  12.9773  13.1147
    13.1535  13.3920  14.2157  19.4374  20.7330  27.0023  28.5772

          k = 0.0000 0.2290-0.4578 (   802 PWs)   bands (ev):

     9.1097   9.2984  10.8422  10.9373  11.1634  12.4545  12.9783  13.0838
    13.8227  13.9015  14.5015  14.6910  23.3254  24.5145  30.6214

          k = 0.0000-0.4580 0.0000 (   804 PWs)   bands (ev):

     8.5601  10.0955  10.6321  11.2944  11.2985  12.3928  12.4712  12.8047
    12.8063  13.1835  14.0923  14.3752  29.5003  29.7958  29.8164

          k = 0.0000-0.4580 0.2289 (   802 PWs)   bands (ev):

     9.1107   9.2980  10.8410  10.9389  11.1636  12.4554  12.9794  13.0836
    13.8221  13.9012  14.5035  14.6972  23.3172  24.5096  30.4716

          k = 0.0000-0.4580-0.4578 (   784 PWs)   bands (ev):

     8.6011   9.1957  10.5228  10.5240  13.1176  13.3224  13.3461  13.5178
    14.3333  14.3337  15.0882  15.0884  18.8846  21.7000  30.1808

          k = 0.2290 0.2290 0.0000 (   784 PWs)   bands (ev):

     7.8334   9.7523  10.4600  11.0368  11.2057  11.7282  12.9782  13.1140
    13.1561  13.3914  14.2162  19.4443  20.7402  26.9850  28.5816

          k = 0.2290 0.2290 0.2289 (   784 PWs)   bands (ev):

     8.7857  10.4422  10.4427  10.8419  10.8436  10.8457  13.3176  13.3182
    13.5528  13.5547  14.0006  21.4752  21.4822  21.4977  28.9968

          k = 0.2290 0.2290-0.4578 (   792 PWs)   bands (ev):

     9.3937  10.1968  10.3384  10.6016  10.8754  12.3322  13.1200  13.2743
    13.4908  13.5686  16.0162  16.4705  23.9428  24.2642  25.3574

          k = 0.2290-0.4580 0.0000 (   802 PWs)   bands (ev):

     9.1134   9.2984  10.8371  10.9393  11.1600  12.4559  12.9814  13.0860
    13.8224  13.9015  14.5053  14.6983  23.3297  24.5202  30.6082

          k = 0.2290-0.4580 0.2289 (   792 PWs)   bands (ev):

     9.3927  10.1951  10.3388  10.6018  10.8764  12.3328  13.1193  13.2739
    13.4962  13.5708  16.0202  16.4716  23.9387  24.2624  25.3551

          k = 0.2290-0.4580-0.4578 (   788 PWs)   bands (ev):

     9.0778  10.0840  10.0860  10.4600  12.5950  12.5955  13.2479  13.3535
    13.4479  13.5274  18.3354  18.3355  19.1316  21.4902  26.5405

          k =-0.4580-0.4580 0.0000 (   784 PWs)   bands (ev):

     8.6005   9.1987  10.5190  10.5190  13.1220  13.3254  13.3487  13.5187
    14.3340  14.3340  15.0926  15.0926  18.8915  21.7062  30.1644

          k =-0.4580-0.4580 0.2289 (   788 PWs)   bands (ev):

     9.0764  10.0835  10.0835  10.4600  12.5967  12.5967  13.2505  13.3563
    13.4490  13.5282  18.3362  18.3362  19.1384  21.4945  26.5372

          k =-0.4580-0.4580-0.4578 (   840 PWs)   bands (ev):

     9.6246   9.6271   9.6271  12.0670  12.0679  12.0679  13.3838  13.3873
    13.5367  13.5378  21.0193  21.2524  21.8033  21.8033  21.8068

 ------ SPIN DOWN ----------


          k = 0.0000 0.0000 0.0000 (   775 PWs)   bands (ev):

     5.6910   9.1851   9.1857  11.5977  11.5977  11.6013  13.3403  13.3434
    14.0991  14.1000  14.1000  23.1200  23.1413  23.1413  28.5928

          k = 0.0000 0.0000 0.2289 (   799 PWs)   bands (ev):

     6.8496   9.5696   9.8160  11.4580  11.4580  11.9207  12.9376  13.3652
    13.3652  13.4956  13.7583  18.4096  25.3700  25.3700  29.6653

          k = 0.0000 0.0000-0.4578 (   804 PWs)   bands (ev):

     8.5563  10.0926  10.6288  11.2997  11.2997  12.3919  12.4730  12.8066
    12.8066  13.1842  14.0881  14.3654  29.5053  29.8099  29.8099

          k = 0.0000 0.2290 0.0000 (   799 PWs)   bands (ev):

     6.8513   9.5710   9.8176  11.4557  11.4596  11.9177  12.9395  13.3633
    13.3640  13.4955  13.7586  18.4239  25.3527  25.3723  29.6532

          k = 0.0000 0.2290 0.2289 (   784 PWs)   bands (ev):

     7.8317   9.7506  10.4594  11.0400  11.2038  11.7317  12.9773  13.1147
    13.1535  13.3920  14.2157  19.4374  20.7330  27.0023  28.5772

          k = 0.0000 0.2290-0.4578 (   802 PWs)   bands (ev):

     9.1097   9.2984  10.8422  10.9373  11.1634  12.4545  12.9783  13.0838
    13.8227  13.9015  14.5015  14.6910  23.3254  24.5145  30.6230

          k = 0.0000-0.4580 0.0000 (   804 PWs)   bands (ev):

     8.5601  10.0955  10.6321  11.2944  11.2985  12.3928  12.4712  12.8047
    12.8063  13.1835  14.0923  14.3752  29.5003  29.7958  29.8164

          k = 0.0000-0.4580 0.2289 (   802 PWs)   bands (ev):

     9.1107   9.2980  10.8410  10.9389  11.1636  12.4554  12.9794  13.0836
    13.8221  13.9012  14.5035  14.6972  23.3172  24.5096  30.6249

          k = 0.0000-0.4580-0.4578 (   784 PWs)   bands (ev):

     8.6011   9.1957  10.5228  10.5240  13.1176  13.3224  13.3461  13.5178
    14.3333  14.3337  15.0882  15.0884  18.8846  21.7000  30.1808

          k = 0.2290 0.2290 0.0000 (   784 PWs)   bands (ev):

     7.8334   9.7523  10.4600  11.0368  11.2057  11.7282  12.9782  13.1140
    13.1561  13.3914  14.2162  19.4443  20.7402  26.9850  28.5816

          k = 0.2290 0.2290 0.2289 (   784 PWs)   bands (ev):

     8.7857  10.4422  10.4427  10.8419  10.8436  10.8457  13.3176  13.3182
    13.5528  13.5547  14.0006  21.4752  21.4822  21.4977  28.9968

          k = 0.2290 0.2290-0.4578 (   792 PWs)   bands (ev):

     9.3937  10.1968  10.3384  10.6017  10.8754  12.3322  13.1200  13.2743
    13.4908  13.5686  16.0162  16.4705  23.9428  24.2642  25.3574

          k = 0.2290-0.4580 0.0000 (   802 PWs)   bands (ev):

     9.1134   9.2984  10.8371  10.9393  11.1600  12.4559  12.9814  13.0860
    13.8224  13.9015  14.5053  14.6983  23.3297  24.5202  30.4554

          k = 0.2290-0.4580 0.2289 (   792 PWs)   bands (ev):

     9.3927  10.1951  10.3388  10.6018  10.8764  12.3328  13.1193  13.2739
    13.4962  13.5708  16.0202  16.4716  23.9387  24.2624  25.3551

          k = 0.2290-0.4580-0.4578 (   788 PWs)   bands (ev):

     9.0778  10.0840  10.0860  10.4600  12.5950  12.5955  13.2479  13.3535
    13.4479  13.5274  18.3354  18.3355  19.1316  21.4902  26.5405

          k =-0.4580-0.4580 0.0000 (   784 PWs)   bands (ev):

     8.6005   9.1987  10.5190  10.5190  13.1220  13.3254  13.3487  13.5187
    14.3340  14.3340  15.0926  15.0926  18.8915  21.7062  30.1644

          k =-0.4580-0.4580 0.2289 (   788 PWs)   bands (ev):

     9.0764  10.0835  10.0835  10.4600  12.5967  12.5967  13.2505  13.3563
    13.4490  13.5282  18.3362  18.3362  19.1384  21.4945  26.5372

          k =-0.4580-0.4580-0.4578 (   840 PWs)   bands (ev):

     9.6246   9.6271   9.6271  12.0670  12.0679  12.0679  13.3838  13.3873
    13.5367  13.5378  21.0193  21.2524  21.8033  21.8033  21.8068

     the Fermi energy is    15.8595 ev

!    total energy              =    -154.73060884 Ry
     estimated scf accuracy    <          5.6E-10 Ry
     smearing contrib. (-TS)   =      -0.00017149 Ry
     internal energy E=F+TS    =    -154.73043736 Ry

     The total energy is F=E-TS. E is the sum of the following terms:
     one-electron contribution =      -3.16357327 Ry
     hartree contribution      =      27.28930868 Ry
     xc contribution           =     -24.53842445 Ry
     ewald contribution        =    -154.31774831 Ry

     total magnetization       =     0.00 Bohr mag/cell
     absolute magnetization    =     0.00 Bohr mag/cell

     convergence has been achieved in   9 iterations

     Forces acting on atoms (cartesian axes, Ry/au):

     atom    1 type  2   force =     0.00000000    0.00000000    0.00000000
     atom    2 type  1   force =     0.00000000    0.00000000    0.00000000
     The non-local contrib.  to forces
     atom    1 type  2   force =     0.00000000    0.00000000    0.00000000
     atom    2 type  1   force =     0.00000000    0.00000000    0.00000000
     The ionic contribution  to forces
     atom    1 type  2   force =     0.00000000    0.00000000   -0.00000000
     atom    2 type  1   force =     0.00000000    0.00000000    0.00000000
     The local contribution  to forces
     atom    1 type  2   force =     0.00000000    0.00000000    0.00000000
     atom    2 type  1   force =     0.00000000    0.00000000   -0.00000000
     The core correction contribution to forces
     atom    1 type  2   force =     0.00000000    0.00000000    0.00000000
     atom    2 type  1   force =     0.00000000    0.00000000    0.00000000
     The Hubbard contrib.    to forces
     atom    1 type  2   force =     0.00000000    0.00000000    0.00000000
     atom    2 type  1   force =     0.00000000    0.00000000    0.00000000
     The SCF correction term to forces
     atom    1 type  2   force =    -0.00000000    0.00000000   -0.00000000
     atom    2 type  1   force =     0.00000000   -0.00000000    0.00000000

     Total force =     0.000000     Total SCF correction =     0.000000


     Computing stress (Cartesian axis) and pressure

          total   stress  (Ry/bohr**3)                   (kbar)     P=       -0.44
  -0.00000246   0.00000000   0.00000000           -0.36        0.00        0.00
   0.00000000  -0.00000246   0.00000000            0.00       -0.36        0.00
   0.00000000   0.00000000  -0.00000412            0.00        0.00       -0.61


     init_run     :      0.97s CPU      1.05s WALL (       2 calls)
     electrons    :     84.18s CPU     76.09s WALL (      22 calls)
     update_pot   :      3.33s CPU      3.34s WALL (      19 calls)
     forces       :      3.50s CPU      2.90s WALL (      22 calls)
     stress       :      8.19s CPU      7.17s WALL (      22 calls)

     Called by init_run:
     wfcinit      :      0.14s CPU      0.16s WALL (       2 calls)
     potinit      :      0.28s CPU      0.30s WALL (       3 calls)
     hinit0       :      0.56s CPU      0.58s WALL (       2 calls)

     Called by electrons:
     c_bands      :     63.22s CPU     57.88s WALL (     224 calls)
     sum_band     :     16.28s CPU     14.01s WALL (     224 calls)
     v_of_rho     :      0.81s CPU      0.79s WALL (     245 calls)
     newd         :      2.70s CPU      2.26s WALL (     245 calls)
     mix_rho      :      0.51s CPU      0.46s WALL (     224 calls)

     Called by c_bands:
     init_us_2    :      1.13s CPU      0.97s WALL (   17784 calls)
     init_us_2:cp :      1.10s CPU      0.94s WALL (   17784 calls)
     cegterg      :     56.54s CPU     49.65s WALL (    8064 calls)

     Called by *egterg:
     cdiaghg      :     10.52s CPU      9.26s WALL (   24215 calls)
     h_psi        :     38.42s CPU     33.79s WALL (   25043 calls)
     s_psi        :      0.60s CPU      0.53s WALL (   25043 calls)
     g_psi        :      0.16s CPU      0.14s WALL (   16907 calls)

     Called by h_psi:
     h_psi:calbec :      2.44s CPU      2.15s WALL (   25043 calls)
     vloc_psi     :     35.05s CPU     30.80s WALL (   25043 calls)
     add_vuspsi   :      0.65s CPU      0.58s WALL (   25043 calls)

     General routines
     calbec       :      4.23s CPU      3.63s WALL (   37067 calls)
     fft          :      1.34s CPU      1.26s WALL (    2737 calls)
     ffts         :      0.24s CPU      0.23s WALL (     938 calls)
     fftw         :     38.82s CPU     34.00s WALL (  712614 calls)
     interpolate  :      0.37s CPU      0.36s WALL (     490 calls)

     Parallel routines

     PWSCF        :   1m41.36s CPU   1m32.67s WALL


   This run was terminated on:  14: 3:54   3Nov2023            

=------------------------------------------------------------------------------=
   JOB DONE.
=------------------------------------------------------------------------------=
