LAMMPS (29 Oct 2020)
Reading data file ...
  orthogonal box = (0.0000000 0.0000000 0.0000000) to (49.080000 49.080000 49.080000)
  1 by 1 by 1 MPI processor grid
  reading atoms ...
  6912 atoms
  read_data CPU = 0.005 seconds
Reading eam potential file /home/gridsan/epan1/3320_atomistic_shared/lammps/potentials/Ag_u3.eam with DATE: 2007-06-11
WARNING: Using 'neigh_modify every 1 delay 0 check yes' setting during minimization (../min.cpp:187)
Neighbor list info ...
  update every 1 steps, delay 0 steps, check yes
  max neighbors/atom: 2000, page size: 100000
  master list distance cutoff = 7.55
  ghost atom cutoff = 7.55
  binsize = 3.775, bins = 14 14 14
  1 neighbor lists, perpetual/occasional/extra = 1 0 0
  (1) pair eam, perpetual
      attributes: half, newton on
      pair build: half/bin/atomonly/newton
      stencil: half/bin/3d/newton
      bin: standard
Setting up cg style minimization ...
  Unit style    : metal
  Current step  : 0
WARNING: Energy due to 1 extra global DOFs will be included in minimizer energies
Per MPI rank memory allocation (min/avg/max) = 5.976 | 5.976 | 5.976 Mbytes
Step PotEng Lx Ly Lz Press Pxx Pyy Pzz 
       0     -19699.2        49.08        49.08        49.08 -0.058146225 -0.058146225 -0.058146225 -0.058146225 
       1     -19699.2    49.079999    49.079999    49.079999 0.00055419848 0.00055419849 0.00055419848 0.00055419847 
Loop time of 0.152706 on 1 procs for 1 steps with 6912 atoms

99.2% CPU use with 1 MPI tasks x no OpenMP threads

Minimization stats:
  Stopping criterion = energy tolerance
  Energy initial, next-to-last, final = 
     -19699.2000109457  -19699.2000109457  -19699.2000109473
  Force two-norm initial, final = 0.012872002 0.00012268455
  Force max component initial, final = 0.012872002 0.00012268455
  Final line search alpha, max atom move = 0.00030346873 3.7230925e-08
  Iterations, force evaluations = 1 18

MPI task timing breakdown:
Section |  min time  |  avg time  |  max time  |%varavg| %total
---------------------------------------------------------------
Pair    | 0.14757    | 0.14757    | 0.14757    |   0.0 | 96.64
Neigh   | 0          | 0          | 0          |   0.0 |  0.00
Comm    | 0.00060105 | 0.00060105 | 0.00060105 |   0.0 |  0.39
Output  | 0          | 0          | 0          |   0.0 |  0.00
Modify  | 0          | 0          | 0          |   0.0 |  0.00
Other   |            | 0.004532   |            |       |  2.97

Nlocal:        6912.00 ave        6912 max        6912 min
Histogram: 1 0 0 0 0 0 0 0 0 0
Nghost:        7983.00 ave        7983 max        7983 min
Histogram: 1 0 0 0 0 0 0 0 0 0
Neighs:       297216.0 ave      297216 max      297216 min
Histogram: 1 0 0 0 0 0 0 0 0 0

Total # of neighbors = 297216
Ave neighs/atom = 43.000000
Neighbor list builds = 0
Dangerous builds = 0
Total energy (eV) = -19699.2000109473
Number of atoms = 6912
Lattice constant (Angstoms) = 49.0799990742848
Total wall time: 0:00:00
