Header of the LAMMPS data file 

8 atoms 
1 atom types

0.0 5.83929  xlo xhi
0.0 5.83929  ylo yhi
0.0 22.0645  zlo zhi

Masses 

1  107.8682

Atoms # atomic 

1 1 1.45982 1.45982 10.00007 
2 1 4.37947 1.45982 10.00007 
3 1 1.45982 4.37947 10.00007 
4 1 4.37947 4.37947 10.00007 
5 1 0.00000 0.00000 12.06443 
6 1 2.91965 0.00000 12.06443 
7 1 0.00000 2.91965 12.06443 
8 1 2.91965 2.91965 12.06443 
