LAMMPS (29 Oct 2020)
Reading data file ...
  orthogonal box = (0.0000000 0.0000000 0.0000000) to (5.8392900 5.8392900 22.064500)
  1 by 1 by 1 MPI processor grid
  reading atoms ...
  8 atoms
  read_data CPU = 0.000 seconds
WARNING: No fixes defined, atoms won't move (../verlet.cpp:54)
Neighbor list info ...
  update every 1 steps, delay 10 steps, check yes
  max neighbors/atom: 2000, page size: 100000
  master list distance cutoff = 6.5
  ghost atom cutoff = 6.5
  binsize = 3.25, bins = 2 2 7
  1 neighbor lists, perpetual/occasional/extra = 1 0 0
  (1) pair lj/cut, perpetual
      attributes: half, newton on
      pair build: half/bin/atomonly/newton
      stencil: half/bin/3d/newton
      bin: standard
Setting up Verlet run ...
  Unit style    : metal
  Current step  : 0
  Time step     : 0.001
Per MPI rank memory allocation (min/avg/max) = 3.075 | 3.075 | 3.075 Mbytes
Step PotEng Lx Ly Lz Press Pxx Pyy Pzz 
       0   -12.366375      5.83929      5.83929      22.0645    79.413839   -1933.3528   -1933.3528    4104.9471 
Loop time of 0 on 1 procs for 0 steps with 8 atoms

0.0% CPU use with 1 MPI tasks x no OpenMP threads

MPI task timing breakdown:
Section |  min time  |  avg time  |  max time  |%varavg| %total
---------------------------------------------------------------
Pair    | 0          | 0          | 0          |   0.0 |  0.00
Neigh   | 0          | 0          | 0          |   0.0 |  0.00
Comm    | 0          | 0          | 0          |   0.0 |  0.00
Output  | 0          | 0          | 0          |   0.0 |  0.00
Modify  | 0          | 0          | 0          |   0.0 |  0.00
Other   |            | 0          |            |       |  0.00

Nlocal:        8.00000 ave           8 max           8 min
Histogram: 1 0 0 0 0 0 0 0 0 0
Nghost:        77.0000 ave          77 max          77 min
Histogram: 1 0 0 0 0 0 0 0 0 0
Neighs:        96.0000 ave          96 max          96 min
Histogram: 1 0 0 0 0 0 0 0 0 0

Total # of neighbors = 96
Ave neighs/atom = 12.000000
Neighbor list builds = 0
Dangerous builds = 0
Total energy (eV) = -12.3663752786902
Number of atoms = 8
Lattice constant (Angstoms) = 5.83929
Total wall time: 0:00:00
