
     Program PWSCF v.7.2 starts on 14Oct2023 at 15:41:11 

     This program is part of the open-source Quantum ESPRESSO suite
     for quantum simulation of materials; please cite
         "P. Giannozzi et al., J. Phys.:Condens. Matter 21 395502 (2009);
         "P. Giannozzi et al., J. Phys.:Condens. Matter 29 465901 (2017);
         "P. Giannozzi et al., J. Chem. Phys. 152 154105 (2020);
          URL http://www.quantum-espresso.org", 
     in publications or presentations arising from this work. More details at
     http://www.quantum-espresso.org/quote

     Parallel version (MPI), running on     1 processors

     MPI processes distributed on     1 nodes
     43177 MiB available memory on the printing compute node when the environment starts

     Waiting for input...
     Reading input from standard input
Warning: card &CELL ignored
Warning: card / ignored

     Current dimensions of program PWSCF are:
     Max number of different atomic species (ntypx) = 10
     Max number of k-points (npk) =  40000
     Max angular momentum in pseudopotentials (lmaxx) =  4
     file Ge.pz-dn-rrkjus_psl.0.2.2.UPF: wavefunction(s)  3D renormalized
     Message from routine find_sym:
     Not a group! Trying with lower acceptance parameter...
     Message from routine find_sym:
     Still not a group! symmetry disabled

     Subspace diagonalization in iterative solution of the eigenvalue problem:
     a serial algorithm will be used


     G-vector sticks info
     --------------------
     sticks:   dense  smooth     PW     G-vecs:    dense   smooth      PW
     Sum         421     421    127                 5769     5769     965

     Using Slab Decomposition



     bravais-lattice index     =            0
     lattice parameter (alat)  =       7.1418  a.u.
     unit-cell volume          =     257.5749 (a.u.)^3
     number of atoms/cell      =            2
     number of atomic types    =            1
     number of electrons       =        28.00
     number of Kohn-Sham states=           14
     kinetic-energy cutoff     =      30.0000  Ry
     charge density cutoff     =     120.0000  Ry
     scf convergence threshold =      1.0E-07
     mixing beta               =       0.5000
     number of iterations used =            8  plain     mixing
     Exchange-correlation= LDA
                           (   1   1   0   0   0   0   0)

     celldm(1)=   7.141776  celldm(2)=   0.000000  celldm(3)=   0.000000
     celldm(4)=   0.000000  celldm(5)=   0.000000  celldm(6)=   0.000000

     crystal axes: (cart. coord. in units of alat)
               a(1) = (   0.000000   0.707107   0.707107 )  
               a(2) = (   0.707107   0.000000   0.707107 )  
               a(3) = (   0.707107   0.707107   0.000000 )  

     reciprocal axes: (cart. coord. in units 2 pi/alat)
               b(1) = ( -0.707107  0.707107  0.707107 )  
               b(2) = (  0.707107 -0.707107  0.707107 )  
               b(3) = (  0.707107  0.707107 -0.707107 )  


     PseudoPot. # 1 for Ge read from file:
     ../Ge.pz-dn-rrkjus_psl.0.2.2.UPF
     MD5 check sum: 9948ad5293734715c8cf6021b6c26e6d
     Pseudo is Ultrasoft + core correction, Zval = 14.0
     Generated using "atomic" code by A. Dal Corso  v.5.0.2 svn rev. 9415
     Using radial grid of 1207 points,  6 beta functions with: 
                l(1) =   0
                l(2) =   0
                l(3) =   1
                l(4) =   1
                l(5) =   2
                l(6) =   2
     Q(r) pseudized with 0 coefficients 


     atomic species   valence    mass     pseudopotential
        Ge            14.00    72.63000     Ge( 1.00)

     No symmetry found



   Cartesian axes

     site n.     atom                  positions (alat units)
         1           Ge  tau(   1) = (   0.0000000   0.0000000   0.0000000  )
         2           Ge  tau(   2) = (   0.3535529   0.3535529   0.3535529  )

     number of k points=    36
                       cart. coord. in units 2pi/alat
        k(    1) = (   0.0000000   0.0000000   0.0000000), wk =   0.0312500
        k(    2) = (   0.1767767   0.1767767  -0.1767767), wk =   0.0625000
        k(    3) = (  -0.3535534  -0.3535534   0.3535534), wk =   0.0312500
        k(    4) = (   0.3535534   0.0000000   0.0000000), wk =   0.0625000
        k(    5) = (  -0.1767767  -0.5303301   0.5303301), wk =   0.0625000
        k(    6) = (   0.0000000  -0.3535534   0.3535534), wk =   0.0625000
        k(    7) = (  -0.7071068   0.0000000   0.0000000), wk =   0.0312500
        k(    8) = (  -0.7071068   0.3535534   0.0000000), wk =   0.0625000
        k(    9) = (  -0.1767767  -0.1767767  -0.1767767), wk =   0.0625000
        k(   10) = (  -0.1767767   0.1767767   0.1767767), wk =   0.0625000
        k(   11) = (   0.1767767  -0.1767767   0.1767767), wk =   0.0625000
        k(   12) = (   0.3535534   0.3535534   0.3535534), wk =   0.0312500
        k(   13) = (   0.3535534  -0.3535534  -0.3535534), wk =   0.0312500
        k(   14) = (  -0.3535534   0.3535534  -0.3535534), wk =   0.0312500
        k(   15) = (   0.0000000  -0.3535534   0.0000000), wk =   0.0625000
        k(   16) = (   0.0000000   0.0000000  -0.3535534), wk =   0.0625000
        k(   17) = (   0.1767767   0.5303301   0.5303301), wk =   0.0625000
        k(   18) = (   0.1767767  -0.5303301  -0.5303301), wk =   0.0625000
        k(   19) = (  -0.1767767   0.5303301  -0.5303301), wk =   0.0625000
        k(   20) = (   0.5303301   0.1767767  -0.5303301), wk =   0.0625000
        k(   21) = (  -0.5303301   0.5303301   0.1767767), wk =   0.0625000
        k(   22) = (  -0.5303301   0.5303301  -0.1767767), wk =   0.0625000
        k(   23) = (   0.5303301   0.5303301   0.1767767), wk =   0.0625000
        k(   24) = (  -0.5303301  -0.5303301   0.1767767), wk =   0.0625000
        k(   25) = (   0.5303301  -0.1767767  -0.5303301), wk =   0.0625000
        k(   26) = (   0.5303301   0.1767767   0.5303301), wk =   0.0625000
        k(   27) = (  -0.5303301   0.1767767  -0.5303301), wk =   0.0625000
        k(   28) = (   0.0000000   0.3535534   0.3535534), wk =   0.0625000
        k(   29) = (   0.3535534   0.0000000  -0.3535534), wk =   0.0625000
        k(   30) = (  -0.3535534   0.3535534   0.0000000), wk =   0.0625000
        k(   31) = (   0.3535534   0.3535534   0.0000000), wk =   0.0625000
        k(   32) = (   0.3535534   0.0000000   0.3535534), wk =   0.0625000
        k(   33) = (   0.0000000   0.7071068   0.0000000), wk =   0.0312500
        k(   34) = (   0.0000000   0.0000000   0.7071068), wk =   0.0312500
        k(   35) = (  -0.3535534   0.7071068   0.0000000), wk =   0.0625000
        k(   36) = (   0.7071068   0.0000000  -0.3535534), wk =   0.0625000

     Dense  grid:     5769 G-vectors     FFT dimensions: (  32,  32,  32)

     Estimated max dynamical RAM per process >      29.27 MB

     Check: negative core charge=   -0.000255

     Initial potential from superposition of free atoms

     starting charge      27.9988, renormalised to      28.0000
     Starting wfcs are   18 randomized atomic wfcs

     total cpu time spent up to now is        1.4 secs

     Self-consistent Calculation

     iteration #  1     ecut=    30.00 Ry     beta= 0.50
     Davidson diagonalization with overlap
     ethr =  1.00E-02,  avg # of iterations =  2.0

     Threshold (ethr) on eigenvalues was too large:
     Diagonalizing with lowered threshold

     Davidson diagonalization with overlap
     ethr =  1.74E-04,  avg # of iterations =  2.0

     total cpu time spent up to now is        4.2 secs

     total energy              =    -421.72255736 Ry
     estimated scf accuracy    <       0.05190300 Ry

     iteration #  2     ecut=    30.00 Ry     beta= 0.50
     Davidson diagonalization with overlap
     ethr =  1.85E-04,  avg # of iterations =  1.1

     total cpu time spent up to now is        5.5 secs

     total energy              =    -421.72082997 Ry
     estimated scf accuracy    <       0.00873935 Ry

     iteration #  3     ecut=    30.00 Ry     beta= 0.50
     Davidson diagonalization with overlap
     ethr =  3.12E-05,  avg # of iterations =  2.0

     total cpu time spent up to now is        7.0 secs

     total energy              =    -421.72164696 Ry
     estimated scf accuracy    <       0.00009728 Ry

     iteration #  4     ecut=    30.00 Ry     beta= 0.50
     Davidson diagonalization with overlap
     ethr =  3.47E-07,  avg # of iterations =  3.2

     total cpu time spent up to now is        9.0 secs

     total energy              =    -421.72167537 Ry
     estimated scf accuracy    <       0.00001644 Ry

     iteration #  5     ecut=    30.00 Ry     beta= 0.50
     Davidson diagonalization with overlap
     ethr =  5.87E-08,  avg # of iterations =  2.3

     total cpu time spent up to now is       10.5 secs

     total energy              =    -421.72167737 Ry
     estimated scf accuracy    <       0.00000098 Ry

     iteration #  6     ecut=    30.00 Ry     beta= 0.50
     Davidson diagonalization with overlap
     ethr =  3.49E-09,  avg # of iterations =  2.2

     total cpu time spent up to now is       12.4 secs

     total energy              =    -421.72167775 Ry
     estimated scf accuracy    <       0.00000011 Ry

     iteration #  7     ecut=    30.00 Ry     beta= 0.50
     Davidson diagonalization with overlap
     ethr =  4.03E-10,  avg # of iterations =  2.5

     total cpu time spent up to now is       14.2 secs

     End of self-consistent calculation

          k = 0.0000 0.0000 0.0000 (   725 PWs)   bands (ev):

   -14.6269 -14.6269 -14.6269 -14.5736 -14.5736 -14.2568 -14.2568 -14.2568
   -14.2150 -14.2150  -3.5712  10.6839  10.6839  10.6839

          k = 0.1768 0.1768-0.1768 (   715 PWs)   bands (ev):

   -14.6505 -14.6505 -14.6106 -14.5252 -14.5252 -14.2794 -14.2794 -14.2720
   -14.1869 -14.1868  -2.6958   5.5756   9.5995   9.5995

          k =-0.3536-0.3536 0.3536 (   718 PWs)   bands (ev):

   -14.6626 -14.6626 -14.5952 -14.5027 -14.5027 -14.2970 -14.2970 -14.2878
   -14.1822 -14.1822  -1.0217   2.0956   8.9893   8.9893

          k = 0.3536 0.0000 0.0000 (   713 PWs)   bands (ev):

   -14.6491 -14.6491 -14.6372 -14.5126 -14.4676 -14.3790 -14.2663 -14.2029
   -14.2029 -14.2011  -2.3864   5.9079   8.1746   8.1746

          k =-0.1768-0.5303 0.5303 (   711 PWs)   bands (ev):

   -14.6949 -14.6686 -14.5646 -14.4631 -14.4340 -14.4061 -14.3229 -14.2837
   -14.1686 -14.1481  -0.5900   2.6610   6.1716   7.7531

          k = 0.0000-0.3536 0.3536 (   716 PWs)   bands (ev):

   -14.6883 -14.6765 -14.5572 -14.5013 -14.4569 -14.3463 -14.3257 -14.2982
   -14.1599 -14.1572  -1.3307   3.6837   5.9452   8.8507

          k =-0.7071 0.0000 0.0000 (   724 PWs)   bands (ev):

   -14.6830 -14.6830 -14.5424 -14.5424 -14.3948 -14.3948 -14.3067 -14.3067
   -14.1681 -14.1681   1.0057   1.0057   6.9450   6.9450

          k =-0.7071 0.3536 0.0000 (   724 PWs)   bands (ev):

   -14.7022 -14.7022 -14.4866 -14.4866 -14.4087 -14.4087 -14.3579 -14.3579
   -14.1445 -14.1445   1.1682   1.1682   5.8532   5.8532

          k =-0.1768-0.1768-0.1768 (   715 PWs)   bands (ev):

   -14.6505 -14.6505 -14.6106 -14.5252 -14.5252 -14.2794 -14.2794 -14.2720
   -14.1869 -14.1868  -2.6958   5.5756   9.5995   9.5995

          k =-0.1768 0.1768 0.1768 (   715 PWs)   bands (ev):

   -14.6505 -14.6505 -14.6106 -14.5252 -14.5252 -14.2794 -14.2794 -14.2720
   -14.1869 -14.1869  -2.6958   5.5756   9.5995   9.5995

          k = 0.1768-0.1768 0.1768 (   715 PWs)   bands (ev):

   -14.6505 -14.6505 -14.6106 -14.5252 -14.5252 -14.2794 -14.2794 -14.2720
   -14.1869 -14.1869  -2.6958   5.5756   9.5995   9.5995

          k = 0.3536 0.3536 0.3536 (   718 PWs)   bands (ev):

   -14.6626 -14.6626 -14.5952 -14.5027 -14.5027 -14.2970 -14.2970 -14.2878
   -14.1822 -14.1822  -1.0217   2.0956   8.9893   8.9893

          k = 0.3536-0.3536-0.3536 (   718 PWs)   bands (ev):

   -14.6626 -14.6626 -14.5952 -14.5027 -14.5027 -14.2970 -14.2970 -14.2878
   -14.1822 -14.1822  -1.0217   2.0956   8.9893   8.9893

          k =-0.3536 0.3536-0.3536 (   718 PWs)   bands (ev):

   -14.6626 -14.6626 -14.5952 -14.5027 -14.5027 -14.2970 -14.2970 -14.2878
   -14.1822 -14.1822  -1.0217   2.0956   8.9893   8.9893

          k = 0.0000-0.3536 0.0000 (   713 PWs)   bands (ev):

   -14.6491 -14.6490 -14.6372 -14.5126 -14.4676 -14.3790 -14.2663 -14.2029
   -14.2029 -14.2011  -2.3864   5.9079   8.1746   8.1746

          k = 0.0000 0.0000-0.3536 (   713 PWs)   bands (ev):

   -14.6491 -14.6491 -14.6372 -14.5126 -14.4676 -14.3790 -14.2663 -14.2029
   -14.2029 -14.2011  -2.3864   5.9079   8.1746   8.1746

          k = 0.1768 0.5303 0.5303 (   711 PWs)   bands (ev):

   -14.6949 -14.6685 -14.5647 -14.4631 -14.4340 -14.4060 -14.3229 -14.2837
   -14.1686 -14.1481  -0.5900   2.6609   6.1716   7.7532

          k = 0.1768-0.5303-0.5303 (   711 PWs)   bands (ev):

   -14.6949 -14.6685 -14.5646 -14.4631 -14.4340 -14.4061 -14.3229 -14.2837
   -14.1686 -14.1481  -0.5900   2.6610   6.1716   7.7532

          k =-0.1768 0.5303-0.5303 (   711 PWs)   bands (ev):

   -14.6949 -14.6686 -14.5647 -14.4631 -14.4340 -14.4061 -14.3229 -14.2837
   -14.1686 -14.1481  -0.5900   2.6609   6.1716   7.7531

          k = 0.5303 0.1768-0.5303 (   711 PWs)   bands (ev):

   -14.6949 -14.6686 -14.5646 -14.4631 -14.4340 -14.4060 -14.3229 -14.2837
   -14.1686 -14.1481  -0.5900   2.6610   6.1716   7.7531

          k =-0.5303 0.5303 0.1768 (   711 PWs)   bands (ev):

   -14.6949 -14.6685 -14.5646 -14.4631 -14.4340 -14.4061 -14.3229 -14.2837
   -14.1686 -14.1481  -0.5900   2.6609   6.1716   7.7531

          k =-0.5303 0.5303-0.1768 (   711 PWs)   bands (ev):

   -14.6949 -14.6686 -14.5647 -14.4631 -14.4340 -14.4061 -14.3229 -14.2837
   -14.1686 -14.1481  -0.5900   2.6609   6.1716   7.7531

          k = 0.5303 0.5303 0.1768 (   711 PWs)   bands (ev):

   -14.6949 -14.6685 -14.5647 -14.4631 -14.4340 -14.4060 -14.3229 -14.2837
   -14.1686 -14.1481  -0.5900   2.6609   6.1716   7.7531

          k =-0.5303-0.5303 0.1768 (   711 PWs)   bands (ev):

   -14.6949 -14.6685 -14.5646 -14.4631 -14.4340 -14.4061 -14.3229 -14.2837
   -14.1686 -14.1481  -0.5900   2.6610   6.1716   7.7532

          k = 0.5303-0.1768-0.5303 (   711 PWs)   bands (ev):

   -14.6949 -14.6686 -14.5647 -14.4631 -14.4340 -14.4060 -14.3229 -14.2837
   -14.1686 -14.1481  -0.5900   2.6609   6.1716   7.7531

          k = 0.5303 0.1768 0.5303 (   711 PWs)   bands (ev):

   -14.6949 -14.6685 -14.5647 -14.4631 -14.4340 -14.4061 -14.3229 -14.2837
   -14.1686 -14.1481  -0.5900   2.6609   6.1716   7.7532

          k =-0.5303 0.1768-0.5303 (   711 PWs)   bands (ev):

   -14.6949 -14.6685 -14.5646 -14.4631 -14.4340 -14.4061 -14.3229 -14.2837
   -14.1686 -14.1481  -0.5900   2.6610   6.1716   7.7532

          k = 0.0000 0.3536 0.3536 (   716 PWs)   bands (ev):

   -14.6883 -14.6765 -14.5572 -14.5013 -14.4569 -14.3463 -14.3257 -14.2982
   -14.1599 -14.1572  -1.3307   3.6837   5.9452   8.8508

          k = 0.3536 0.0000-0.3536 (   716 PWs)   bands (ev):

   -14.6883 -14.6765 -14.5572 -14.5013 -14.4569 -14.3463 -14.3257 -14.2982
   -14.1599 -14.1572  -1.3307   3.6837   5.9452   8.8507

          k =-0.3536 0.3536 0.0000 (   716 PWs)   bands (ev):

   -14.6883 -14.6765 -14.5572 -14.5013 -14.4569 -14.3463 -14.3257 -14.2982
   -14.1599 -14.1572  -1.3307   3.6837   5.9452   8.8507

          k = 0.3536 0.3536 0.0000 (   716 PWs)   bands (ev):

   -14.6883 -14.6765 -14.5572 -14.5013 -14.4569 -14.3463 -14.3257 -14.2982
   -14.1599 -14.1572  -1.3307   3.6837   5.9452   8.8508

          k = 0.3536 0.0000 0.3536 (   716 PWs)   bands (ev):

   -14.6883 -14.6765 -14.5572 -14.5013 -14.4569 -14.3463 -14.3257 -14.2982
   -14.1599 -14.1572  -1.3307   3.6837   5.9452   8.8508

          k = 0.0000 0.7071 0.0000 (   724 PWs)   bands (ev):

   -14.6830 -14.6830 -14.5424 -14.5424 -14.3948 -14.3948 -14.3067 -14.3067
   -14.1681 -14.1681   1.0057   1.0057   6.9450   6.9450

          k = 0.0000 0.0000 0.7071 (   724 PWs)   bands (ev):

   -14.6830 -14.6830 -14.5424 -14.5424 -14.3948 -14.3948 -14.3067 -14.3067
   -14.1681 -14.1681   1.0057   1.0057   6.9450   6.9450

          k =-0.3536 0.7071 0.0000 (   724 PWs)   bands (ev):

   -14.7022 -14.7022 -14.4866 -14.4866 -14.4087 -14.4087 -14.3579 -14.3579
   -14.1445 -14.1445   1.1682   1.1682   5.8532   5.8532

          k = 0.7071 0.0000-0.3536 (   724 PWs)   bands (ev):

   -14.7022 -14.7022 -14.4866 -14.4866 -14.4087 -14.4087 -14.3579 -14.3579
   -14.1445 -14.1445   1.1682   1.1682   5.8532   5.8532

     highest occupied level (ev):    10.6839

!    total energy              =    -421.72167774 Ry
     estimated scf accuracy    <       0.00000005 Ry

     The total energy is the sum of the following terms:
     one-electron contribution =    -256.11313953 Ry
     hartree contribution      =     155.35331689 Ry
     xc contribution           =    -111.89000606 Ry
     ewald contribution        =    -209.07184903 Ry

     convergence has been achieved in   7 iterations

     Forces acting on atoms (cartesian axes, Ry/au):

     atom    1 type  1   force =    -0.00001329   -0.00001048    0.00001044
     atom    2 type  1   force =     0.00001329    0.00001048   -0.00001044
     The non-local contrib.  to forces
     atom    1 type  1   force =     0.00000991    0.00001662    0.00001213
     atom    2 type  1   force =     0.00000692    0.00002240    0.00000569
     The ionic contribution  to forces
     atom    1 type  1   force =    -0.00002319   -0.00002319   -0.00002319
     atom    2 type  1   force =     0.00002319    0.00002319    0.00002319
     The local contribution  to forces
     atom    1 type  1   force =     0.00000970   -0.00000620    0.00000135
     atom    2 type  1   force =    -0.00003717   -0.00006200   -0.00002773
     The core correction contribution to forces
     atom    1 type  1   force =    -0.00000030   -0.00000066   -0.00000047
     atom    2 type  1   force =    -0.00000047   -0.00000120   -0.00000038
     The Hubbard contrib.    to forces
     atom    1 type  1   force =     0.00000000    0.00000000    0.00000000
     atom    2 type  1   force =     0.00000000    0.00000000    0.00000000
     The SCF correction term to forces
     atom    1 type  1   force =     0.00001153    0.00005901    0.00004105
     atom    2 type  1   force =     0.00004178    0.00008415    0.00000922

     Total force =     0.000028     Total SCF correction =     0.000119
     SCF correction compared to forces is large: reduce conv_thr to get better values


     Computing stress (Cartesian axis) and pressure

          total   stress  (Ry/bohr**3)                   (kbar)     P=      -33.35
  -0.00022668   0.00000002   0.00000000          -33.35        0.00        0.00
   0.00000002  -0.00022669   0.00000001            0.00      -33.35        0.00
   0.00000000   0.00000001  -0.00022668            0.00        0.00      -33.35


     init_run     :      1.53s CPU      1.22s WALL (       1 calls)
     electrons    :     18.59s CPU     12.84s WALL (       1 calls)
     forces       :      0.20s CPU      0.14s WALL (       1 calls)
     stress       :      2.43s CPU      1.69s WALL (       1 calls)

     Called by init_run:
     wfcinit      :      1.13s CPU      0.81s WALL (       1 calls)
     potinit      :      0.00s CPU      0.00s WALL (       1 calls)
     hinit0       :      0.37s CPU      0.38s WALL (       1 calls)

     Called by electrons:
     c_bands      :     15.39s CPU     10.69s WALL (       8 calls)
     sum_band     :      2.91s CPU      1.96s WALL (       8 calls)
     v_of_rho     :      0.04s CPU      0.04s WALL (       8 calls)
     newd         :      0.23s CPU      0.15s WALL (       8 calls)
     mix_rho      :      0.01s CPU      0.01s WALL (       8 calls)

     Called by c_bands:
     init_us_2    :      0.64s CPU      0.43s WALL (     684 calls)
     init_us_2:cp :      0.63s CPU      0.43s WALL (     684 calls)
     cegterg      :     13.96s CPU      9.64s WALL (     288 calls)

     Called by *egterg:
     cdiaghg      :      0.80s CPU      0.54s WALL (     876 calls)
     h_psi        :     12.88s CPU      8.97s WALL (     948 calls)
     s_psi        :      0.22s CPU      0.15s WALL (     948 calls)
     g_psi        :      0.09s CPU      0.06s WALL (     624 calls)

     Called by h_psi:
     h_psi:calbec :      0.25s CPU      0.17s WALL (     948 calls)
     vloc_psi     :     12.34s CPU      8.59s WALL (     948 calls)
     add_vuspsi   :      0.22s CPU      0.15s WALL (     948 calls)

     General routines
     calbec       :      0.37s CPU      0.26s WALL (    1416 calls)
     fft          :      0.18s CPU      0.17s WALL (      41 calls)
     ffts         :      0.01s CPU      0.01s WALL (       8 calls)
     fftw         :     11.42s CPU      7.93s WALL (   25490 calls)

     Parallel routines

     PWSCF        :     22.87s CPU     16.05s WALL


   This run was terminated on:  15:41:27  14Oct2023            

=------------------------------------------------------------------------------=
   JOB DONE.
=------------------------------------------------------------------------------=
