LAMMPS (29 Oct 2020)
Reading data file ...
  orthogonal box = (0.0000000 0.0000000 0.0000000) to (32.800000 32.800000 32.800000)
  1 by 1 by 1 MPI processor grid
  reading atoms ...
  2048 atoms
  read_data CPU = 0.002 seconds
Reading eam potential file /home/gridsan/epan1/3320_atomistic_shared/lammps/potentials/Ag_u3.eam with DATE: 2007-06-11
Neighbor list info ...
  update every 1 steps, delay 10 steps, check yes
  max neighbors/atom: 2000, page size: 100000
  master list distance cutoff = 7.55
  ghost atom cutoff = 7.55
  binsize = 3.775, bins = 9 9 9
  2 neighbor lists, perpetual/occasional/extra = 1 1 0
  (1) pair eam, perpetual
      attributes: half, newton on
      pair build: half/bin/atomonly/newton
      stencil: half/bin/3d/newton
      bin: standard
  (2) compute rdf, occasional, copy from (1)
      attributes: half, newton on
      pair build: copy
      stencil: none
      bin: none
Setting up Verlet run ...
  Unit style    : metal
  Current step  : 0
  Time step     : 0.001
Per MPI rank memory allocation (min/avg/max) = 3.870 | 3.870 | 3.870 Mbytes
Step PotEng KinEng TotEng Temp Press Density c_msdall[4] 
       0   -5836.1956    79.378655    -5756.817          300   -5062.4038    10.395806            0 
     100   -5792.3443    35.530793   -5756.8135    134.28343    1535.4226    10.395806  0.015324361 
     200   -5802.6617    45.848742    -5756.813    173.27861    276.56303    10.395806  0.011401545 
     300   -5798.2508    41.438096   -5756.8127    156.60922    879.21419    10.395806    0.0126247 
     400   -5797.6764    40.864164   -5756.8123    154.44012    1099.3363    10.395806  0.012091044 
     500   -5795.1632      38.3512    -5756.812    144.94274    1481.1342    10.395806  0.012741162 
     600   -5796.1824    39.370427   -5756.8119    148.79476     1365.883    10.395806  0.011882291 
     700   -5794.9615     38.14975   -5756.8118    144.18139    1556.7496    10.395806  0.011714727 
     800   -5794.8347     38.02302   -5756.8117    143.70243    1589.9408    10.395806  0.011364679 
     900   -5796.2443    39.432482   -5756.8118    149.02929     1373.134    10.395806  0.011056324 
    1000   -5795.4298    38.617934   -5756.8119    145.95082    1441.5059    10.395806  0.012364137 
    1100   -5795.7956    38.983657   -5756.8119    147.33302    1415.4134    10.395806   0.01223419 
    1200   -5796.4142    39.602209    -5756.812    149.67075    1300.6278    10.395806  0.012121145 
    1300   -5796.8768     40.06474    -5756.812    151.41882    1265.3103    10.395806  0.012084778 
    1400   -5794.7548    37.942903   -5756.8119    143.39964    1520.4196    10.395806  0.012912657 
    1500   -5796.8649    40.052872    -5756.812    151.37396    1251.3409    10.395806  0.011838916 
    1600   -5795.8849     39.07298   -5756.8119     147.6706      1366.44    10.395806   0.01152908 
    1700   -5797.1466    40.334447   -5756.8122    152.43813    1168.2737    10.395806  0.011478783 
    1800   -5799.0639    42.251521   -5756.8124    159.68343    862.58683    10.395806  0.011178257 
    1900   -5795.2334    38.421415    -5756.812    145.20811    1455.5428    10.395806  0.012544806 
    2000   -5797.0432    40.231184    -5756.812    152.04787    1193.8284    10.395806  0.011667799 
    2100   -5796.5356    39.723665    -5756.812    150.12977    1288.5164    10.395806  0.011732307 
    2200   -5794.5623    37.750519   -5756.8118    142.67256    1599.1729    10.395806  0.012399253 
    2300   -5795.8821    39.070232   -5756.8118    147.66022    1400.7665    10.395806  0.011880639 
    2400   -5795.5237    38.711811   -5756.8119    146.30562    1426.7723    10.395806  0.012300357 
    2500   -5798.0936    41.281462   -5756.8121    156.01724    1045.5074    10.395806  0.011691787 
    2600   -5794.0255    37.213752   -5756.8117    140.64393    1672.7722    10.395806   0.01237626 
    2700   -5796.8156    40.003599    -5756.812    151.18774    1273.9241    10.395806  0.011177887 
    2800   -5797.2666    40.454435   -5756.8122    152.89161     1153.214    10.395806  0.011134674 
    2900   -5797.2307    40.418529   -5756.8121    152.75591    1147.1387    10.395806  0.011162639 
    3000   -5796.5446     39.73249   -5756.8121    150.16313    1258.3488    10.395806  0.011848074 
    3100   -5797.8845    41.072238   -5756.8122    155.22651    1060.5342    10.395806  0.012075387 
    3200   -5795.0576    38.245584    -5756.812    144.54358    1477.4568    10.395806  0.013214013 
    3300     -5797.65    40.837886   -5756.8121    154.34081    1099.8734    10.395806  0.011641359 
    3400   -5795.4671    38.655157   -5756.8119     146.0915    1427.5788    10.395806  0.011743005 
    3500   -5797.0797    40.267699    -5756.812    152.18587    1216.1314    10.395806  0.010889892 
    3600   -5796.8653    40.053237   -5756.8121    151.37534    1194.9726    10.395806  0.011103933 
    3700   -5796.4929    39.680829   -5756.8121    149.96788    1271.4238    10.395806  0.012069513 
    3800   -5797.6021    40.789932   -5756.8121    154.15957    1114.6437    10.395806  0.012318077 
    3900   -5794.5157    37.703875   -5756.8118    142.49627    1595.2806    10.395806  0.012952574 
    4000   -5796.8994    40.087443    -5756.812    151.50462    1269.2853    10.395806  0.011999029 
    4100   -5795.8861    39.074072    -5756.812    147.67473    1357.9321    10.395806  0.012221595 
    4200   -5796.7071    39.895045    -5756.812    150.77748    1281.3504    10.395806  0.011497135 
    4300   -5796.0594    39.247403    -5756.812    148.32981    1348.8322    10.395806  0.011466913 
    4400   -5797.3502    40.538071   -5756.8121     153.2077    1167.7076    10.395806  0.010958282 
    4500   -5796.6173    39.805198   -5756.8121    150.43791    1278.2541    10.395806  0.011114849 
    4600   -5796.9718    40.159629   -5756.8121    151.77744     1206.752    10.395806  0.011608158 
    4700   -5796.7821    39.969963   -5756.8122    151.06062    1228.3937    10.395806  0.012624652 
    4800   -5797.6437    40.831455   -5756.8123     154.3165    1073.0768    10.395806  0.012556215 
    4900   -5796.9808    40.168683   -5756.8121    151.81165    1217.2672    10.395806  0.011756508 
    5000   -5795.9938    39.181773    -5756.812    148.08177     1384.763    10.395806  0.011544867 
    5100   -5796.4686    39.656535   -5756.8121    149.87606    1283.7666    10.395806  0.011456515 
    5200   -5798.3746    41.562314   -5756.8123    157.07868    992.29504    10.395806  0.010647587 
    5300   -5796.1625    39.350368   -5756.8121    148.71895     1357.254    10.395806  0.011564762 
    5400   -5796.7183    39.906227   -5756.8121    150.81974    1258.6999    10.395806  0.011945285 
    5500   -5795.7201    38.908071    -5756.812    147.04736    1404.7642    10.395806  0.012517722 
    5600   -5797.2081    40.395946   -5756.8121    152.67056    1188.9237    10.395806  0.011521364 
    5700   -5796.5945    39.782422   -5756.8121    150.35184    1282.8048    10.395806   0.01142759 
    5800   -5796.3573    39.545266   -5756.8121    149.45554    1311.9483    10.395806  0.011439362 
    5900   -5797.4841    40.671932   -5756.8122    153.71361    1118.1242    10.395806  0.011527915 
    6000   -5797.0686    40.256343   -5756.8123    152.14295     1169.564    10.395806  0.012030832 
    6100   -5797.3208    40.508491   -5756.8123    153.09591    1154.7847    10.395806  0.011585597 
    6200   -5798.0116    41.199279   -5756.8123    155.70664    1054.0245    10.395806   0.01088074 
    6300   -5796.9986    40.186415   -5756.8122    151.87867    1228.1215    10.395806  0.011476885 
    6400   -5795.5365    38.724448    -5756.812    146.35338    1433.7442    10.395806  0.012262113 
    6500   -5797.9079     41.09566   -5756.8123    155.31503    1110.6477    10.395806   0.01127584 
    6600   -5796.6965    39.884332   -5756.8122    150.73699    1252.4877    10.395806  0.011815104 
    6700   -5797.0907    40.278477   -5756.8122     152.2266     1202.283    10.395806  0.012068709 
    6800   -5796.3983     39.58617   -5756.8121    149.61013    1310.4453    10.395806  0.012359966 
    6900    -5797.097    40.284892   -5756.8121    152.25085    1221.9443    10.395806  0.011542523 
    7000   -5795.5074    38.695471   -5756.8119    146.24387     1480.488    10.395806  0.011536165 
    7100    -5797.175    40.362822   -5756.8121    152.54537    1211.5458    10.395806  0.011293952 
    7200    -5796.574    39.761931   -5756.8121     150.2744    1284.2407    10.395806  0.011802726 
    7300   -5796.1799    39.367909    -5756.812    148.78525    1381.9572    10.395806  0.011544222 
    7400    -5796.111    39.299064    -5756.812    148.52506    1372.7116    10.395806   0.01156028 
    7500   -5796.6659    39.853822   -5756.8121    150.62168    1273.4747    10.395806  0.012021472 
    7600   -5797.2136    40.401477   -5756.8121    152.69146    1169.1267    10.395806  0.012054192 
    7700   -5795.8932    39.081157    -5756.812    147.70151      1407.92    10.395806  0.012244268 
    7800   -5796.0708    39.258755    -5756.812    148.37272    1383.5433    10.395806  0.011645444 
    7900   -5797.3591    40.546968   -5756.8122    153.24133    1163.0374    10.395806  0.010920755 
    8000   -5796.6471    39.835019   -5756.8121    150.55062    1278.6993    10.395806   0.01103544 
    8100   -5796.6558    39.843734   -5756.8121    150.58356    1248.7193    10.395806  0.011286649 
    8200   -5797.2656    40.453419   -5756.8122    152.88777    1161.9497    10.395806  0.011829075 
    8300   -5795.7711    38.959011   -5756.8121    147.23988     1388.745    10.395806  0.012625002 
    8400   -5797.2589    40.446694   -5756.8122    152.86235    1174.5938    10.395806  0.012006786 
    8500   -5797.4137    40.601463   -5756.8122    153.44728    1124.0734    10.395806  0.011565527 
    8600   -5796.9444    40.132262   -5756.8121      151.674    1231.6613    10.395806   0.01120507 
    8700   -5796.3479    39.535811   -5756.8121    149.41981    1311.8257    10.395806  0.011283378 
    8800   -5797.0491    40.237022   -5756.8121    152.06993    1202.2032    10.395806  0.011328671 
    8900   -5796.6498    39.837646   -5756.8121    150.56055    1265.5595    10.395806  0.011898943 
    9000   -5796.8673    40.055151   -5756.8122    151.38258    1258.0325    10.395806  0.011857035 
    9100   -5796.3374    39.525415    -5756.812    149.38052    1323.3855    10.395806  0.011582844 
    9200   -5796.9169    40.104808   -5756.8121    151.57025    1268.8083    10.395806  0.011426251 
    9300   -5795.6964    38.884405    -5756.812    146.95791    1427.7825    10.395806  0.012029774 
    9400   -5797.5619    40.749775   -5756.8121     154.0078    1132.4935    10.395806  0.011276089 
    9500   -5795.8149    39.002851    -5756.812    147.40556    1413.5195    10.395806    0.0115973 
    9600   -5797.1078    40.295751   -5756.8121    152.29189    1199.3959    10.395806  0.011216093 
    9700   -5796.8648    40.052691   -5756.8121    151.37328    1258.9606    10.395806  0.011447244 
    9800   -5797.0959    40.283784   -5756.8121    152.24666    1218.4625    10.395806  0.011456662 
    9900   -5795.7027    38.890668    -5756.812    146.98158    1410.0225    10.395806  0.012400663 
   10000   -5797.7714    40.959147   -5756.8123     154.7991    1073.0561    10.395806  0.011855065 
Loop time of 40.0289 on 1 procs for 10000 steps with 2048 atoms

Performance: 21.584 ns/day, 1.112 hours/ns, 249.819 timesteps/s
99.8% CPU use with 1 MPI tasks x no OpenMP threads

MPI task timing breakdown:
Section |  min time  |  avg time  |  max time  |%varavg| %total
---------------------------------------------------------------
Pair    | 27.649     | 27.649     | 27.649     |   0.0 | 69.07
Neigh   | 0          | 0          | 0          |   0.0 |  0.00
Comm    | 0.21316    | 0.21316    | 0.21316    |   0.0 |  0.53
Output  | 0.0066876  | 0.0066876  | 0.0066876  |   0.0 |  0.02
Modify  | 12.056     | 12.056     | 12.056     |   0.0 | 30.12
Other   |            | 0.1038     |            |       |  0.26

Nlocal:        2048.00 ave        2048 max        2048 min
Histogram: 1 0 0 0 0 0 0 0 0 0
Nghost:        4035.00 ave        4035 max        4035 min
Histogram: 1 0 0 0 0 0 0 0 0 0
Neighs:        88064.0 ave       88064 max       88064 min
Histogram: 1 0 0 0 0 0 0 0 0 0

Total # of neighbors = 88064
Ave neighs/atom = 43.000000
Neighbor list builds = 0
Dangerous builds = 0
Total wall time: 0:00:40
