
     Program PWSCF v.7.2 starts on  3Nov2023 at 10:53:49 

     This program is part of the open-source Quantum ESPRESSO suite
     for quantum simulation of materials; please cite
         "P. Giannozzi et al., J. Phys.:Condens. Matter 21 395502 (2009);
         "P. Giannozzi et al., J. Phys.:Condens. Matter 29 465901 (2017);
         "P. Giannozzi et al., J. Chem. Phys. 152 154105 (2020);
          URL http://www.quantum-espresso.org", 
     in publications or presentations arising from this work. More details at
     http://www.quantum-espresso.org/quote

     Parallel version (MPI), running on     8 processors

     MPI processes distributed on     8 nodes
     185898 MiB available memory on the printing compute node when the environment starts

     Waiting for input...
     Reading input from standard input

     Current dimensions of program PWSCF are:
     Max number of different atomic species (ntypx) = 10
     Max number of k-points (npk) =  40000
     Max angular momentum in pseudopotentials (lmaxx) =  4
     file Cu.pz-d-rrkjus.UPF: wavefunction(s)  3D renormalized
     Message from routine setup:
     using ibrav=0 with symmetry is DISCOURAGED, use correct ibrav instead

     R & G space division:  proc/nbgrp/npool/nimage =       8
     Subspace diagonalization in iterative solution of the eigenvalue problem:
     a serial algorithm will be used


     Parallelization info
     --------------------
     sticks:   dense  smooth     PW     G-vecs:    dense   smooth      PW
     Min          59      30     10                  858      305      65
     Max          60      31     11                  861      308      68
     Sum         475     241     85                 6879     2445     531

     Using Slab Decomposition



     bravais-lattice index     =            0
     lattice parameter (alat)  =       4.6768  a.u.
     unit-cell volume          =      72.3337 (a.u.)^3
     number of atoms/cell      =            1
     number of atomic types    =            1
     number of electrons       =        11.00
     number of Kohn-Sham states=           10
     kinetic-energy cutoff     =      40.0000  Ry
     charge density cutoff     =     320.0000  Ry
     scf convergence threshold =      1.0E-07
     mixing beta               =       0.5000
     number of iterations used =            8  plain     mixing
     energy convergence thresh.=      1.0E-04
     force convergence thresh. =      1.0E-03
     press convergence thresh. =      5.0E-01
     Exchange-correlation=  SLA  PZ   NOGX NOGC
                           (   1   1   0   0   0   0   0)
     nstep                     =           50


     celldm(1)=   4.676834  celldm(2)=   0.000000  celldm(3)=   0.000000
     celldm(4)=   0.000000  celldm(5)=   0.000000  celldm(6)=   0.000000

     crystal axes: (cart. coord. in units of alat)
               a(1) = (   0.000000   0.707107   0.707107 )  
               a(2) = (   0.707107   0.000000   0.707107 )  
               a(3) = (   0.707107   0.707107   0.000000 )  

     reciprocal axes: (cart. coord. in units 2 pi/alat)
               b(1) = ( -0.707107  0.707107  0.707107 )  
               b(2) = (  0.707107 -0.707107  0.707107 )  
               b(3) = (  0.707107  0.707107 -0.707107 )  


     PseudoPot. # 1 for Cu read from file:
     /home/gridsan/epan1/labutil/lab3_samples/pseudopotentials/Cu.pz-d-rrkjus.UPF
     MD5 check sum: fd38ae683e239c95a66f426e1f8e5fc7
     Pseudo is Ultrasoft, Zval = 11.0
     Generated by new atomic code, or converted to UPF format
     Using radial grid of  899 points,  3 beta functions with: 
                l(1) =   2
                l(2) =   2
                l(3) =   1
     Q(r) pseudized with 0 coefficients 


     atomic species   valence    mass     pseudopotential
        Cu            11.00    63.54600     Cu( 1.00)

     Starting magnetic structure 
     atomic species   magnetization
        Cu           0.700

     48 Sym. Ops., with inversion, found



   Cartesian axes

     site n.     atom                  positions (alat units)
         1           Cu  tau(   1) = (   0.0000000   0.0000000   0.0000000  )

     number of k points=    35  Methfessel-Paxton smearing, width (Ry)=  0.0200
                       cart. coord. in units 2pi/alat
        k(    1) = (   0.0000000   0.0000000   0.0000000), wk =   0.0013717
        k(    2) = (   0.0785674   0.0785674  -0.0785674), wk =   0.0109739
        k(    3) = (   0.1571348   0.1571348  -0.1571348), wk =   0.0109739
        k(    4) = (   0.2357023   0.2357023  -0.2357023), wk =   0.0109739
        k(    5) = (   0.3142697   0.3142697  -0.3142697), wk =   0.0109739
        k(    6) = (   0.1571348   0.0000000   0.0000000), wk =   0.0082305
        k(    7) = (   0.2357023   0.0785674  -0.0785674), wk =   0.0329218
        k(    8) = (   0.3142697   0.1571348  -0.1571348), wk =   0.0329218
        k(    9) = (   0.3928371   0.2357023  -0.2357023), wk =   0.0329218
        k(   10) = (  -0.2357023  -0.3928371   0.3928371), wk =   0.0329218
        k(   11) = (  -0.1571348  -0.3142697   0.3142697), wk =   0.0329218
        k(   12) = (  -0.0785674  -0.2357023   0.2357023), wk =   0.0329218
        k(   13) = (  -0.0000000  -0.1571348   0.1571348), wk =   0.0164609
        k(   14) = (   0.3142697   0.0000000   0.0000000), wk =   0.0082305
        k(   15) = (   0.3928371   0.0785674  -0.0785674), wk =   0.0329218
        k(   16) = (   0.4714045   0.1571348  -0.1571348), wk =   0.0329218
        k(   17) = (  -0.1571348  -0.4714045   0.4714045), wk =   0.0329218
        k(   18) = (  -0.0785674  -0.3928371   0.3928371), wk =   0.0329218
        k(   19) = (   0.0000000  -0.3142697   0.3142697), wk =   0.0164609
        k(   20) = (   0.4714045   0.0000000   0.0000000), wk =   0.0082305
        k(   21) = (   0.5499719   0.0785674  -0.0785674), wk =   0.0329218
        k(   22) = (  -0.0785674  -0.5499719   0.5499719), wk =   0.0329218
        k(   23) = (  -0.0000000  -0.4714045   0.4714045), wk =   0.0164609
        k(   24) = (   0.6285394   0.0000000   0.0000000), wk =   0.0082305
        k(   25) = (   0.0000000  -0.6285394   0.6285394), wk =   0.0164609
        k(   26) = (   0.3142697   0.1571348   0.0000000), wk =   0.0329218
        k(   27) = (   0.3928371   0.2357023  -0.0785674), wk =   0.0658436
        k(   28) = (  -0.2357023  -0.3928371   0.5499719), wk =   0.0658436
        k(   29) = (   0.4714045   0.1571348   0.0000000), wk =   0.0329218
        k(   30) = (  -0.1571348  -0.4714045   0.6285394), wk =   0.0658436
        k(   31) = (  -0.0785674  -0.3928371   0.5499719), wk =   0.0658436
        k(   32) = (   0.0000000  -0.3142697   0.4714045), wk =   0.0329218
        k(   33) = (  -0.0785674  -0.5499719   0.7071068), wk =   0.0329218
        k(   34) = (  -0.0000000  -0.4714045   0.6285394), wk =   0.0329218
        k(   35) = (  -0.0785674  -0.3928371   0.7071068), wk =   0.0329218

     Dense  grid:     6879 G-vectors     FFT dimensions: (  27,  27,  27)

     Smooth grid:     2445 G-vectors     FFT dimensions: (  20,  20,  20)

     Estimated max dynamical RAM per process >       3.77 MB

     Estimated total dynamical RAM >      30.18 MB
     Generating pointlists ...
     new r_m :   0.4125 (alat units)  1.9292 (a.u.) for type    1

     Initial potential from superposition of free atoms

     starting charge      10.9997, renormalised to      11.0000
     Starting wfcs are    6 randomized atomic wfcs +    4 random wfcs

     total cpu time spent up to now is        0.4 secs

     Self-consistent Calculation

     iteration #  1     ecut=    40.00 Ry     beta= 0.50
     Davidson diagonalization with overlap
     ethr =  1.00E-02,  avg # of iterations =  6.1

     total cpu time spent up to now is        0.7 secs

     total energy              =     -86.95857472 Ry
     estimated scf accuracy    <       1.46136555 Ry

     total magnetization       =     1.77 Bohr mag/cell
     absolute magnetization    =     1.88 Bohr mag/cell

     iteration #  2     ecut=    40.00 Ry     beta= 0.50
     Davidson diagonalization with overlap
     ethr =  1.00E-02,  avg # of iterations =  1.5

     total cpu time spent up to now is        0.9 secs

     total energy              =     -87.61574852 Ry
     estimated scf accuracy    <       0.72438697 Ry

     total magnetization       =     0.36 Bohr mag/cell
     absolute magnetization    =     0.51 Bohr mag/cell

     iteration #  3     ecut=    40.00 Ry     beta= 0.50
     Davidson diagonalization with overlap
     ethr =  6.59E-03,  avg # of iterations =  1.0

     negative rho (up, down):  0.000E+00 2.255E-07

     total cpu time spent up to now is        1.1 secs

     total energy              =     -87.79432882 Ry
     estimated scf accuracy    <       0.21212003 Ry

     total magnetization       =     0.35 Bohr mag/cell
     absolute magnetization    =     0.51 Bohr mag/cell

     iteration #  4     ecut=    40.00 Ry     beta= 0.50
     Davidson diagonalization with overlap
     ethr =  1.93E-03,  avg # of iterations =  1.5

     total cpu time spent up to now is        1.3 secs

     total energy              =     -87.83179705 Ry
     estimated scf accuracy    <       0.03871208 Ry

     total magnetization       =    -0.03 Bohr mag/cell
     absolute magnetization    =     0.06 Bohr mag/cell

     iteration #  5     ecut=    40.00 Ry     beta= 0.50
     Davidson diagonalization with overlap
     ethr =  3.52E-04,  avg # of iterations =  1.3

     total cpu time spent up to now is        1.5 secs

     total energy              =     -87.84241415 Ry
     estimated scf accuracy    <       0.00207355 Ry

     total magnetization       =    -0.03 Bohr mag/cell
     absolute magnetization    =     0.03 Bohr mag/cell

     iteration #  6     ecut=    40.00 Ry     beta= 0.50
     Davidson diagonalization with overlap
     ethr =  1.89E-05,  avg # of iterations =  1.5

     total cpu time spent up to now is        1.7 secs

     total energy              =     -87.84335867 Ry
     estimated scf accuracy    <       0.00043674 Ry

     total magnetization       =     0.01 Bohr mag/cell
     absolute magnetization    =     0.04 Bohr mag/cell

     iteration #  7     ecut=    40.00 Ry     beta= 0.50
     Davidson diagonalization with overlap
     ethr =  3.97E-06,  avg # of iterations =  1.6

     total cpu time spent up to now is        1.8 secs

     total energy              =     -87.84343825 Ry
     estimated scf accuracy    <       0.00003184 Ry

     total magnetization       =     0.00 Bohr mag/cell
     absolute magnetization    =     0.01 Bohr mag/cell

     iteration #  8     ecut=    40.00 Ry     beta= 0.50
     Davidson diagonalization with overlap
     ethr =  2.89E-07,  avg # of iterations =  1.2

     total cpu time spent up to now is        2.0 secs

     total energy              =     -87.84344594 Ry
     estimated scf accuracy    <       0.00000347 Ry

     total magnetization       =     0.00 Bohr mag/cell
     absolute magnetization    =     0.00 Bohr mag/cell

     iteration #  9     ecut=    40.00 Ry     beta= 0.50
     Davidson diagonalization with overlap
     ethr =  3.16E-08,  avg # of iterations =  1.4

     Magnetic moment per site  (integrated on atomic sphere of radius R)
     atom   1 (R=0.412)  charge=  9.7779  magn= -0.0000

     total cpu time spent up to now is        2.2 secs

     End of self-consistent calculation

 ------ SPIN UP ------------


          k = 0.0000 0.0000 0.0000 (   331 PWs)   bands (ev):

     5.6329  12.0785  12.0785  12.0785  13.0420  13.0420  40.4921  43.0165
    43.0165  43.0166

          k = 0.0786 0.0786-0.0786 (   316 PWs)   bands (ev):

     6.1109  11.9762  12.1692  12.1692  13.0119  13.0119  36.7875  41.0665
    41.8737  41.8737

          k = 0.1571 0.1571-0.1571 (   311 PWs)   bands (ev):

     7.4467  11.8067  12.2708  12.2708  13.0777  13.0777  30.5313  40.3652
    40.5667  40.5667

          k = 0.2357 0.2357-0.2357 (   308 PWs)   bands (ev):

     9.0900  12.1485  12.1720  12.1720  13.3934  13.3934  24.9892  39.3681
    39.8276  39.8276

          k = 0.3143 0.3143-0.3143 (   314 PWs)   bands (ev):

     9.7967  12.0556  12.0556  13.6680  13.6680  13.8413  20.7822  38.6808
    39.5932  39.5932

          k = 0.1571 0.0000 0.0000 (   307 PWs)   bands (ev):

     6.2686  11.8792  12.2442  12.2442  12.8648  13.1162  38.7341  39.1829
    39.1829  40.8736

          k = 0.2357 0.0786-0.0786 (   308 PWs)   bands (ev):

     7.3180  11.6666  12.3463  12.4041  12.8418  13.2163  32.8779  37.3224
    38.5781  41.9262

          k = 0.3143 0.1571-0.1571 (   309 PWs)   bands (ev):

     8.9240  11.6207  12.1379  12.3858  13.4045  13.4739  27.0481  36.3721
    37.5645  39.5111

          k = 0.3928 0.2357-0.2357 (   312 PWs)   bands (ev):

     9.9518  11.8925  12.2593  12.3237  13.7011  14.6479  22.1932  35.9319
    36.4262  38.3477

          k =-0.2357-0.3928 0.3928 (   312 PWs)   bands (ev):

    10.0959  11.8682  12.1963  12.7241  13.6549  15.7356  20.2033  34.4481
    37.5752  38.5712

          k =-0.1571-0.3143 0.3143 (   310 PWs)   bands (ev):

     9.7647  12.0056  12.0940  12.2635  13.3203  14.3464  23.6741  33.7993
    39.7441  39.8243

          k =-0.0786-0.2357 0.2357 (   307 PWs)   bands (ev):

     8.3834  11.6499  12.2090  12.4102  12.8963  13.5729  28.9147  34.0474
    41.7874  43.0761

          k =-0.0000-0.1571 0.1571 (   315 PWs)   bands (ev):

     6.8790  11.8035  12.2762  12.3146  12.8400  13.1721  34.6536  35.4706
    43.0109  44.8123

          k = 0.3143 0.0000 0.0000 (   303 PWs)   bands (ev):

     8.0045  11.3863  12.5470  12.7063  12.7063  13.3054  34.9526  34.9526
    36.6180  36.9263

          k = 0.3928 0.0786-0.0786 (   310 PWs)   bands (ev):

     9.2444  11.1626  12.2867  12.8436  13.4663  13.5129  29.7868  33.5758
    34.0306  37.2027

          k = 0.4714 0.1571-0.1571 (   313 PWs)   bands (ev):

    10.2805  11.1948  12.0778  12.7465  13.7349  15.1993  24.5440  31.3686
    33.3262  37.0739

          k =-0.1571-0.4714 0.4714 (   303 PWs)   bands (ev):

    10.6219  11.3557  12.0874  12.6294  13.6741  17.7393  20.6534  29.4446
    34.2807  37.3840

          k =-0.0786-0.3928 0.3928 (   307 PWs)   bands (ev):

    10.6353  11.5719  11.7985  12.5948  13.3201  16.3038  23.0095  28.4197
    36.3713  38.3763

          k = 0.0000-0.3143 0.3143 (   311 PWs)   bands (ev):

     9.8053  11.4866  11.9283  12.6374  12.8845  14.5310  27.5545  28.7687
    39.4157  40.1244

          k = 0.4714 0.0000 0.0000 (   310 PWs)   bands (ev):

     9.7218  10.8457  13.2978  13.3262  13.3262  13.5231  30.3427  31.7309
    31.7309  35.2791

          k = 0.5500 0.0786-0.0786 (   316 PWs)   bands (ev):

    10.1312  10.7248  12.9758  13.3326  13.7524  15.4713  27.3160  27.8541
    31.0606  36.0565

          k =-0.0786-0.5500 0.5500 (   307 PWs)   bands (ev):

    10.5195  10.8523  12.4992  13.1831  13.7316  18.5486  23.0551  25.5344
    31.6963  36.4518

          k =-0.0000-0.4714 0.4714 (   309 PWs)   bands (ev):

    10.9227  11.1114  11.9474  12.9594  13.4780  19.1636  21.9318  25.0362
    33.5483  37.1565

          k = 0.6285 0.0000 0.0000 (   310 PWs)   bands (ev):

     9.9813  10.5039  13.6668  13.8048  13.8048  16.2370  24.7001  29.9293
    29.9293  34.6586

          k = 0.0000-0.6285 0.6285 (   310 PWs)   bands (ev):

    10.1231  10.5557  13.3858  13.5694  13.8303  17.9003  23.6403  26.9366
    30.1556  35.7297

          k = 0.3143 0.1571 0.0000 (   306 PWs)   bands (ev):

     8.5257  11.4381  12.1868  12.7183  12.8513  13.5935  31.1599  31.9306
    38.1889  41.3932

          k = 0.3928 0.2357-0.0786 (   314 PWs)   bands (ev):

     9.9492  11.4272  11.8865  12.6611  13.2883  14.5563  25.9220  31.0822
    35.2249  41.4029

          k =-0.2357-0.3928 0.5500 (   305 PWs)   bands (ev):

    10.4917  11.5426  12.0393  12.5276  13.6128  16.5519  21.4160  31.4608
    33.0082  40.8880

          k = 0.4714 0.1571 0.0000 (   308 PWs)   bands (ev):

    10.1117  10.9900  12.2049  13.3079  13.3231  14.7269  28.5279  29.3105
    31.0073  39.4484

          k =-0.1571-0.4714 0.6285 (   309 PWs)   bands (ev):

    10.6559  11.0570  11.9949  13.0701  13.6668  17.1443  23.9272  28.3456
    29.3127  40.2784

          k =-0.0786-0.3928 0.5500 (   307 PWs)   bands (ev):

    11.0174  11.1048  11.7958  12.8924  13.6303  19.3061  21.1953  26.8172
    30.3867  41.0217

          k = 0.0000-0.3143 0.4714 (   311 PWs)   bands (ev):

    10.8801  11.4028  11.4673  12.9057  13.3397  16.5063  24.8498  26.6661
    32.4300  42.4191

          k =-0.0786-0.5500 0.7071 (   310 PWs)   bands (ev):

    10.2825  10.6998  12.8444  13.4663  13.8040  17.6040  25.0215  27.0258
    28.0507  38.4832

          k =-0.0000-0.4714 0.6285 (   304 PWs)   bands (ev):

    10.6025  10.9310  12.2885  13.1913  13.8007  20.1318  22.9775  24.3765
    28.5605  39.8942

          k =-0.0786-0.3928 0.7071 (   307 PWs)   bands (ev):

    10.8157  11.2983  11.6775  13.0359  13.8016  20.0590  23.2961  25.4124
    26.5266  44.9814

 ------ SPIN DOWN ----------


          k = 0.0000 0.0000 0.0000 (   331 PWs)   bands (ev):

     5.6328  12.0782  12.0782  12.0782  13.0417  13.0417  40.4922  43.0164
    43.0164  43.0165

          k = 0.0786 0.0786-0.0786 (   316 PWs)   bands (ev):

     6.1109  11.9759  12.1689  12.1689  13.0116  13.0116  36.7874  41.0664
    41.8736  41.8736

          k = 0.1571 0.1571-0.1571 (   311 PWs)   bands (ev):

     7.4467  11.8064  12.2705  12.2705  13.0774  13.0774  30.5312  40.3651
    40.5666  40.5666

          k = 0.2357 0.2357-0.2357 (   308 PWs)   bands (ev):

     9.0899  12.1483  12.1717  12.1717  13.3931  13.3931  24.9891  39.3680
    39.8275  39.8275

          k = 0.3143 0.3143-0.3143 (   314 PWs)   bands (ev):

     9.7965  12.0553  12.0553  13.6677  13.6677  13.8412  20.7820  38.6808
    39.5931  39.5931

          k = 0.1571 0.0000 0.0000 (   307 PWs)   bands (ev):

     6.2685  11.8789  12.2439  12.2439  12.8645  13.1159  38.7341  39.1829
    39.1829  40.8734

          k = 0.2357 0.0786-0.0786 (   308 PWs)   bands (ev):

     7.3180  11.6663  12.3461  12.4038  12.8415  13.2160  32.8779  37.3223
    38.5780  41.9260

          k = 0.3143 0.1571-0.1571 (   309 PWs)   bands (ev):

     8.9240  11.6205  12.1377  12.3855  13.4043  13.4736  27.0480  36.3721
    37.5644  39.5111

          k = 0.3928 0.2357-0.2357 (   312 PWs)   bands (ev):

     9.9517  11.8923  12.2590  12.3235  13.7008  14.6477  22.1930  35.9318
    36.4261  38.3476

          k =-0.2357-0.3928 0.3928 (   312 PWs)   bands (ev):

    10.0957  11.8679  12.1961  12.7239  13.6546  15.7354  20.2032  34.4480
    37.5752  38.5711

          k =-0.1571-0.3143 0.3143 (   310 PWs)   bands (ev):

     9.7646  12.0053  12.0938  12.2632  13.3200  14.3461  23.6740  33.7992
    39.7441  39.8243

          k =-0.0786-0.2357 0.2357 (   307 PWs)   bands (ev):

     8.3833  11.6497  12.2087  12.4099  12.8960  13.5726  28.9146  34.0473
    41.7874  43.0761

          k =-0.0000-0.1571 0.1571 (   315 PWs)   bands (ev):

     6.8789  11.8032  12.2759  12.3143  12.8397  13.1718  34.6535  35.4705
    43.0109  44.8122

          k = 0.3143 0.0000 0.0000 (   303 PWs)   bands (ev):

     8.0045  11.3860  12.5467  12.7060  12.7060  13.3051  34.9526  34.9526
    36.6179  36.9261

          k = 0.3928 0.0786-0.0786 (   310 PWs)   bands (ev):

     9.2443  11.1623  12.2865  12.8434  13.4661  13.5126  29.7867  33.5757
    34.0305  37.2025

          k = 0.4714 0.1571-0.1571 (   313 PWs)   bands (ev):

    10.2803  11.1946  12.0775  12.7462  13.7346  15.1991  24.5439  31.3685
    33.3262  37.0738

          k =-0.1571-0.4714 0.4714 (   303 PWs)   bands (ev):

    10.6217  11.3555  12.0871  12.6292  13.6738  17.7392  20.6533  29.4445
    34.2806  37.3840

          k =-0.0786-0.3928 0.3928 (   307 PWs)   bands (ev):

    10.6351  11.5717  11.7982  12.5946  13.3198  16.3036  23.0094  28.4196
    36.3712  38.3762

          k = 0.0000-0.3143 0.3143 (   311 PWs)   bands (ev):

     9.8052  11.4864  11.9280  12.6371  12.8842  14.5307  27.5544  28.7686
    39.4156  40.1243

          k = 0.4714 0.0000 0.0000 (   310 PWs)   bands (ev):

     9.7217  10.8455  13.2977  13.3259  13.3259  13.5228  30.3426  31.7309
    31.7309  35.2790

          k = 0.5500 0.0786-0.0786 (   316 PWs)   bands (ev):

    10.1311  10.7246  12.9755  13.3323  13.7521  15.4712  27.3158  27.8540
    31.0605  36.0564

          k =-0.0786-0.5500 0.5500 (   307 PWs)   bands (ev):

    10.5193  10.8521  12.4989  13.1828  13.7313  18.5485  23.0550  25.5343
    31.6963  36.4517

          k =-0.0000-0.4714 0.4714 (   309 PWs)   bands (ev):

    10.9224  11.1112  11.9472  12.9591  13.4776  19.1635  21.9317  25.0361
    33.5482  37.1564

          k = 0.6285 0.0000 0.0000 (   310 PWs)   bands (ev):

     9.9811  10.5037  13.6665  13.8045  13.8045  16.2369  24.6999  29.9293
    29.9293  34.6585

          k = 0.0000-0.6285 0.6285 (   310 PWs)   bands (ev):

    10.1229  10.5554  13.3856  13.5691  13.8300  17.9003  23.6402  26.9365
    30.1556  35.7296

          k = 0.3143 0.1571 0.0000 (   306 PWs)   bands (ev):

     8.5256  11.4379  12.1866  12.7180  12.8511  13.5932  31.1598  31.9305
    38.1888  41.3932

          k = 0.3928 0.2357-0.0786 (   314 PWs)   bands (ev):

     9.9491  11.4269  11.8863  12.6608  13.2880  14.5560  25.9219  31.0821
    35.2248  41.4029

          k =-0.2357-0.3928 0.5500 (   305 PWs)   bands (ev):

    10.4915  11.5424  12.0391  12.5273  13.6124  16.5517  21.4159  31.4607
    33.0081  40.8879

          k = 0.4714 0.1571 0.0000 (   308 PWs)   bands (ev):

    10.1116  10.9897  12.2047  13.3076  13.3227  14.7266  28.5278  29.3104
    31.0072  39.4484

          k =-0.1571-0.4714 0.6285 (   309 PWs)   bands (ev):

    10.6557  11.0568  11.9947  13.0699  13.6665  17.1442  23.9271  28.3455
    29.3126  40.2783

          k =-0.0786-0.3928 0.5500 (   307 PWs)   bands (ev):

    11.0171  11.1046  11.7956  12.8921  13.6300  19.3060  21.1952  26.8171
    30.3867  41.0216

          k = 0.0000-0.3143 0.4714 (   311 PWs)   bands (ev):

    10.8799  11.4025  11.4670  12.9054  13.3394  16.5061  24.8497  26.6660
    32.4299  42.4190

          k =-0.0786-0.5500 0.7071 (   310 PWs)   bands (ev):

    10.2823  10.6995  12.8442  13.4660  13.8036  17.6039  25.0214  27.0257
    28.0506  38.4829

          k =-0.0000-0.4714 0.6285 (   304 PWs)   bands (ev):

    10.6023  10.9308  12.2883  13.1911  13.8003  20.1317  22.9774  24.3764
    28.5604  39.8941

          k =-0.0786-0.3928 0.7071 (   307 PWs)   bands (ev):

    10.8155  11.2980  11.6772  13.0356  13.8012  20.0589  23.2960  25.4122
    26.5265  44.9823

     the Fermi energy is    15.6124 ev

!    total energy              =     -87.84344709 Ry
     estimated scf accuracy    <          1.8E-09 Ry
     smearing contrib. (-TS)   =      -0.00008211 Ry
     internal energy E=F+TS    =     -87.84336498 Ry

     The total energy is F=E-TS. E is the sum of the following terms:
     one-electron contribution =      -8.04784024 Ry
     hartree contribution      =      18.17005858 Ry
     xc contribution           =     -14.08822689 Ry
     ewald contribution        =     -83.87735643 Ry

     total magnetization       =    -0.00 Bohr mag/cell
     absolute magnetization    =     0.00 Bohr mag/cell

     convergence has been achieved in   9 iterations

     Forces acting on atoms (cartesian axes, Ry/au):

     atom    1 type  1   force =     0.00000000    0.00000000    0.00000000
     The non-local contrib.  to forces
     atom    1 type  1   force =     0.00000000    0.00000000    0.00000000
     The ionic contribution  to forces
     atom    1 type  1   force =    -0.00000000   -0.00000000   -0.00000000
     The local contribution  to forces
     atom    1 type  1   force =     0.00000000   -0.00000000   -0.00000000
     The core correction contribution to forces
     atom    1 type  1   force =     0.00000000    0.00000000    0.00000000
     The Hubbard contrib.    to forces
     atom    1 type  1   force =     0.00000000    0.00000000    0.00000000
     The SCF correction term to forces
     atom    1 type  1   force =    -0.00000000   -0.00000000    0.00000000

     Total force =     0.000000     Total SCF correction =     0.000000


     Computing stress (Cartesian axis) and pressure

          total   stress  (Ry/bohr**3)                   (kbar)     P=       85.04
   0.00057809   0.00000000   0.00000000           85.04        0.00        0.00
   0.00000000   0.00057809   0.00000000            0.00       85.04        0.00
   0.00000000   0.00000000   0.00057809            0.00        0.00       85.04


     BFGS Geometry Optimization
     Energy error            =      0.0E+00 Ry
     Gradient error          =      0.0E+00 Ry/Bohr
     Cell gradient error     =      8.5E+01 kbar

     number of scf cycles    =   1
     number of bfgs steps    =   0

     enthalpy           new  =     -87.8434470869 Ry

     new trust radius        =       0.0245829427 bohr
     new conv_thr            =       0.0000001000 Ry

     new unit-cell volume =     75.51539 a.u.^3 (    11.19023 Ang^3 )
     density =      9.42971 g/cm^3

CELL_PARAMETERS (angstrom)
   0.000000000   1.775291323   1.775291323
   1.775291323   0.000000000   1.775291323
   1.775291323   1.775291323   0.000000000

ATOMIC_POSITIONS (angstrom)
Cu            0.0000000000        0.0000000000        0.0000000000



     Writing config-only to output data dir /home/gridsan/epan1/labutil/lab3_samples/problem3/Lab3/Cu_a_3.5_ecut_40_nk_9/pwscf.save/
     NEW-OLD atomic charge density approx. for the potential
     extrapolated charge   11.46345, renormalised to   11.00000
     Generating pointlists ...

     total cpu time spent up to now is        2.4 secs

     Self-consistent Calculation

     iteration #  1     ecut=    40.00 Ry     beta= 0.50
     Davidson diagonalization with overlap
     ethr =  1.00E-06,  avg # of iterations =  4.4

     total cpu time spent up to now is        2.8 secs

     total energy              =     -87.67579340 Ry
     estimated scf accuracy    <       0.16079307 Ry

     total magnetization       =    -0.00 Bohr mag/cell
     absolute magnetization    =     0.00 Bohr mag/cell

     iteration #  2     ecut=    40.00 Ry     beta= 0.50
     Davidson diagonalization with overlap
     ethr =  1.46E-03,  avg # of iterations =  2.0

     total cpu time spent up to now is        3.0 secs

     total energy              =     -87.84814696 Ry
     estimated scf accuracy    <       0.24343640 Ry

     total magnetization       =    -0.00 Bohr mag/cell
     absolute magnetization    =     0.00 Bohr mag/cell

     iteration #  3     ecut=    40.00 Ry     beta= 0.50
     Davidson diagonalization with overlap
     ethr =  1.46E-03,  avg # of iterations =  1.0

     total cpu time spent up to now is        3.2 secs

     total energy              =     -87.84668738 Ry
     estimated scf accuracy    <       0.05387528 Ry

     total magnetization       =    -0.00 Bohr mag/cell
     absolute magnetization    =     0.00 Bohr mag/cell

     iteration #  4     ecut=    40.00 Ry     beta= 0.50
     Davidson diagonalization with overlap
     ethr =  4.90E-04,  avg # of iterations =  1.0

     total cpu time spent up to now is        3.4 secs

     total energy              =     -87.84459759 Ry
     estimated scf accuracy    <       0.01511412 Ry

     total magnetization       =    -0.00 Bohr mag/cell
     absolute magnetization    =     0.00 Bohr mag/cell

     iteration #  5     ecut=    40.00 Ry     beta= 0.50
     Davidson diagonalization with overlap
     ethr =  1.37E-04,  avg # of iterations =  1.0

     total cpu time spent up to now is        3.6 secs

     total energy              =     -87.84343309 Ry
     estimated scf accuracy    <       0.00344043 Ry

     total magnetization       =    -0.00 Bohr mag/cell
     absolute magnetization    =     0.00 Bohr mag/cell

     iteration #  6     ecut=    40.00 Ry     beta= 0.50
     Davidson diagonalization with overlap
     ethr =  3.13E-05,  avg # of iterations =  1.3

     total cpu time spent up to now is        3.8 secs

     total energy              =     -87.84434664 Ry
     estimated scf accuracy    <       0.00013941 Ry

     total magnetization       =     0.00 Bohr mag/cell
     absolute magnetization    =     0.00 Bohr mag/cell

     iteration #  7     ecut=    40.00 Ry     beta= 0.50
     Davidson diagonalization with overlap
     ethr =  1.27E-06,  avg # of iterations =  1.2

     total cpu time spent up to now is        4.0 secs

     total energy              =     -87.84433314 Ry
     estimated scf accuracy    <       0.00004950 Ry

     total magnetization       =     0.00 Bohr mag/cell
     absolute magnetization    =     0.00 Bohr mag/cell

     iteration #  8     ecut=    40.00 Ry     beta= 0.50
     Davidson diagonalization with overlap
     ethr =  4.50E-07,  avg # of iterations =  1.0

     total cpu time spent up to now is        4.2 secs

     total energy              =     -87.84433856 Ry
     estimated scf accuracy    <       0.00000183 Ry

     total magnetization       =     0.00 Bohr mag/cell
     absolute magnetization    =     0.00 Bohr mag/cell

     iteration #  9     ecut=    40.00 Ry     beta= 0.50
     Davidson diagonalization with overlap
     ethr =  1.66E-08,  avg # of iterations =  1.1

     Magnetic moment per site  (integrated on atomic sphere of radius R)
     atom   1 (R=0.412)  charge=  9.7330  magn= -0.0000

     total cpu time spent up to now is        4.4 secs

     End of self-consistent calculation

 ------ SPIN UP ------------


          k = 0.0000 0.0000 0.0000 (   331 PWs)   bands (ev):

     5.1004  11.3576  11.3576  11.3576  12.2585  12.2585  39.1414  41.3570
    41.3570  41.3570

          k = 0.0774 0.0774-0.0774 (   316 PWs)   bands (ev):

     5.5639  11.2626  11.4426  11.4426  12.2307  12.2307  35.3470  39.6292
    40.2288  40.2288

          k = 0.1549 0.1549-0.1549 (   311 PWs)   bands (ev):

     6.8631  11.1059  11.5380  11.5380  12.2929  12.2929  29.2242  38.9416
    38.9416  38.9778

          k = 0.2323 0.2323-0.2323 (   308 PWs)   bands (ev):

     8.4802  11.4342  11.4461  11.4461  12.5884  12.5884  23.8063  38.0333
    38.2083  38.2083

          k = 0.3098 0.3098-0.3098 (   314 PWs)   bands (ev):

     9.1913  11.3374  11.3374  12.8450  12.8450  13.0947  19.6694  37.3787
    37.9668  37.9668

          k = 0.1549 0.0000 0.0000 (   307 PWs)   bands (ev):

     5.7168  11.1718  11.5129  11.5129  12.0935  12.3280  37.3485  37.6156
    37.6156  39.3507

          k = 0.2323 0.0774-0.0774 (   308 PWs)   bands (ev):

     6.7373  10.9739  11.6093  11.6629  12.0726  12.4221  31.5167  35.8071
    37.1640  40.3744

          k = 0.3098 0.1549-0.1549 (   309 PWs)   bands (ev):

     8.3102  10.9329  11.4149  11.6461  12.6022  12.6634  25.8226  34.8825
    36.2139  37.8692

          k = 0.3872 0.2323-0.2323 (   312 PWs)   bands (ev):

     9.3351  11.1888  11.5281  11.5993  12.8758  13.8053  21.0681  34.5482
    34.9317  36.8310

          k =-0.2323-0.3872 0.3872 (   312 PWs)   bands (ev):

     9.4804  11.1646  11.4694  11.9812  12.8328  14.8925  19.0953  33.0610
    36.0389  37.1185

          k =-0.1549-0.3098 0.3098 (   310 PWs)   bands (ev):

     9.1452  11.2919  11.3839  11.5321  12.5203  13.4973  22.5216  32.4161
    38.2059  38.2927

          k =-0.0774-0.2323 0.2323 (   307 PWs)   bands (ev):

     7.7774  10.9594  11.4818  11.6688  12.1238  12.7569  27.6464  32.6530
    40.2957  41.3291

          k =-0.0000-0.1549 0.1549 (   315 PWs)   bands (ev):

     6.3098  11.1017  11.5434  11.5788  12.0707  12.3807  33.2656  34.0271
    41.4822  43.0783

          k = 0.3098 0.0000 0.0000 (   303 PWs)   bands (ev):

     7.4083  10.7116  11.7971  11.9460  11.9460  12.5052  33.5144  33.5144
    35.2313  35.5774

          k = 0.3872 0.0774-0.0774 (   310 PWs)   bands (ev):

     8.6278  10.5025  11.5535  12.0747  12.6611  12.6996  28.5046  32.1824
    32.6720  35.7135

          k = 0.4647 0.1549-0.1549 (   313 PWs)   bands (ev):

     9.6535  10.5354  11.3582  11.9841  12.9074  14.3236  23.3853  30.0462
    31.9402  35.5939

          k =-0.1549-0.4647 0.4647 (   303 PWs)   bands (ev):

     9.9852  10.6901  11.3722  11.8749  12.8508  16.8200  19.5569  28.1605
    32.8603  35.9204

          k =-0.0774-0.3872 0.3872 (   307 PWs)   bands (ev):

     9.9909  10.8917  11.1010  11.8427  12.5200  15.3861  21.8854  27.1562
    34.8785  36.9101

          k = 0.0000-0.3098 0.3098 (   311 PWs)   bands (ev):

     9.1693  10.8066  11.2218  11.8825  12.1124  13.6647  26.3377  27.4845
    37.8217  38.6328

          k = 0.4647 0.0000 0.0000 (   310 PWs)   bands (ev):

     9.1150  10.2056  12.5150  12.5261  12.5261  12.7091  29.0524  30.4026
    30.4026  33.8937

          k = 0.5421 0.0774-0.0774 (   316 PWs)   bands (ev):

     9.5260  10.0922  12.2041  12.5319  12.9238  14.6025  26.1206  26.5824
    29.7563  34.6085

          k =-0.0774-0.5421 0.5421 (   307 PWs)   bands (ev):

     9.8997  10.2127  11.7584  12.3926  12.9045  17.5921  21.9595  24.3085
    30.3678  34.9853

          k =-0.0000-0.4647 0.4647 (   309 PWs)   bands (ev):

    10.2738  10.4605  11.2405  12.1839  12.6675  18.1699  20.8809  23.8139
    32.1527  35.6908

          k = 0.6196 0.0000 0.0000 (   310 PWs)   bands (ev):

     9.3909   9.8849  12.8435  12.9732  12.9732  15.3934  23.5004  28.6680
    28.6680  33.2725

          k = 0.0000-0.6196 0.6196 (   310 PWs)   bands (ev):

     9.5274   9.9333  12.5882  12.7529  12.9968  17.0069  22.4553  25.7333
    28.8853  34.2877

          k = 0.3098 0.1549-0.0000 (   306 PWs)   bands (ev):

     7.9164  10.7605  11.4611  11.9571  12.0822  12.7761  29.8494  30.5798
    36.7072  39.8576

          k = 0.3872 0.2323-0.0774 (   314 PWs)   bands (ev):

     9.3172  10.7518  11.1803  11.9045  12.4913  13.6934  24.7281  29.7639
    33.7897  39.8199

          k =-0.2323-0.3872 0.5421 (   305 PWs)   bands (ev):

     9.8577  10.8642  11.3280  11.7800  12.7937  15.6485  20.3111  30.1483
    31.6090  39.3409

          k = 0.4647 0.1549 0.0000 (   308 PWs)   bands (ev):

     9.4901  10.3407  11.4773  12.5105  12.5231  13.8626  27.2891  28.0518
    29.6531  37.9502

          k =-0.1549-0.4647 0.6196 (   309 PWs)   bands (ev):

    10.0244  10.4051  11.2819  12.2879  12.8442  16.2096  22.7944  27.1098
    27.9980  38.7266

          k =-0.0774-0.3872 0.5421 (   307 PWs)   bands (ev):

    10.3642  10.4526  11.0979  12.1213  12.8100  18.3295  20.1140  25.5892
    29.0669  39.4534

          k = 0.0000-0.3098 0.4647 (   311 PWs)   bands (ev):

    10.2274  10.7283  10.7890  12.1345  12.5385  15.5776  23.7104  25.4285
    31.0588  40.8129

          k =-0.0774-0.5421 0.6970 (   310 PWs)   bands (ev):

     9.6769  10.0684  12.0815  12.6575  12.9723  16.6849  23.8322  25.8360
    26.7881  37.0040

          k =-0.0000-0.4647 0.6196 (   304 PWs)   bands (ev):

     9.9811  10.2854  11.5610  12.4004  12.9692  19.1456  21.9046  23.1555
    27.2938  38.3502

          k =-0.0774-0.3872 0.6970 (   307 PWs)   bands (ev):

    10.1832  10.6302  10.9855  12.2552  12.9701  19.0497  22.2081  24.2616
    25.2357  43.3380

 ------ SPIN DOWN ----------


          k = 0.0000 0.0000 0.0000 (   331 PWs)   bands (ev):

     5.1004  11.3576  11.3576  11.3576  12.2585  12.2585  39.1414  41.3570
    41.3570  41.3570

          k = 0.0774 0.0774-0.0774 (   316 PWs)   bands (ev):

     5.5639  11.2626  11.4426  11.4426  12.2307  12.2307  35.3470  39.6292
    40.2288  40.2288

          k = 0.1549 0.1549-0.1549 (   311 PWs)   bands (ev):

     6.8631  11.1059  11.5380  11.5380  12.2929  12.2929  29.2242  38.9416
    38.9416  38.9778

          k = 0.2323 0.2323-0.2323 (   308 PWs)   bands (ev):

     8.4802  11.4342  11.4461  11.4461  12.5884  12.5884  23.8063  38.0333
    38.2083  38.2083

          k = 0.3098 0.3098-0.3098 (   314 PWs)   bands (ev):

     9.1913  11.3374  11.3374  12.8450  12.8450  13.0947  19.6694  37.3787
    37.9668  37.9668

          k = 0.1549 0.0000 0.0000 (   307 PWs)   bands (ev):

     5.7168  11.1718  11.5129  11.5129  12.0935  12.3280  37.3485  37.6156
    37.6156  39.3508

          k = 0.2323 0.0774-0.0774 (   308 PWs)   bands (ev):

     6.7373  10.9738  11.6093  11.6629  12.0726  12.4221  31.5167  35.8071
    37.1640  40.3744

          k = 0.3098 0.1549-0.1549 (   309 PWs)   bands (ev):

     8.3102  10.9329  11.4149  11.6461  12.6022  12.6634  25.8226  34.8825
    36.2139  37.8692

          k = 0.3872 0.2323-0.2323 (   312 PWs)   bands (ev):

     9.3351  11.1888  11.5281  11.5993  12.8758  13.8053  21.0681  34.5482
    34.9317  36.8310

          k =-0.2323-0.3872 0.3872 (   312 PWs)   bands (ev):

     9.4804  11.1646  11.4694  11.9812  12.8328  14.8925  19.0953  33.0610
    36.0389  37.1185

          k =-0.1549-0.3098 0.3098 (   310 PWs)   bands (ev):

     9.1452  11.2919  11.3839  11.5321  12.5203  13.4973  22.5216  32.4161
    38.2059  38.2927

          k =-0.0774-0.2323 0.2323 (   307 PWs)   bands (ev):

     7.7774  10.9593  11.4818  11.6688  12.1238  12.7569  27.6464  32.6530
    40.2957  41.3291

          k =-0.0000-0.1549 0.1549 (   315 PWs)   bands (ev):

     6.3098  11.1017  11.5434  11.5788  12.0707  12.3807  33.2656  34.0271
    41.4822  43.0783

          k = 0.3098 0.0000 0.0000 (   303 PWs)   bands (ev):

     7.4083  10.7116  11.7971  11.9460  11.9460  12.5052  33.5144  33.5144
    35.2313  35.5774

          k = 0.3872 0.0774-0.0774 (   310 PWs)   bands (ev):

     8.6278  10.5025  11.5535  12.0747  12.6611  12.6996  28.5046  32.1824
    32.6720  35.7135

          k = 0.4647 0.1549-0.1549 (   313 PWs)   bands (ev):

     9.6535  10.5353  11.3582  11.9841  12.9074  14.3236  23.3853  30.0462
    31.9402  35.5939

          k =-0.1549-0.4647 0.4647 (   303 PWs)   bands (ev):

     9.9852  10.6901  11.3722  11.8749  12.8508  16.8200  19.5569  28.1605
    32.8603  35.9204

          k =-0.0774-0.3872 0.3872 (   307 PWs)   bands (ev):

     9.9909  10.8917  11.1010  11.8427  12.5200  15.3861  21.8854  27.1563
    34.8785  36.9101

          k = 0.0000-0.3098 0.3098 (   311 PWs)   bands (ev):

     9.1693  10.8066  11.2218  11.8825  12.1124  13.6647  26.3377  27.4845
    37.8217  38.6328

          k = 0.4647 0.0000 0.0000 (   310 PWs)   bands (ev):

     9.1150  10.2056  12.5150  12.5261  12.5261  12.7091  29.0524  30.4026
    30.4026  33.8937

          k = 0.5421 0.0774-0.0774 (   316 PWs)   bands (ev):

     9.5260  10.0922  12.2041  12.5319  12.9238  14.6025  26.1206  26.5824
    29.7563  34.6085

          k =-0.0774-0.5421 0.5421 (   307 PWs)   bands (ev):

     9.8997  10.2127  11.7584  12.3926  12.9045  17.5921  21.9595  24.3086
    30.3678  34.9853

          k =-0.0000-0.4647 0.4647 (   309 PWs)   bands (ev):

    10.2738  10.4605  11.2405  12.1839  12.6674  18.1699  20.8809  23.8139
    32.1527  35.6908

          k = 0.6196 0.0000 0.0000 (   310 PWs)   bands (ev):

     9.3909   9.8849  12.8435  12.9732  12.9732  15.3934  23.5004  28.6680
    28.6680  33.2725

          k = 0.0000-0.6196 0.6196 (   310 PWs)   bands (ev):

     9.5274   9.9333  12.5882  12.7529  12.9968  17.0069  22.4553  25.7333
    28.8853  34.2877

          k = 0.3098 0.1549-0.0000 (   306 PWs)   bands (ev):

     7.9164  10.7605  11.4611  11.9571  12.0822  12.7761  29.8494  30.5798
    36.7072  39.8576

          k = 0.3872 0.2323-0.0774 (   314 PWs)   bands (ev):

     9.3172  10.7518  11.1803  11.9045  12.4913  13.6934  24.7281  29.7639
    33.7897  39.8199

          k =-0.2323-0.3872 0.5421 (   305 PWs)   bands (ev):

     9.8577  10.8642  11.3280  11.7800  12.7937  15.6485  20.3111  30.1483
    31.6090  39.3409

          k = 0.4647 0.1549 0.0000 (   308 PWs)   bands (ev):

     9.4901  10.3407  11.4773  12.5105  12.5231  13.8626  27.2891  28.0518
    29.6532  37.9502

          k =-0.1549-0.4647 0.6196 (   309 PWs)   bands (ev):

    10.0244  10.4051  11.2819  12.2879  12.8442  16.2096  22.7944  27.1098
    27.9980  38.7266

          k =-0.0774-0.3872 0.5421 (   307 PWs)   bands (ev):

    10.3641  10.4526  11.0979  12.1213  12.8100  18.3295  20.1140  25.5892
    29.0669  39.4535

          k = 0.0000-0.3098 0.4647 (   311 PWs)   bands (ev):

    10.2274  10.7283  10.7890  12.1345  12.5384  15.5776  23.7104  25.4285
    31.0588  40.8129

          k =-0.0774-0.5421 0.6970 (   310 PWs)   bands (ev):

     9.6769  10.0684  12.0815  12.6575  12.9723  16.6849  23.8322  25.8360
    26.7881  37.0040

          k =-0.0000-0.4647 0.6196 (   304 PWs)   bands (ev):

     9.9811  10.2854  11.5610  12.4004  12.9692  19.1456  21.9046  23.1555
    27.2938  38.3502

          k =-0.0774-0.3872 0.6970 (   307 PWs)   bands (ev):

    10.1832  10.6302  10.9855  12.2552  12.9701  19.0497  22.2081  24.2616
    25.2357  43.3381

     the Fermi energy is    14.7587 ev

!    total energy              =     -87.84433882 Ry
     estimated scf accuracy    <       0.00000003 Ry
     smearing contrib. (-TS)   =      -0.00005027 Ry
     internal energy E=F+TS    =     -87.84428856 Ry

     The total energy is F=E-TS. E is the sum of the following terms:
     one-electron contribution =      -9.86770958 Ry
     hartree contribution      =      18.76772524 Ry
     xc contribution           =     -14.06188932 Ry
     ewald contribution        =     -82.68241490 Ry

     total magnetization       =     0.00 Bohr mag/cell
     absolute magnetization    =     0.00 Bohr mag/cell

     convergence has been achieved in   9 iterations

     Forces acting on atoms (cartesian axes, Ry/au):

     atom    1 type  1   force =     0.00000000    0.00000000    0.00000000
     The non-local contrib.  to forces
     atom    1 type  1   force =     0.00000000    0.00000000   -0.00000000
     The ionic contribution  to forces
     atom    1 type  1   force =    -0.00000000   -0.00000000   -0.00000000
     The local contribution  to forces
     atom    1 type  1   force =    -0.00000000   -0.00000000   -0.00000000
     The core correction contribution to forces
     atom    1 type  1   force =     0.00000000    0.00000000    0.00000000
     The Hubbard contrib.    to forces
     atom    1 type  1   force =     0.00000000    0.00000000    0.00000000
     The SCF correction term to forces
     atom    1 type  1   force =     0.00000000   -0.00000000   -0.00000000

     Total force =     0.000000     Total SCF correction =     0.000000


     Computing stress (Cartesian axis) and pressure

          total   stress  (Ry/bohr**3)                   (kbar)     P=       -2.61
  -0.00001776  -0.00000000  -0.00000000           -2.61       -0.00       -0.00
  -0.00000000  -0.00001776  -0.00000000           -0.00       -2.61       -0.00
  -0.00000000  -0.00000000  -0.00001776           -0.00       -0.00       -2.61

     Energy error            =      8.9E-04 Ry
     Gradient error          =      0.0E+00 Ry/Bohr
     Cell gradient error     =      2.6E+00 kbar

     number of scf cycles    =   2
     number of bfgs steps    =   1

     enthalpy           old  =     -87.8434470869 Ry
     enthalpy           new  =     -87.8443388228 Ry

     CASE: enthalpy          _new < enthalpy          _old

     new trust radius        =       0.0007588965 bohr
     new conv_thr            =       0.0000000010 Ry

     new unit-cell volume =     75.41651 a.u.^3 (    11.17557 Ang^3 )
     density =      9.44208 g/cm^3

CELL_PARAMETERS (angstrom)
   0.000000000   1.774516140   1.774516140
   1.774516140   0.000000000   1.774516140
   1.774516140   1.774516140   0.000000000

ATOMIC_POSITIONS (angstrom)
Cu            0.0000000000        0.0000000000        0.0000000000



     Writing config-only to output data dir /home/gridsan/epan1/labutil/lab3_samples/problem3/Lab3/Cu_a_3.5_ecut_40_nk_9/pwscf.save/
     NEW-OLD atomic charge density approx. for the potential
     extrapolated charge   10.98558, renormalised to   11.00000
     Generating pointlists ...

     total cpu time spent up to now is        4.6 secs

     Self-consistent Calculation

     iteration #  1     ecut=    40.00 Ry     beta= 0.50
     Davidson diagonalization with overlap
     ethr =  1.00E-06,  avg # of iterations =  2.0

     total cpu time spent up to now is        4.8 secs

     total energy              =     -87.84419522 Ry
     estimated scf accuracy    <       0.00013726 Ry

     total magnetization       =     0.00 Bohr mag/cell
     absolute magnetization    =     0.00 Bohr mag/cell

     iteration #  2     ecut=    40.00 Ry     beta= 0.50
     Davidson diagonalization with overlap
     ethr =  1.25E-06,  avg # of iterations =  2.0

     total cpu time spent up to now is        5.1 secs

     total energy              =     -87.84433386 Ry
     estimated scf accuracy    <       0.00022759 Ry

     total magnetization       =     0.00 Bohr mag/cell
     absolute magnetization    =     0.00 Bohr mag/cell

     iteration #  3     ecut=    40.00 Ry     beta= 0.50
     Davidson diagonalization with overlap
     ethr =  1.25E-06,  avg # of iterations =  1.0

     total cpu time spent up to now is        5.3 secs

     total energy              =     -87.84434512 Ry
     estimated scf accuracy    <       0.00003865 Ry

     total magnetization       =     0.00 Bohr mag/cell
     absolute magnetization    =     0.00 Bohr mag/cell

     iteration #  4     ecut=    40.00 Ry     beta= 0.50
     Davidson diagonalization with overlap
     ethr =  3.51E-07,  avg # of iterations =  1.0

     total cpu time spent up to now is        5.4 secs

     total energy              =     -87.84433359 Ry
     estimated scf accuracy    <       0.00002692 Ry

     total magnetization       =     0.00 Bohr mag/cell
     absolute magnetization    =     0.00 Bohr mag/cell

     iteration #  5     ecut=    40.00 Ry     beta= 0.50
     Davidson diagonalization with overlap
     ethr =  2.45E-07,  avg # of iterations =  1.0

     total cpu time spent up to now is        5.6 secs

     total energy              =     -87.84433695 Ry
     estimated scf accuracy    <       0.00000054 Ry

     total magnetization       =     0.00 Bohr mag/cell
     absolute magnetization    =     0.00 Bohr mag/cell

     iteration #  6     ecut=    40.00 Ry     beta= 0.50
     Davidson diagonalization with overlap
     ethr =  4.91E-09,  avg # of iterations =  2.0

     total cpu time spent up to now is        5.9 secs

     total energy              =     -87.84433708 Ry
     estimated scf accuracy    <       0.00000099 Ry

     total magnetization       =     0.00 Bohr mag/cell
     absolute magnetization    =     0.00 Bohr mag/cell

     iteration #  7     ecut=    40.00 Ry     beta= 0.50
     Davidson diagonalization with overlap
     ethr =  4.91E-09,  avg # of iterations =  1.3

     total cpu time spent up to now is        6.1 secs

     total energy              =     -87.84433725 Ry
     estimated scf accuracy    <          3.8E-09 Ry

     total magnetization       =     0.00 Bohr mag/cell
     absolute magnetization    =     0.00 Bohr mag/cell

     iteration #  8     ecut=    40.00 Ry     beta= 0.50
     Davidson diagonalization with overlap
     ethr =  3.46E-11,  avg # of iterations =  2.1

     total cpu time spent up to now is        6.3 secs

     total energy              =     -87.84433725 Ry
     estimated scf accuracy    <          2.4E-09 Ry

     total magnetization       =     0.00 Bohr mag/cell
     absolute magnetization    =     0.00 Bohr mag/cell

     iteration #  9     ecut=    40.00 Ry     beta= 0.50
     Davidson diagonalization with overlap
     ethr =  2.14E-11,  avg # of iterations =  1.1

     Magnetic moment per site  (integrated on atomic sphere of radius R)
     atom   1 (R=0.412)  charge=  9.7344  magn= -0.0000

     total cpu time spent up to now is        6.5 secs

     End of self-consistent calculation

 ------ SPIN UP ------------


          k = 0.0000 0.0000 0.0000 (   331 PWs)   bands (ev):

     5.1161  11.3784  11.3784  11.3784  12.2811  12.2811  39.1818  41.4067
    41.4067  41.4067

          k = 0.0775 0.0775-0.0775 (   316 PWs)   bands (ev):

     5.5801  11.2832  11.4636  11.4636  12.2532  12.2532  35.3900  39.6722
    40.2779  40.2779

          k = 0.1550 0.1550-0.1550 (   311 PWs)   bands (ev):

     6.8804  11.1261  11.5592  11.5592  12.3155  12.3155  29.2630  38.9900
    38.9900  39.0193

          k = 0.2324 0.2324-0.2324 (   308 PWs)   bands (ev):

     8.4982  11.4550  11.4670  11.4670  12.6116  12.6116  23.8414  38.0732
    38.2565  38.2565

          k = 0.3099 0.3099-0.3099 (   314 PWs)   bands (ev):

     9.2089  11.3581  11.3581  12.8688  12.8688  13.1168  19.7022  37.4177
    38.0153  38.0153

          k = 0.1550 0.0000 0.0000 (   307 PWs)   bands (ev):

     5.7332  11.1922  11.5340  11.5340  12.1158  12.3507  37.3898  37.6623
    37.6623  39.3964

          k = 0.2324 0.0775-0.0775 (   308 PWs)   bands (ev):

     6.7545  10.9938  11.6306  11.6843  12.0948  12.4450  31.5572  35.8522
    37.2062  40.4207

          k = 0.3099 0.1550-0.1550 (   309 PWs)   bands (ev):

     8.3283  10.9529  11.4358  11.6674  12.6254  12.6867  25.8590  34.9268
    36.2542  37.9181

          k = 0.3874 0.2324-0.2324 (   312 PWs)   bands (ev):

     9.3531  11.2092  11.5492  11.6203  12.8996  13.8299  21.1013  34.5896
    34.9762  36.8760

          k =-0.2324-0.3874 0.3874 (   312 PWs)   bands (ev):

     9.4983  11.1850  11.4903  12.0028  12.8565  14.9173  19.1280  33.1024
    36.0846  37.1618

          k =-0.1550-0.3099 0.3099 (   310 PWs)   bands (ev):

     9.1633  11.3125  11.4046  11.5532  12.5433  13.5220  22.5557  32.4573
    38.2541  38.3360

          k =-0.0775-0.2324 0.2324 (   307 PWs)   bands (ev):

     7.7953  10.9793  11.5027  11.6902  12.1461  12.7805  27.6840  32.6945
    40.3403  41.3812

          k =-0.0000-0.1550 0.1550 (   315 PWs)   bands (ev):

     6.3266  11.1220  11.5645  11.6000  12.0929  12.4035  33.3069  34.0702
    41.5279  43.1303

          k = 0.3099 0.0000 0.0000 (   303 PWs)   bands (ev):

     7.4260  10.7311  11.8187  11.9679  11.9679  12.5283  33.5572  33.5572
    35.2725  35.6176

          k = 0.3874 0.0775-0.0775 (   310 PWs)   bands (ev):

     8.6460  10.5216  11.5747  12.0968  12.6844  12.7231  28.5427  32.2238
    32.7125  35.7578

          k = 0.4649 0.1550-0.1550 (   313 PWs)   bands (ev):

     9.6718  10.5545  11.3790  12.0061  12.9313  14.3492  23.4197  30.0855
    31.9814  35.6379

          k =-0.1550-0.4649 0.4649 (   303 PWs)   bands (ev):

    10.0037  10.7094  11.3929  11.8967  12.8745  16.8471  19.5892  28.1987
    32.9025  35.9640

          k =-0.0775-0.3874 0.3874 (   307 PWs)   bands (ev):

    10.0096  10.9114  11.1212  11.8644  12.5431  15.4130  21.9187  27.1938
    34.9229  36.9538

          k = 0.0000-0.3099 0.3099 (   311 PWs)   bands (ev):

     9.1880  10.8263  11.2422  11.9043  12.1347  13.6898  26.3737  27.5227
    37.8691  38.6774

          k = 0.4649 0.0000 0.0000 (   310 PWs)   bands (ev):

     9.1328  10.2240  12.5379  12.5492  12.5492  12.7325  29.0908  30.4421
    30.4421  33.9347

          k = 0.5424 0.0775-0.0775 (   316 PWs)   bands (ev):

     9.5436  10.1105  12.2264  12.5550  12.9477  14.6280  26.1561  26.6201
    29.7951  34.6515

          k =-0.0775-0.5424 0.5424 (   307 PWs)   bands (ev):

     9.9176  10.2312  11.7799  12.4154  12.9284  17.6203  21.9920  24.3449
    30.4073  35.0289

          k =-0.0000-0.4649 0.4649 (   309 PWs)   bands (ev):

    10.2926  10.4794  11.2609  12.2063  12.6908  18.1992  20.9119  23.8501
    32.1943  35.7344

          k = 0.6199 0.0000 0.0000 (   310 PWs)   bands (ev):

     9.4081   9.9028  12.8672  12.9971  12.9971  15.4184  23.5359  28.7056
    28.7056  33.3135

          k = 0.0000-0.6199 0.6199 (   310 PWs)   bands (ev):

     9.5447   9.9513  12.6113  12.7765  13.0208  17.0333  22.4904  25.7691
    28.9232  34.3305

          k = 0.3099 0.1550-0.0000 (   306 PWs)   bands (ev):

     7.9344  10.7800  11.4820  11.9791  12.1044  12.7997  29.8883  30.6200
    36.7514  39.9033

          k = 0.3874 0.2324-0.0775 (   314 PWs)   bands (ev):

     9.3358  10.7714  11.2007  11.9263  12.5143  13.7185  24.7635  29.8031
    33.8324  39.8671

          k =-0.2324-0.3874 0.5424 (   305 PWs)   bands (ev):

     9.8762  10.8839  11.3486  11.8016  12.8173  15.6751  20.3437  30.1874
    31.6505  39.3871

          k = 0.4649 0.1550-0.0000 (   308 PWs)   bands (ev):

     9.5083  10.3595  11.4983  12.5336  12.5462  13.8878  27.3259  28.0893
    29.6933  37.9948

          k =-0.1550-0.4649 0.6199 (   309 PWs)   bands (ev):

    10.0427  10.4240  11.3025  12.3105  12.8679  16.2371  22.8280  27.1465
    28.0370  38.7728

          k =-0.0775-0.3874 0.5424 (   307 PWs)   bands (ev):

    10.3831  10.4716  11.1181  12.1435  12.8336  18.3583  20.1460  25.6256
    29.1061  39.5002

          k = 0.0000-0.3099 0.4649 (   311 PWs)   bands (ev):

    10.2465  10.7478  10.8086  12.1568  12.5616  15.6048  23.7441  25.4653
    31.0995  40.8609

          k =-0.0775-0.5424 0.6973 (   310 PWs)   bands (ev):

     9.6945  10.0867  12.1036  12.6808  12.9963  16.7121  23.8674  25.8713
    26.8256  37.0480

          k =-0.0000-0.4649 0.6199 (   304 PWs)   bands (ev):

     9.9991  10.3041  11.5821  12.4232  12.9932  19.1747  21.9364  23.1917
    27.3314  38.3962

          k =-0.0775-0.3874 0.6973 (   307 PWs)   bands (ev):

    10.2015  10.6495  11.0055  12.2777  12.9941  19.0795  22.2403  24.2958
    25.2739  43.3870

 ------ SPIN DOWN ----------


          k = 0.0000 0.0000 0.0000 (   331 PWs)   bands (ev):

     5.1161  11.3784  11.3784  11.3784  12.2811  12.2811  39.1818  41.4067
    41.4067  41.4067

          k = 0.0775 0.0775-0.0775 (   316 PWs)   bands (ev):

     5.5801  11.2832  11.4636  11.4636  12.2532  12.2532  35.3900  39.6722
    40.2779  40.2779

          k = 0.1550 0.1550-0.1550 (   311 PWs)   bands (ev):

     6.8804  11.1261  11.5592  11.5592  12.3155  12.3155  29.2630  38.9900
    38.9900  39.0193

          k = 0.2324 0.2324-0.2324 (   308 PWs)   bands (ev):

     8.4982  11.4550  11.4670  11.4670  12.6116  12.6116  23.8414  38.0732
    38.2565  38.2565

          k = 0.3099 0.3099-0.3099 (   314 PWs)   bands (ev):

     9.2089  11.3581  11.3581  12.8688  12.8688  13.1168  19.7022  37.4177
    38.0153  38.0153

          k = 0.1550 0.0000 0.0000 (   307 PWs)   bands (ev):

     5.7332  11.1922  11.5340  11.5340  12.1158  12.3507  37.3898  37.6623
    37.6623  39.3964

          k = 0.2324 0.0775-0.0775 (   308 PWs)   bands (ev):

     6.7545  10.9938  11.6306  11.6843  12.0948  12.4450  31.5572  35.8522
    37.2062  40.4207

          k = 0.3099 0.1550-0.1550 (   309 PWs)   bands (ev):

     8.3283  10.9529  11.4358  11.6674  12.6254  12.6867  25.8590  34.9268
    36.2542  37.9181

          k = 0.3874 0.2324-0.2324 (   312 PWs)   bands (ev):

     9.3531  11.2092  11.5492  11.6203  12.8996  13.8299  21.1013  34.5896
    34.9762  36.8760

          k =-0.2324-0.3874 0.3874 (   312 PWs)   bands (ev):

     9.4983  11.1850  11.4903  12.0028  12.8565  14.9173  19.1280  33.1024
    36.0846  37.1618

          k =-0.1550-0.3099 0.3099 (   310 PWs)   bands (ev):

     9.1633  11.3125  11.4046  11.5532  12.5433  13.5220  22.5557  32.4573
    38.2541  38.3360

          k =-0.0775-0.2324 0.2324 (   307 PWs)   bands (ev):

     7.7953  10.9793  11.5027  11.6902  12.1461  12.7805  27.6840  32.6945
    40.3403  41.3812

          k =-0.0000-0.1550 0.1550 (   315 PWs)   bands (ev):

     6.3266  11.1220  11.5645  11.6000  12.0929  12.4035  33.3069  34.0702
    41.5279  43.1303

          k = 0.3099 0.0000 0.0000 (   303 PWs)   bands (ev):

     7.4260  10.7311  11.8187  11.9679  11.9679  12.5283  33.5572  33.5572
    35.2725  35.6176

          k = 0.3874 0.0775-0.0775 (   310 PWs)   bands (ev):

     8.6460  10.5216  11.5747  12.0968  12.6844  12.7231  28.5427  32.2238
    32.7125  35.7578

          k = 0.4649 0.1550-0.1550 (   313 PWs)   bands (ev):

     9.6718  10.5545  11.3790  12.0061  12.9313  14.3492  23.4197  30.0855
    31.9814  35.6379

          k =-0.1550-0.4649 0.4649 (   303 PWs)   bands (ev):

    10.0037  10.7094  11.3929  11.8967  12.8745  16.8471  19.5892  28.1987
    32.9025  35.9640

          k =-0.0775-0.3874 0.3874 (   307 PWs)   bands (ev):

    10.0096  10.9114  11.1212  11.8644  12.5431  15.4130  21.9187  27.1938
    34.9229  36.9538

          k = 0.0000-0.3099 0.3099 (   311 PWs)   bands (ev):

     9.1880  10.8263  11.2422  11.9043  12.1347  13.6898  26.3737  27.5227
    37.8691  38.6774

          k = 0.4649 0.0000 0.0000 (   310 PWs)   bands (ev):

     9.1328  10.2240  12.5379  12.5492  12.5492  12.7325  29.0908  30.4421
    30.4421  33.9347

          k = 0.5424 0.0775-0.0775 (   316 PWs)   bands (ev):

     9.5436  10.1105  12.2264  12.5550  12.9477  14.6280  26.1561  26.6201
    29.7951  34.6515

          k =-0.0775-0.5424 0.5424 (   307 PWs)   bands (ev):

     9.9176  10.2312  11.7799  12.4154  12.9284  17.6203  21.9920  24.3449
    30.4073  35.0289

          k =-0.0000-0.4649 0.4649 (   309 PWs)   bands (ev):

    10.2926  10.4794  11.2609  12.2063  12.6908  18.1992  20.9119  23.8501
    32.1943  35.7344

          k = 0.6199 0.0000 0.0000 (   310 PWs)   bands (ev):

     9.4081   9.9028  12.8672  12.9971  12.9971  15.4184  23.5359  28.7056
    28.7056  33.3135

          k = 0.0000-0.6199 0.6199 (   310 PWs)   bands (ev):

     9.5447   9.9513  12.6113  12.7765  13.0208  17.0333  22.4904  25.7691
    28.9232  34.3305

          k = 0.3099 0.1550-0.0000 (   306 PWs)   bands (ev):

     7.9344  10.7800  11.4820  11.9791  12.1044  12.7997  29.8883  30.6200
    36.7514  39.9033

          k = 0.3874 0.2324-0.0775 (   314 PWs)   bands (ev):

     9.3358  10.7714  11.2007  11.9263  12.5143  13.7185  24.7635  29.8031
    33.8324  39.8671

          k =-0.2324-0.3874 0.5424 (   305 PWs)   bands (ev):

     9.8762  10.8839  11.3486  11.8016  12.8173  15.6751  20.3437  30.1874
    31.6505  39.3871

          k = 0.4649 0.1550-0.0000 (   308 PWs)   bands (ev):

     9.5083  10.3595  11.4983  12.5336  12.5462  13.8878  27.3259  28.0893
    29.6933  37.9948

          k =-0.1550-0.4649 0.6199 (   309 PWs)   bands (ev):

    10.0427  10.4240  11.3025  12.3105  12.8679  16.2371  22.8280  27.1465
    28.0370  38.7728

          k =-0.0775-0.3874 0.5424 (   307 PWs)   bands (ev):

    10.3831  10.4716  11.1181  12.1435  12.8336  18.3583  20.1460  25.6256
    29.1061  39.5002

          k = 0.0000-0.3099 0.4649 (   311 PWs)   bands (ev):

    10.2465  10.7478  10.8086  12.1568  12.5616  15.6048  23.7441  25.4653
    31.0995  40.8609

          k =-0.0775-0.5424 0.6973 (   310 PWs)   bands (ev):

     9.6945  10.0867  12.1036  12.6808  12.9963  16.7121  23.8674  25.8713
    26.8256  37.0480

          k =-0.0000-0.4649 0.6199 (   304 PWs)   bands (ev):

     9.9991  10.3041  11.5821  12.4232  12.9932  19.1747  21.9364  23.1917
    27.3314  38.3962

          k =-0.0775-0.3874 0.6973 (   307 PWs)   bands (ev):

    10.2015  10.6495  11.0055  12.2777  12.9941  19.0795  22.2403  24.2958
    25.2739  43.3870

     the Fermi energy is    14.7838 ev

!    total energy              =     -87.84433725 Ry
     estimated scf accuracy    <          5.2E-12 Ry
     smearing contrib. (-TS)   =      -0.00005127 Ry
     internal energy E=F+TS    =     -87.84428598 Ry

     The total energy is F=E-TS. E is the sum of the following terms:
     one-electron contribution =      -9.81321071 Ry
     hartree contribution      =      18.75029264 Ry
     xc contribution           =     -14.06283386 Ry
     ewald contribution        =     -82.71853406 Ry

     total magnetization       =     0.00 Bohr mag/cell
     absolute magnetization    =     0.00 Bohr mag/cell

     convergence has been achieved in   9 iterations

     Forces acting on atoms (cartesian axes, Ry/au):

     atom    1 type  1   force =     0.00000000    0.00000000    0.00000000
     The non-local contrib.  to forces
     atom    1 type  1   force =     0.00000000    0.00000000   -0.00000000
     The ionic contribution  to forces
     atom    1 type  1   force =    -0.00000000   -0.00000000   -0.00000000
     The local contribution  to forces
     atom    1 type  1   force =    -0.00000000   -0.00000000   -0.00000000
     The core correction contribution to forces
     atom    1 type  1   force =     0.00000000    0.00000000    0.00000000
     The Hubbard contrib.    to forces
     atom    1 type  1   force =     0.00000000    0.00000000    0.00000000
     The SCF correction term to forces
     atom    1 type  1   force =    -0.00000000    0.00000000   -0.00000000

     Total force =     0.000000     Total SCF correction =     0.000000


     Computing stress (Cartesian axis) and pressure

          total   stress  (Ry/bohr**3)                   (kbar)     P=        3.46
   0.00002355  -0.00000000   0.00000000            3.46       -0.00        0.00
  -0.00000000   0.00002355   0.00000000           -0.00        3.46        0.00
   0.00000000  -0.00000000   0.00002355            0.00       -0.00        3.46

     Energy error            =      1.6E-06 Ry
     Gradient error          =      0.0E+00 Ry/Bohr
     Cell gradient error     =      3.5E+00 kbar

     number of scf cycles    =   3
     number of bfgs steps    =   2

     enthalpy           old  =     -87.8443388228 Ry
     enthalpy           new  =     -87.8443372479 Ry

     CASE: enthalpy          _new > enthalpy          _old

     new trust radius        =       0.0002000505 bohr
     new conv_thr            =       0.0000000010 Ry

     new unit-cell volume =     75.48931 a.u.^3 (    11.18636 Ang^3 )
     density =      9.43297 g/cm^3

CELL_PARAMETERS (angstrom)
   0.000000000   1.775086935   1.775086935
   1.775086935   0.000000000   1.775086935
   1.775086935   1.775086935   0.000000000

ATOMIC_POSITIONS (angstrom)
Cu            0.0000000000        0.0000000000        0.0000000000



     Writing config-only to output data dir /home/gridsan/epan1/labutil/lab3_samples/problem3/Lab3/Cu_a_3.5_ecut_40_nk_9/pwscf.save/
     NEW-OLD atomic charge density approx. for the potential
     extrapolated charge   11.01061, renormalised to   11.00000
     Generating pointlists ...

     total cpu time spent up to now is        6.7 secs

     Self-consistent Calculation

     iteration #  1     ecut=    40.00 Ry     beta= 0.50
     Davidson diagonalization with overlap
     ethr =  1.00E-06,  avg # of iterations =  2.0

     total cpu time spent up to now is        6.9 secs

     total energy              =     -87.84426285 Ry
     estimated scf accuracy    <       0.00007169 Ry

     total magnetization       =     0.00 Bohr mag/cell
     absolute magnetization    =     0.00 Bohr mag/cell

     iteration #  2     ecut=    40.00 Ry     beta= 0.50
     Davidson diagonalization with overlap
     ethr =  6.52E-07,  avg # of iterations =  2.0

     total cpu time spent up to now is        7.2 secs

     total energy              =     -87.84433722 Ry
     estimated scf accuracy    <       0.00012278 Ry

     total magnetization       =    -0.00 Bohr mag/cell
     absolute magnetization    =     0.00 Bohr mag/cell

     iteration #  3     ecut=    40.00 Ry     beta= 0.50
     Davidson diagonalization with overlap
     ethr =  6.52E-07,  avg # of iterations =  1.0

     total cpu time spent up to now is        7.4 secs

     total energy              =     -87.84434280 Ry
     estimated scf accuracy    <       0.00002169 Ry

     total magnetization       =    -0.00 Bohr mag/cell
     absolute magnetization    =     0.00 Bohr mag/cell

     iteration #  4     ecut=    40.00 Ry     beta= 0.50
     Davidson diagonalization with overlap
     ethr =  1.97E-07,  avg # of iterations =  1.0

     total cpu time spent up to now is        7.6 secs

     total energy              =     -87.84433654 Ry
     estimated scf accuracy    <       0.00001455 Ry

     total magnetization       =    -0.00 Bohr mag/cell
     absolute magnetization    =     0.00 Bohr mag/cell

     iteration #  5     ecut=    40.00 Ry     beta= 0.50
     Davidson diagonalization with overlap
     ethr =  1.32E-07,  avg # of iterations =  1.0

     total cpu time spent up to now is        7.7 secs

     total energy              =     -87.84433842 Ry
     estimated scf accuracy    <       0.00000026 Ry

     total magnetization       =    -0.00 Bohr mag/cell
     absolute magnetization    =     0.00 Bohr mag/cell

     iteration #  6     ecut=    40.00 Ry     beta= 0.50
     Davidson diagonalization with overlap
     ethr =  2.36E-09,  avg # of iterations =  2.0

     total cpu time spent up to now is        8.0 secs

     total energy              =     -87.84433848 Ry
     estimated scf accuracy    <       0.00000047 Ry

     total magnetization       =    -0.00 Bohr mag/cell
     absolute magnetization    =     0.00 Bohr mag/cell

     iteration #  7     ecut=    40.00 Ry     beta= 0.50
     Davidson diagonalization with overlap
     ethr =  2.36E-09,  avg # of iterations =  1.5

     Magnetic moment per site  (integrated on atomic sphere of radius R)
     atom   1 (R=0.412)  charge=  9.7335  magn=  0.0000

     total cpu time spent up to now is        8.2 secs

     End of self-consistent calculation

 ------ SPIN UP ------------


          k = 0.0000 0.0000 0.0000 (   331 PWs)   bands (ev):

     5.1045  11.3625  11.3625  11.3625  12.2639  12.2639  39.1521  41.3701
    41.3701  41.3701

          k = 0.0775 0.0775-0.0775 (   316 PWs)   bands (ev):

     5.5681  11.2675  11.4476  11.4476  12.2360  12.2360  35.3582  39.6405
    40.2416  40.2416

          k = 0.1549 0.1549-0.1549 (   311 PWs)   bands (ev):

     6.8676  11.1107  11.5430  11.5430  12.2983  12.2983  29.2343  38.9542
    38.9542  38.9887

          k = 0.2324 0.2324-0.2324 (   308 PWs)   bands (ev):

     8.4848  11.4393  11.4510  11.4510  12.5939  12.5939  23.8154  38.0438
    38.2209  38.2209

          k = 0.3098 0.3098-0.3098 (   314 PWs)   bands (ev):

     9.1956  11.3423  11.3423  12.8507  12.8507  13.1005  19.6778  37.3890
    37.9795  37.9795

          k = 0.1549 0.0000 0.0000 (   307 PWs)   bands (ev):

     5.7211  11.1767  11.5179  11.5179  12.0988  12.3334  37.3593  37.6278
    37.6278  39.3628

          k = 0.2324 0.0775-0.0775 (   308 PWs)   bands (ev):

     6.7418  10.9786  11.6143  11.6680  12.0779  12.4275  31.5272  35.8189
    37.1750  40.3865

          k = 0.3098 0.1549-0.1549 (   309 PWs)   bands (ev):

     8.3149  10.9377  11.4199  11.6511  12.6077  12.6689  25.8320  34.8941
    36.2245  37.8820

          k = 0.3873 0.2324-0.2324 (   312 PWs)   bands (ev):

     9.3395  11.1937  11.5331  11.6044  12.8815  13.8114  21.0766  34.5591
    34.9433  36.8428

          k =-0.2324-0.3873 0.3873 (   312 PWs)   bands (ev):

     9.4847  11.1695  11.4743  11.9864  12.8384  14.8988  19.1036  33.0718
    36.0508  37.1299

          k =-0.1549-0.3098 0.3098 (   310 PWs)   bands (ev):

     9.1497  11.2968  11.3890  11.5371  12.5257  13.5033  22.5304  32.4269
    38.2185  38.3041

          k =-0.0775-0.2324 0.2324 (   307 PWs)   bands (ev):

     7.7820  10.9641  11.4867  11.6739  12.1291  12.7625  27.6561  32.6638
    40.3075  41.3427

          k =-0.0000-0.1549 0.1549 (   315 PWs)   bands (ev):

     6.3142  11.1065  11.5484  11.5838  12.0759  12.3861  33.2763  34.0384
    41.4942  43.0919

          k = 0.3098 0.0000 0.0000 (   303 PWs)   bands (ev):

     7.4129  10.7162  11.8022  11.9512  11.9512  12.5107  33.5256  33.5256
    35.2420  35.5879

          k = 0.3873 0.0775-0.0775 (   310 PWs)   bands (ev):

     8.6325  10.5070  11.5586  12.0799  12.6667  12.7052  28.5146  32.1932
    32.6826  35.7251

          k = 0.4647 0.1549-0.1549 (   313 PWs)   bands (ev):

     9.6580  10.5399  11.3632  11.9893  12.9131  14.3299  23.3942  30.0564
    31.9509  35.6054

          k =-0.1549-0.4647 0.4647 (   303 PWs)   bands (ev):

     9.9896  10.6948  11.3772  11.8801  12.8564  16.8269  19.5652  28.1705
    32.8713  35.9318

          k =-0.0775-0.3873 0.3873 (   307 PWs)   bands (ev):

     9.9955  10.8964  11.1058  11.8479  12.5255  15.3929  21.8940  27.1660
    34.8901  36.9215

          k = 0.0000-0.3098 0.3098 (   311 PWs)   bands (ev):

     9.1741  10.8113  11.2267  11.8877  12.1177  13.6708  26.3470  27.4944
    37.8341  38.6445

          k = 0.4647 0.0000 0.0000 (   310 PWs)   bands (ev):

     9.1195  10.2099  12.5207  12.5316  12.5316  12.7146  29.0624  30.4129
    30.4129  33.9043

          k = 0.5422 0.0775-0.0775 (   316 PWs)   bands (ev):

     9.5302  10.0965  12.2094  12.5374  12.9295  14.6089  26.1298  26.5922
    29.7665  34.6196

          k =-0.0775-0.5422 0.5422 (   307 PWs)   bands (ev):

     9.9040  10.2171  11.7636  12.3980  12.9102  17.5994  21.9679  24.3179
    30.3781  34.9966

          k =-0.0000-0.4647 0.4647 (   309 PWs)   bands (ev):

    10.2783  10.4650  11.2454  12.1892  12.6730  18.1774  20.8889  23.8232
    32.1636  35.7022

          k = 0.6197 0.0000 0.0000 (   310 PWs)   bands (ev):

     9.3951   9.8891  12.8491  12.9789  12.9789  15.3999  23.5095  28.6779
    28.6779  33.2831

          k = 0.0000-0.6197 0.6197 (   310 PWs)   bands (ev):

     9.5315   9.9376  12.5937  12.7585  13.0025  17.0137  22.4643  25.7426
    28.8953  34.2988

          k = 0.3098 0.1549-0.0000 (   306 PWs)   bands (ev):

     7.9211  10.7651  11.4661  11.9623  12.0875  12.7817  29.8595  30.5903
    36.7187  39.8695

          k = 0.3873 0.2324-0.0775 (   314 PWs)   bands (ev):

     9.3219  10.7565  11.1851  11.9097  12.4967  13.6995  24.7373  29.7741
    33.8008  39.8323

          k =-0.2324-0.3873 0.5422 (   305 PWs)   bands (ev):

     9.8622  10.8689  11.3330  11.7851  12.7993  15.6553  20.3194  30.1585
    31.6198  39.3531

          k = 0.4647 0.1549-0.0000 (   308 PWs)   bands (ev):

     9.4947  10.3452  11.4823  12.5160  12.5286  13.8688  27.2986  28.0616
    29.6636  37.9618

          k =-0.1549-0.4647 0.6197 (   309 PWs)   bands (ev):

    10.0288  10.4097  11.2868  12.2933  12.8498  16.2166  22.8031  27.1193
    28.0081  38.7387

          k =-0.0775-0.3873 0.5422 (   307 PWs)   bands (ev):

    10.3687  10.4572  11.1027  12.1265  12.8156  18.3368  20.1223  25.5986
    29.0771  39.4657

          k = 0.0000-0.3098 0.4647 (   311 PWs)   bands (ev):

    10.2322  10.7329  10.7937  12.1398  12.5439  15.5844  23.7191  25.4381
    31.0694  40.8255

          k =-0.0775-0.5422 0.6971 (   310 PWs)   bands (ev):

     9.6811  10.0728  12.0868  12.6630  12.9780  16.6919  23.8413  25.8452
    26.7979  37.0155

          k =-0.0000-0.4647 0.6197 (   304 PWs)   bands (ev):

     9.9854  10.2898  11.5661  12.4058  12.9749  19.1531  21.9128  23.1648
    27.3036  38.3623

          k =-0.0775-0.3873 0.6971 (   307 PWs)   bands (ev):

    10.1876  10.6348  10.9903  12.2606  12.9758  19.0573  22.2164  24.2705
    25.2456  43.3509

 ------ SPIN DOWN ----------


          k = 0.0000 0.0000 0.0000 (   331 PWs)   bands (ev):

     5.1045  11.3625  11.3625  11.3625  12.2639  12.2639  39.1521  41.3701
    41.3701  41.3701

          k = 0.0775 0.0775-0.0775 (   316 PWs)   bands (ev):

     5.5681  11.2675  11.4476  11.4476  12.2360  12.2360  35.3582  39.6405
    40.2416  40.2416

          k = 0.1549 0.1549-0.1549 (   311 PWs)   bands (ev):

     6.8676  11.1107  11.5430  11.5430  12.2983  12.2983  29.2343  38.9542
    38.9542  38.9887

          k = 0.2324 0.2324-0.2324 (   308 PWs)   bands (ev):

     8.4848  11.4393  11.4510  11.4510  12.5939  12.5939  23.8154  38.0438
    38.2209  38.2209

          k = 0.3098 0.3098-0.3098 (   314 PWs)   bands (ev):

     9.1956  11.3423  11.3423  12.8507  12.8507  13.1005  19.6778  37.3890
    37.9795  37.9795

          k = 0.1549 0.0000 0.0000 (   307 PWs)   bands (ev):

     5.7211  11.1767  11.5179  11.5179  12.0988  12.3334  37.3593  37.6278
    37.6278  39.3628

          k = 0.2324 0.0775-0.0775 (   308 PWs)   bands (ev):

     6.7418  10.9786  11.6143  11.6680  12.0779  12.4275  31.5272  35.8189
    37.1750  40.3865

          k = 0.3098 0.1549-0.1549 (   309 PWs)   bands (ev):

     8.3149  10.9377  11.4199  11.6511  12.6077  12.6689  25.8320  34.8941
    36.2245  37.8820

          k = 0.3873 0.2324-0.2324 (   312 PWs)   bands (ev):

     9.3395  11.1937  11.5331  11.6044  12.8815  13.8114  21.0766  34.5591
    34.9433  36.8428

          k =-0.2324-0.3873 0.3873 (   312 PWs)   bands (ev):

     9.4847  11.1695  11.4743  11.9864  12.8384  14.8988  19.1036  33.0718
    36.0508  37.1299

          k =-0.1549-0.3098 0.3098 (   310 PWs)   bands (ev):

     9.1497  11.2968  11.3890  11.5371  12.5257  13.5033  22.5304  32.4269
    38.2185  38.3041

          k =-0.0775-0.2324 0.2324 (   307 PWs)   bands (ev):

     7.7820  10.9641  11.4867  11.6739  12.1291  12.7625  27.6561  32.6638
    40.3075  41.3427

          k =-0.0000-0.1549 0.1549 (   315 PWs)   bands (ev):

     6.3142  11.1065  11.5484  11.5838  12.0759  12.3861  33.2763  34.0384
    41.4942  43.0919

          k = 0.3098 0.0000 0.0000 (   303 PWs)   bands (ev):

     7.4129  10.7162  11.8022  11.9512  11.9512  12.5107  33.5256  33.5256
    35.2420  35.5879

          k = 0.3873 0.0775-0.0775 (   310 PWs)   bands (ev):

     8.6325  10.5070  11.5586  12.0799  12.6667  12.7052  28.5146  32.1932
    32.6826  35.7251

          k = 0.4647 0.1549-0.1549 (   313 PWs)   bands (ev):

     9.6580  10.5399  11.3632  11.9893  12.9131  14.3299  23.3942  30.0564
    31.9509  35.6054

          k =-0.1549-0.4647 0.4647 (   303 PWs)   bands (ev):

     9.9896  10.6948  11.3772  11.8801  12.8564  16.8269  19.5652  28.1705
    32.8713  35.9318

          k =-0.0775-0.3873 0.3873 (   307 PWs)   bands (ev):

     9.9955  10.8964  11.1058  11.8479  12.5255  15.3929  21.8940  27.1660
    34.8901  36.9215

          k = 0.0000-0.3098 0.3098 (   311 PWs)   bands (ev):

     9.1741  10.8113  11.2267  11.8877  12.1177  13.6708  26.3470  27.4944
    37.8341  38.6445

          k = 0.4647 0.0000 0.0000 (   310 PWs)   bands (ev):

     9.1195  10.2099  12.5207  12.5316  12.5316  12.7146  29.0624  30.4129
    30.4129  33.9043

          k = 0.5422 0.0775-0.0775 (   316 PWs)   bands (ev):

     9.5302  10.0965  12.2094  12.5374  12.9295  14.6089  26.1298  26.5922
    29.7665  34.6196

          k =-0.0775-0.5422 0.5422 (   307 PWs)   bands (ev):

     9.9040  10.2171  11.7636  12.3980  12.9102  17.5994  21.9679  24.3179
    30.3781  34.9966

          k =-0.0000-0.4647 0.4647 (   309 PWs)   bands (ev):

    10.2783  10.4650  11.2454  12.1892  12.6730  18.1774  20.8889  23.8232
    32.1636  35.7022

          k = 0.6197 0.0000 0.0000 (   310 PWs)   bands (ev):

     9.3951   9.8891  12.8491  12.9789  12.9789  15.3999  23.5095  28.6779
    28.6779  33.2831

          k = 0.0000-0.6197 0.6197 (   310 PWs)   bands (ev):

     9.5315   9.9376  12.5937  12.7585  13.0025  17.0137  22.4643  25.7426
    28.8953  34.2988

          k = 0.3098 0.1549-0.0000 (   306 PWs)   bands (ev):

     7.9211  10.7651  11.4661  11.9623  12.0875  12.7817  29.8595  30.5903
    36.7187  39.8695

          k = 0.3873 0.2324-0.0775 (   314 PWs)   bands (ev):

     9.3219  10.7565  11.1851  11.9097  12.4967  13.6995  24.7373  29.7741
    33.8008  39.8323

          k =-0.2324-0.3873 0.5422 (   305 PWs)   bands (ev):

     9.8622  10.8689  11.3330  11.7851  12.7993  15.6553  20.3194  30.1585
    31.6198  39.3531

          k = 0.4647 0.1549-0.0000 (   308 PWs)   bands (ev):

     9.4947  10.3452  11.4823  12.5160  12.5286  13.8688  27.2986  28.0616
    29.6636  37.9618

          k =-0.1549-0.4647 0.6197 (   309 PWs)   bands (ev):

    10.0288  10.4097  11.2868  12.2933  12.8498  16.2166  22.8031  27.1193
    28.0081  38.7387

          k =-0.0775-0.3873 0.5422 (   307 PWs)   bands (ev):

    10.3687  10.4572  11.1027  12.1265  12.8156  18.3368  20.1223  25.5986
    29.0771  39.4657

          k = 0.0000-0.3098 0.4647 (   311 PWs)   bands (ev):

    10.2322  10.7329  10.7937  12.1398  12.5439  15.5844  23.7191  25.4381
    31.0694  40.8255

          k =-0.0775-0.5422 0.6971 (   310 PWs)   bands (ev):

     9.6811  10.0728  12.0868  12.6630  12.9780  16.6919  23.8413  25.8452
    26.7979  37.0155

          k =-0.0000-0.4647 0.6197 (   304 PWs)   bands (ev):

     9.9854  10.2898  11.5661  12.4058  12.9749  19.1531  21.9128  23.1648
    27.3036  38.3623

          k =-0.0775-0.3873 0.6971 (   307 PWs)   bands (ev):

    10.1876  10.6348  10.9903  12.2606  12.9758  19.0573  22.2164  24.2705
    25.2456  43.3509

     the Fermi energy is    14.7651 ev

!    total energy              =     -87.84433857 Ry
     estimated scf accuracy    <          3.0E-12 Ry
     smearing contrib. (-TS)   =      -0.00005050 Ry
     internal energy E=F+TS    =     -87.84428807 Ry

     The total energy is F=E-TS. E is the sum of the following terms:
     one-electron contribution =      -9.85385843 Ry
     hartree contribution      =      18.76377638 Ry
     xc contribution           =     -14.06227084 Ry
     ewald contribution        =     -82.69193518 Ry

     total magnetization       =    -0.00 Bohr mag/cell
     absolute magnetization    =     0.00 Bohr mag/cell

     convergence has been achieved in   7 iterations

     Forces acting on atoms (cartesian axes, Ry/au):

     atom    1 type  1   force =     0.00000000    0.00000000    0.00000000
     The non-local contrib.  to forces
     atom    1 type  1   force =    -0.00000000   -0.00000000    0.00000000
     The ionic contribution  to forces
     atom    1 type  1   force =    -0.00000000   -0.00000000   -0.00000000
     The local contribution  to forces
     atom    1 type  1   force =    -0.00000000   -0.00000000   -0.00000000
     The core correction contribution to forces
     atom    1 type  1   force =     0.00000000    0.00000000    0.00000000
     The Hubbard contrib.    to forces
     atom    1 type  1   force =     0.00000000    0.00000000    0.00000000
     The SCF correction term to forces
     atom    1 type  1   force =     0.00000000   -0.00000000    0.00000000

     Total force =     0.000000     Total SCF correction =     0.000000


     Computing stress (Cartesian axis) and pressure

          total   stress  (Ry/bohr**3)                   (kbar)     P=        1.77
   0.00001205  -0.00000000   0.00000000            1.77       -0.00        0.00
  -0.00000000   0.00001205   0.00000000           -0.00        1.77        0.00
   0.00000000   0.00000000   0.00001205            0.00        0.00        1.77

     Energy error            =      2.6E-07 Ry
     Gradient error          =      0.0E+00 Ry/Bohr
     Cell gradient error     =      1.8E+00 kbar

     number of scf cycles    =   4
     number of bfgs steps    =   2

     enthalpy           old  =     -87.8443388228 Ry
     enthalpy           new  =     -87.8443385665 Ry

     CASE: enthalpy          _new > enthalpy          _old

     new trust radius        =       0.0000644135 bohr

     trust_radius < trust_radius_min

     resetting bfgs history

     new conv_thr            =       0.0000000010 Ry

     new unit-cell volume =     75.41483 a.u.^3 (    11.17532 Ang^3 )
     density =      9.44229 g/cm^3

CELL_PARAMETERS (angstrom)
   0.000000000   1.774502931   1.774502931
   1.774502931   0.000000000   1.774502931
   1.774502931   1.774502931   0.000000000

ATOMIC_POSITIONS (angstrom)
Cu            0.0000000000        0.0000000000        0.0000000000



     Writing config-only to output data dir /home/gridsan/epan1/labutil/lab3_samples/problem3/Lab3/Cu_a_3.5_ecut_40_nk_9/pwscf.save/
     NEW-OLD atomic charge density approx. for the potential
     extrapolated charge   10.98914, renormalised to   11.00000
     Generating pointlists ...

     total cpu time spent up to now is        8.4 secs

     Self-consistent Calculation

     iteration #  1     ecut=    40.00 Ry     beta= 0.50
[...]

     total cpu time spent up to now is       89.7 secs

     Self-consistent Calculation

     iteration #  1     ecut=    40.00 Ry     beta= 0.50
     Davidson diagonalization with overlap
     ethr =  1.00E-06,  avg # of iterations =  2.0

     total cpu time spent up to now is       89.9 secs

     total energy              =     -87.84425970 Ry
     estimated scf accuracy    <       0.00007491 Ry

     total magnetization       =     0.00 Bohr mag/cell
     absolute magnetization    =     0.00 Bohr mag/cell

     iteration #  2     ecut=    40.00 Ry     beta= 0.50
     Davidson diagonalization with overlap
     ethr =  6.81E-07,  avg # of iterations =  2.0

     total cpu time spent up to now is       90.2 secs

     total energy              =     -87.84433711 Ry
     estimated scf accuracy    <       0.00012761 Ry

     total magnetization       =    -0.00 Bohr mag/cell
     absolute magnetization    =     0.00 Bohr mag/cell

     iteration #  3     ecut=    40.00 Ry     beta= 0.50
     Davidson diagonalization with overlap
     ethr =  6.81E-07,  avg # of iterations =  1.0

     total cpu time spent up to now is       90.5 secs

     total energy              =     -87.84434275 Ry
     estimated scf accuracy    <       0.00002245 Ry

     total magnetization       =    -0.00 Bohr mag/cell
     absolute magnetization    =     0.00 Bohr mag/cell

     iteration #  4     ecut=    40.00 Ry     beta= 0.50
     Davidson diagonalization with overlap
     ethr =  2.04E-07,  avg # of iterations =  1.0

     total cpu time spent up to now is       90.6 secs

     total energy              =     -87.84433646 Ry
     estimated scf accuracy    <       0.00001449 Ry

     total magnetization       =    -0.00 Bohr mag/cell
     absolute magnetization    =     0.00 Bohr mag/cell

     iteration #  5     ecut=    40.00 Ry     beta= 0.50
     Davidson diagonalization with overlap
     ethr =  1.32E-07,  avg # of iterations =  1.0

     total cpu time spent up to now is       90.8 secs

     total energy              =     -87.84433845 Ry
     estimated scf accuracy    <       0.00000021 Ry

     total magnetization       =     0.00 Bohr mag/cell
     absolute magnetization    =     0.00 Bohr mag/cell

     iteration #  6     ecut=    40.00 Ry     beta= 0.50
     Davidson diagonalization with overlap
     ethr =  1.87E-09,  avg # of iterations =  2.0

     total cpu time spent up to now is       91.1 secs

     total energy              =     -87.84433848 Ry
     estimated scf accuracy    <       0.00000045 Ry

     total magnetization       =     0.00 Bohr mag/cell
     absolute magnetization    =     0.00 Bohr mag/cell

     iteration #  7     ecut=    40.00 Ry     beta= 0.50
     Davidson diagonalization with overlap
     ethr =  1.87E-09,  avg # of iterations =  1.7

     Magnetic moment per site  (integrated on atomic sphere of radius R)
     atom   1 (R=0.412)  charge=  9.7335  magn= -0.0000

     total cpu time spent up to now is       91.3 secs

     End of self-consistent calculation

 ------ SPIN UP ------------


          k = 0.0000 0.0000 0.0000 (   331 PWs)   bands (ev):

     5.1045  11.3626  11.3626  11.3626  12.2640  12.2640  39.1522  41.3702
    41.3702  41.3702

          k = 0.0775 0.0775-0.0775 (   316 PWs)   bands (ev):

     5.5682  11.2675  11.4476  11.4476  12.2361  12.2361  35.3584  39.6407
    40.2418  40.2418

          k = 0.1549 0.1549-0.1549 (   311 PWs)   bands (ev):

     6.8677  11.1108  11.5431  11.5431  12.2984  12.2984  29.2344  38.9544
    38.9544  38.9888

          k = 0.2324 0.2324-0.2324 (   308 PWs)   bands (ev):

     8.4849  11.4394  11.4511  11.4511  12.5940  12.5940  23.8155  38.0440
    38.2211  38.2211

          k = 0.3098 0.3098-0.3098 (   314 PWs)   bands (ev):

     9.1956  11.3424  11.3424  12.8508  12.8508  13.1005  19.6779  37.3891
    37.9796  37.9796

          k = 0.1549 0.0000 0.0000 (   307 PWs)   bands (ev):

     5.7212  11.1767  11.5180  11.5180  12.0989  12.3335  37.3595  37.6280
    37.6280  39.3629

          k = 0.2324 0.0775-0.0775 (   308 PWs)   bands (ev):

     6.7418  10.9787  11.6144  11.6680  12.0779  12.4276  31.5274  35.8191
    37.1752  40.3867

          k = 0.3098 0.1549-0.1549 (   309 PWs)   bands (ev):

     8.3149  10.9378  11.4199  11.6512  12.6078  12.6690  25.8322  34.8942
    36.2246  37.8822

          k = 0.3873 0.2324-0.2324 (   312 PWs)   bands (ev):

     9.3396  11.1937  11.5332  11.6045  12.8816  13.8114  21.0767  34.5592
    34.9435  36.8429

          k =-0.2324-0.3873 0.3873 (   312 PWs)   bands (ev):

     9.4848  11.1695  11.4744  11.9865  12.8385  14.8989  19.1038  33.0720
    36.0510  37.1300

          k =-0.1549-0.3098 0.3098 (   310 PWs)   bands (ev):

     9.1498  11.2969  11.3890  11.5372  12.5258  13.5034  22.5305  32.4270
    38.2186  38.3042

          k =-0.0775-0.2324 0.2324 (   307 PWs)   bands (ev):

     7.7821  10.9642  11.4868  11.6739  12.1291  12.7626  27.6563  32.6640
    40.3076  41.3429

          k =-0.0000-0.1549 0.1549 (   315 PWs)   bands (ev):

     6.3142  11.1066  11.5485  11.5839  12.0760  12.3862  33.2765  34.0386
    41.4944  43.0921

          k = 0.3098 0.0000 0.0000 (   303 PWs)   bands (ev):

     7.4130  10.7163  11.8023  11.9513  11.9513  12.5108  33.5257  33.5257
    35.2422  35.5880

          k = 0.3873 0.0775-0.0775 (   310 PWs)   bands (ev):

     8.6326  10.5071  11.5587  12.0800  12.6668  12.7053  28.5147  32.1933
    32.6827  35.7252

          k = 0.4647 0.1549-0.1549 (   313 PWs)   bands (ev):

     9.6581  10.5400  11.3633  11.9894  12.9132  14.3300  23.3943  30.0566
    31.9511  35.6055

          k =-0.1549-0.4647 0.4647 (   303 PWs)   bands (ev):

     9.9897  10.6949  11.3772  11.8802  12.8565  16.8270  19.5653  28.1706
    32.8714  35.9319

          k =-0.0775-0.3873 0.3873 (   307 PWs)   bands (ev):

     9.9955  10.8965  11.1059  11.8480  12.5256  15.3930  21.8941  27.1661
    34.8902  36.9217

          k = 0.0000-0.3098 0.3098 (   311 PWs)   bands (ev):

     9.1741  10.8114  11.2267  11.8878  12.1178  13.6709  26.3471  27.4946
    37.8342  38.6447

          k = 0.4647 0.0000 0.0000 (   310 PWs)   bands (ev):

     9.1195  10.2100  12.5208  12.5317  12.5317  12.7147  29.0625  30.4131
    30.4131  33.9044

          k = 0.5422 0.0775-0.0775 (   316 PWs)   bands (ev):

     9.5303  10.0966  12.2095  12.5375  12.9295  14.6090  26.1299  26.5923
    29.7666  34.6198

          k =-0.0775-0.5422 0.5422 (   307 PWs)   bands (ev):

     9.9040  10.2172  11.7637  12.3981  12.9103  17.5995  21.9680  24.3181
    30.3783  34.9968

          k =-0.0000-0.4647 0.4647 (   309 PWs)   bands (ev):

    10.2783  10.4651  11.2454  12.1893  12.6731  18.1775  20.8890  23.8234
    32.1637  35.7023

          k = 0.6197 0.0000 0.0000 (   310 PWs)   bands (ev):

     9.3951   9.8892  12.8492  12.9789  12.9789  15.3999  23.5096  28.6780
    28.6780  33.2832

          k = 0.0000-0.6197 0.6197 (   310 PWs)   bands (ev):

     9.5316   9.9377  12.5938  12.7586  13.0026  17.0138  22.4644  25.7428
    28.8954  34.2990

          k = 0.3098 0.1549-0.0000 (   306 PWs)   bands (ev):

     7.9211  10.7652  11.4661  11.9624  12.0875  12.7818  29.8597  30.5904
    36.7189  39.8697

          k = 0.3873 0.2324-0.0775 (   314 PWs)   bands (ev):

     9.3220  10.7566  11.1852  11.9097  12.4968  13.6996  24.7374  29.7742
    33.8010  39.8325

          k =-0.2324-0.3873 0.5422 (   305 PWs)   bands (ev):

     9.8623  10.8690  11.3331  11.7852  12.7994  15.6553  20.3196  30.1586
    31.6200  39.3532

          k = 0.4647 0.1549-0.0000 (   308 PWs)   bands (ev):

     9.4947  10.3453  11.4824  12.5161  12.5287  13.8689  27.2988  28.0617
    29.6637  37.9620

          k =-0.1549-0.4647 0.6197 (   309 PWs)   bands (ev):

    10.0289  10.4097  11.2869  12.2934  12.8499  16.2167  22.8032  27.1194
    28.0083  38.7388

          k =-0.0775-0.3873 0.5422 (   307 PWs)   bands (ev):

    10.3687  10.4573  11.1028  12.1266  12.8157  18.3369  20.1224  25.5987
    29.0773  39.4659

          k = 0.0000-0.3098 0.4647 (   311 PWs)   bands (ev):

    10.2322  10.7330  10.7938  12.1399  12.5440  15.5845  23.7192  25.4382
    31.0695  40.8257

          k =-0.0775-0.5422 0.6971 (   310 PWs)   bands (ev):

     9.6812  10.0728  12.0869  12.6631  12.9781  16.6920  23.8414  25.8453
    26.7980  37.0156

          k =-0.0000-0.4647 0.6197 (   304 PWs)   bands (ev):

     9.9855  10.2899  11.5661  12.4059  12.9750  19.1532  21.9130  23.1650
    27.3037  38.3624

          k =-0.0775-0.3873 0.6971 (   307 PWs)   bands (ev):

    10.1876  10.6349  10.9903  12.2606  12.9759  19.0574  22.2165  24.2706
    25.2458  43.3510

 ------ SPIN DOWN ----------


          k = 0.0000 0.0000 0.0000 (   331 PWs)   bands (ev):

     5.1045  11.3626  11.3626  11.3626  12.2640  12.2640  39.1522  41.3702
    41.3702  41.3702

          k = 0.0775 0.0775-0.0775 (   316 PWs)   bands (ev):

     5.5682  11.2675  11.4476  11.4476  12.2361  12.2361  35.3584  39.6407
    40.2418  40.2418

          k = 0.1549 0.1549-0.1549 (   311 PWs)   bands (ev):

     6.8677  11.1108  11.5431  11.5431  12.2984  12.2984  29.2344  38.9544
    38.9544  38.9888

          k = 0.2324 0.2324-0.2324 (   308 PWs)   bands (ev):

     8.4849  11.4394  11.4511  11.4511  12.5940  12.5940  23.8155  38.0440
    38.2211  38.2211

          k = 0.3098 0.3098-0.3098 (   314 PWs)   bands (ev):

     9.1956  11.3424  11.3424  12.8508  12.8508  13.1005  19.6779  37.3891
    37.9796  37.9796

          k = 0.1549 0.0000 0.0000 (   307 PWs)   bands (ev):

     5.7212  11.1767  11.5180  11.5180  12.0989  12.3335  37.3595  37.6280
    37.6280  39.3629

          k = 0.2324 0.0775-0.0775 (   308 PWs)   bands (ev):

     6.7418  10.9787  11.6144  11.6680  12.0779  12.4276  31.5274  35.8191
    37.1752  40.3867

          k = 0.3098 0.1549-0.1549 (   309 PWs)   bands (ev):

     8.3149  10.9378  11.4199  11.6512  12.6078  12.6690  25.8322  34.8942
    36.2246  37.8822

          k = 0.3873 0.2324-0.2324 (   312 PWs)   bands (ev):

     9.3396  11.1937  11.5332  11.6045  12.8816  13.8114  21.0767  34.5592
    34.9435  36.8429

          k =-0.2324-0.3873 0.3873 (   312 PWs)   bands (ev):

     9.4848  11.1695  11.4744  11.9865  12.8385  14.8989  19.1038  33.0720
    36.0510  37.1300

          k =-0.1549-0.3098 0.3098 (   310 PWs)   bands (ev):

     9.1498  11.2969  11.3890  11.5372  12.5258  13.5034  22.5305  32.4270
    38.2186  38.3042

          k =-0.0775-0.2324 0.2324 (   307 PWs)   bands (ev):

     7.7821  10.9642  11.4868  11.6739  12.1291  12.7626  27.6563  32.6640
    40.3076  41.3429

          k =-0.0000-0.1549 0.1549 (   315 PWs)   bands (ev):

     6.3142  11.1066  11.5485  11.5839  12.0760  12.3862  33.2765  34.0386
    41.4944  43.0921

          k = 0.3098 0.0000 0.0000 (   303 PWs)   bands (ev):

     7.4130  10.7163  11.8023  11.9513  11.9513  12.5108  33.5257  33.5257
    35.2422  35.5880

          k = 0.3873 0.0775-0.0775 (   310 PWs)   bands (ev):

     8.6326  10.5071  11.5587  12.0800  12.6668  12.7053  28.5147  32.1933
    32.6827  35.7252

          k = 0.4647 0.1549-0.1549 (   313 PWs)   bands (ev):

     9.6581  10.5400  11.3633  11.9894  12.9132  14.3300  23.3943  30.0566
    31.9511  35.6055

          k =-0.1549-0.4647 0.4647 (   303 PWs)   bands (ev):

     9.9897  10.6949  11.3772  11.8802  12.8565  16.8270  19.5653  28.1706
    32.8714  35.9319

          k =-0.0775-0.3873 0.3873 (   307 PWs)   bands (ev):

     9.9955  10.8965  11.1059  11.8480  12.5256  15.3930  21.8941  27.1661
    34.8902  36.9217

          k = 0.0000-0.3098 0.3098 (   311 PWs)   bands (ev):

     9.1741  10.8114  11.2267  11.8878  12.1178  13.6709  26.3471  27.4946
    37.8342  38.6447

          k = 0.4647 0.0000 0.0000 (   310 PWs)   bands (ev):

     9.1195  10.2100  12.5208  12.5317  12.5317  12.7147  29.0625  30.4131
    30.4131  33.9044

          k = 0.5422 0.0775-0.0775 (   316 PWs)   bands (ev):

     9.5303  10.0966  12.2095  12.5375  12.9295  14.6090  26.1299  26.5923
    29.7666  34.6198

          k =-0.0775-0.5422 0.5422 (   307 PWs)   bands (ev):

     9.9040  10.2172  11.7637  12.3981  12.9103  17.5995  21.9680  24.3181
    30.3783  34.9968

          k =-0.0000-0.4647 0.4647 (   309 PWs)   bands (ev):

    10.2783  10.4651  11.2454  12.1893  12.6731  18.1775  20.8890  23.8234
    32.1637  35.7023

          k = 0.6197 0.0000 0.0000 (   310 PWs)   bands (ev):

     9.3951   9.8892  12.8492  12.9789  12.9789  15.3999  23.5096  28.6780
    28.6780  33.2832

          k = 0.0000-0.6197 0.6197 (   310 PWs)   bands (ev):

     9.5316   9.9377  12.5938  12.7586  13.0026  17.0138  22.4644  25.7428
    28.8954  34.2990

          k = 0.3098 0.1549-0.0000 (   306 PWs)   bands (ev):

     7.9211  10.7652  11.4661  11.9624  12.0875  12.7818  29.8597  30.5904
    36.7189  39.8697

          k = 0.3873 0.2324-0.0775 (   314 PWs)   bands (ev):

     9.3220  10.7566  11.1852  11.9097  12.4968  13.6996  24.7374  29.7742
    33.8010  39.8325

          k =-0.2324-0.3873 0.5422 (   305 PWs)   bands (ev):

     9.8623  10.8690  11.3331  11.7852  12.7994  15.6553  20.3196  30.1586
    31.6200  39.3532

          k = 0.4647 0.1549-0.0000 (   308 PWs)   bands (ev):

     9.4947  10.3453  11.4824  12.5161  12.5287  13.8689  27.2988  28.0617
    29.6637  37.9620

          k =-0.1549-0.4647 0.6197 (   309 PWs)   bands (ev):

    10.0289  10.4097  11.2869  12.2934  12.8499  16.2167  22.8032  27.1194
    28.0083  38.7388

          k =-0.0775-0.3873 0.5422 (   307 PWs)   bands (ev):

    10.3687  10.4573  11.1028  12.1266  12.8157  18.3369  20.1224  25.5987
    29.0773  39.4659

          k = 0.0000-0.3098 0.4647 (   311 PWs)   bands (ev):

    10.2322  10.7330  10.7938  12.1399  12.5440  15.5845  23.7192  25.4382
    31.0695  40.8257

          k =-0.0775-0.5422 0.6971 (   310 PWs)   bands (ev):

     9.6812  10.0728  12.0869  12.6631  12.9781  16.6920  23.8414  25.8453
    26.7980  37.0156

          k =-0.0000-0.4647 0.6197 (   304 PWs)   bands (ev):

     9.9855  10.2899  11.5661  12.4059  12.9750  19.1532  21.9130  23.1650
    27.3037  38.3624

          k =-0.0775-0.3873 0.6971 (   307 PWs)   bands (ev):

    10.1876  10.6349  10.9903  12.2606  12.9759  19.0574  22.2165  24.2706
    25.2458  43.3510

     the Fermi energy is    14.7652 ev

!    total energy              =     -87.84433856 Ry
     estimated scf accuracy    <          5.0E-12 Ry
     smearing contrib. (-TS)   =      -0.00005050 Ry
     internal energy E=F+TS    =     -87.84428806 Ry

     The total energy is F=E-TS. E is the sum of the following terms:
     one-electron contribution =      -9.85367025 Ry
     hartree contribution      =      18.76371300 Ry
     xc contribution           =     -14.06227310 Ry
     ewald contribution        =     -82.69205771 Ry

     total magnetization       =    -0.00 Bohr mag/cell
     absolute magnetization    =     0.00 Bohr mag/cell

     convergence has been achieved in   7 iterations

     Forces acting on atoms (cartesian axes, Ry/au):

     atom    1 type  1   force =     0.00000000    0.00000000    0.00000000
     The non-local contrib.  to forces
     atom    1 type  1   force =     0.00000000    0.00000000    0.00000000
     The ionic contribution  to forces
     atom    1 type  1   force =    -0.00000000   -0.00000000   -0.00000000
     The local contribution  to forces
     atom    1 type  1   force =     0.00000000   -0.00000000   -0.00000000
     The core correction contribution to forces
     atom    1 type  1   force =     0.00000000    0.00000000    0.00000000
     The Hubbard contrib.    to forces
     atom    1 type  1   force =     0.00000000    0.00000000    0.00000000
     The SCF correction term to forces
     atom    1 type  1   force =    -0.00000000    0.00000000   -0.00000000

     Total force =     0.000000     Total SCF correction =     0.000000


     Computing stress (Cartesian axis) and pressure

          total   stress  (Ry/bohr**3)                   (kbar)     P=        1.78
   0.00001207   0.00000000   0.00000000            1.78        0.00        0.00
   0.00000000   0.00001207   0.00000000            0.00        1.78        0.00
   0.00000000  -0.00000000   0.00001207            0.00       -0.00        1.78

     Energy error            =      2.6E-07 Ry
     Gradient error          =      0.0E+00 Ry/Bohr
     Cell gradient error     =      1.8E+00 kbar

     number of scf cycles    =  50
     number of bfgs steps    =   2

     enthalpy           old  =     -87.8443388228 Ry
     enthalpy           new  =     -87.8443385624 Ry

     CASE: enthalpy          _new > enthalpy          _old

     new trust radius        =       0.0000651681 bohr

     trust_radius < trust_radius_min

     resetting bfgs history


     The maximum number of steps has been reached.

     End of BFGS Geometry Optimization
     new unit-cell volume =     75.41483 a.u.^3 (    11.17532 Ang^3 )
     density =      9.44229 g/cm^3

CELL_PARAMETERS (angstrom)
   0.000000000   1.774502930   1.774502930
   1.774502930   0.000000000   1.774502930
   1.774502930   1.774502930   0.000000000

ATOMIC_POSITIONS (angstrom)
Cu            0.0000000000        0.0000000000        0.0000000000



     Writing config-only to output data dir /home/gridsan/epan1/labutil/lab3_samples/problem3/Lab3/Cu_a_3.5_ecut_40_nk_9/pwscf.save/
     NEW-OLD atomic charge density approx. for the potential
     extrapolated charge   10.98919, renormalised to   11.00000
     Generating pointlists ...

     init_run     :      0.27s CPU      0.27s WALL (       1 calls)
     electrons    :     74.62s CPU     79.87s WALL (      50 calls)
     update_pot   :      2.37s CPU      2.08s WALL (      50 calls)
     forces       :      2.08s CPU      1.94s WALL (      50 calls)
     stress       :      4.61s CPU      4.21s WALL (      50 calls)

     Called by init_run:
     wfcinit      :      0.06s CPU      0.06s WALL (       1 calls)
     potinit      :      0.11s CPU      0.11s WALL (       1 calls)
     hinit0       :      0.10s CPU      0.10s WALL (       1 calls)

     Called by electrons:
     c_bands      :     61.33s CPU     67.40s WALL (     356 calls)
     sum_band     :     10.28s CPU      9.59s WALL (     356 calls)
     v_of_rho     :      0.77s CPU      0.72s WALL (     407 calls)
     newd         :      0.91s CPU      0.80s WALL (     407 calls)
     mix_rho      :      0.60s CPU      0.54s WALL (     356 calls)

     Called by c_bands:
     init_us_2    :      1.28s CPU      1.25s WALL (   56910 calls)
     init_us_2:cp :      1.19s CPU      1.16s WALL (   56910 calls)
     cegterg      :     48.93s CPU     48.35s WALL (   24920 calls)

     Called by *egterg:
     cdiaghg      :     11.02s CPU     10.85s WALL (   59840 calls)
     h_psi        :     28.35s CPU     28.11s WALL (   63340 calls)
     s_psi        :      0.46s CPU      0.46s WALL (   63340 calls)
     g_psi        :      0.14s CPU      0.14s WALL (   38350 calls)

     Called by h_psi:
     h_psi:calbec :      2.72s CPU      2.70s WALL (   63340 calls)
     vloc_psi     :     24.76s CPU     24.52s WALL (   63340 calls)
     add_vuspsi   :      0.50s CPU      0.49s WALL (   63340 calls)

     General routines
     calbec       :      4.67s CPU      4.57s WALL (  105760 calls)
     fft          :      1.26s CPU      1.16s WALL (    4574 calls)
     ffts         :      0.19s CPU      0.19s WALL (    1526 calls)
     fftw         :     25.61s CPU     25.04s WALL ( 1403416 calls)
     interpolate  :      0.50s CPU      0.48s WALL (     814 calls)
     davcio       :      0.00s CPU      0.00s WALL (      70 calls)

     Parallel routines

     PWSCF        :   1m26.14s CPU   1m31.55s WALL


   This run was terminated on:  10:55:21   3Nov2023            

=------------------------------------------------------------------------------=
   JOB DONE.
=------------------------------------------------------------------------------=
