
     Program PWSCF v.7.2 starts on  3Nov2023 at 11: 6:36 

     This program is part of the open-source Quantum ESPRESSO suite
     for quantum simulation of materials; please cite
         "P. Giannozzi et al., J. Phys.:Condens. Matter 21 395502 (2009);
         "P. Giannozzi et al., J. Phys.:Condens. Matter 29 465901 (2017);
         "P. Giannozzi et al., J. Chem. Phys. 152 154105 (2020);
          URL http://www.quantum-espresso.org", 
     in publications or presentations arising from this work. More details at
     http://www.quantum-espresso.org/quote

     Parallel version (MPI), running on     8 processors

     MPI processes distributed on     8 nodes
     185436 MiB available memory on the printing compute node when the environment starts

     Waiting for input...
     Reading input from standard input

     Current dimensions of program PWSCF are:
     Max number of different atomic species (ntypx) = 10
     Max number of k-points (npk) =  40000
     Max angular momentum in pseudopotentials (lmaxx) =  4
     Message from routine setup:
     using ibrav=0 with symmetry is DISCOURAGED, use correct ibrav instead

     R & G space division:  proc/nbgrp/npool/nimage =       8
     Subspace diagonalization in iterative solution of the eigenvalue problem:
     a serial algorithm will be used


     Parallelization info
     --------------------
     sticks:   dense  smooth     PW     G-vecs:    dense   smooth      PW
     Min          79      39     13                 1301      461      90
     Max          80      40     14                 1303      463      91
     Sum         637     313    109                10417     3695     725

     Using Slab Decomposition



     bravais-lattice index     =            0
     lattice parameter (alat)  =       5.3450  a.u.
     unit-cell volume          =     107.9734 (a.u.)^3
     number of atoms/cell      =            1
     number of atomic types    =            1
     number of electrons       =        11.00
     number of Kohn-Sham states=           10
     kinetic-energy cutoff     =      40.0000  Ry
     charge density cutoff     =     320.0000  Ry
     scf convergence threshold =      1.0E-07
     mixing beta               =       0.5000
     number of iterations used =            8  plain     mixing
     energy convergence thresh.=      1.0E-04
     force convergence thresh. =      1.0E-03
     press convergence thresh. =      5.0E-01
     Exchange-correlation=  SLA  PZ   NOGX NOGC
                           (   1   1   0   0   0   0   0)
     nstep                     =           50


     celldm(1)=   5.344953  celldm(2)=   0.000000  celldm(3)=   0.000000
     celldm(4)=   0.000000  celldm(5)=   0.000000  celldm(6)=   0.000000

     crystal axes: (cart. coord. in units of alat)
               a(1) = (   0.000000   0.707107   0.707107 )  
               a(2) = (   0.707107   0.000000   0.707107 )  
               a(3) = (   0.707107   0.707107   0.000000 )  

     reciprocal axes: (cart. coord. in units 2 pi/alat)
               b(1) = ( -0.707107  0.707107  0.707107 )  
               b(2) = (  0.707107 -0.707107  0.707107 )  
               b(3) = (  0.707107  0.707107 -0.707107 )  


     PseudoPot. # 1 for Au read from file:
     /home/gridsan/epan1/labutil/lab3_samples/pseudopotentials/Au.pz-d-rrkjus.UPF
     MD5 check sum: 424ffd4ac9c90487cbadcd287136c95b
     Pseudo is Ultrasoft, Zval = 11.0
     Generated by new atomic code, or converted to UPF format
     Using radial grid of 1279 points,  3 beta functions with: 
                l(1) =   2
                l(2) =   2
                l(3) =   1
     Q(r) pseudized with 0 coefficients 


     atomic species   valence    mass     pseudopotential
        Au            11.00   196.96657     Au( 1.00)

     Starting magnetic structure 
     atomic species   magnetization
        Au           0.700

     48 Sym. Ops., with inversion, found



   Cartesian axes

     site n.     atom                  positions (alat units)
         1           Au  tau(   1) = (   0.0000000   0.0000000   0.0000000  )

     number of k points=    20  Methfessel-Paxton smearing, width (Ry)=  0.0200
                       cart. coord. in units 2pi/alat
        k(    1) = (   0.0000000   0.0000000   0.0000000), wk =   0.0029155
        k(    2) = (   0.1010153   0.1010153  -0.1010153), wk =   0.0233236
        k(    3) = (   0.2020305   0.2020305  -0.2020305), wk =   0.0233236
        k(    4) = (   0.3030458   0.3030458  -0.3030458), wk =   0.0233236
        k(    5) = (   0.2020305   0.0000000   0.0000000), wk =   0.0174927
        k(    6) = (   0.3030458   0.1010153  -0.1010153), wk =   0.0699708
        k(    7) = (   0.4040610   0.2020305  -0.2020305), wk =   0.0699708
        k(    8) = (  -0.2020305  -0.4040610   0.4040610), wk =   0.0699708
        k(    9) = (  -0.1010153  -0.3030458   0.3030458), wk =   0.0699708
        k(   10) = (  -0.0000000  -0.2020305   0.2020305), wk =   0.0349854
        k(   11) = (   0.4040610   0.0000000   0.0000000), wk =   0.0174927
        k(   12) = (   0.5050763   0.1010153  -0.1010153), wk =   0.0699708
        k(   13) = (  -0.1010153  -0.5050763   0.5050763), wk =   0.0699708
        k(   14) = (   0.0000000  -0.4040610   0.4040610), wk =   0.0349854
        k(   15) = (   0.6060915   0.0000000   0.0000000), wk =   0.0174927
        k(   16) = (   0.0000000  -0.6060915   0.6060915), wk =   0.0349854
        k(   17) = (   0.4040610   0.2020305   0.0000000), wk =   0.0699708
        k(   18) = (  -0.2020305  -0.4040610   0.6060915), wk =   0.1399417
        k(   19) = (  -0.1010153  -0.5050763   0.7071068), wk =   0.0699708
        k(   20) = (   0.0000000  -0.4040610   0.6060915), wk =   0.0699708

     Dense  grid:    10417 G-vectors     FFT dimensions: (  32,  32,  32)

     Smooth grid:     3695 G-vectors     FFT dimensions: (  24,  24,  24)

     Estimated max dynamical RAM per process >       4.99 MB

     Estimated total dynamical RAM >      39.96 MB
     Generating pointlists ...
     new r_m :   0.4125 (alat units)  2.2048 (a.u.) for type    1

     Initial potential from superposition of free atoms

     starting charge      10.9999, renormalised to      11.0000
     Starting wfcs are    9 randomized atomic wfcs +    1 random wfcs

     total cpu time spent up to now is        0.5 secs

     Self-consistent Calculation

     iteration #  1     ecut=    40.00 Ry     beta= 0.50
     Davidson diagonalization with overlap
     ethr =  1.00E-02,  avg # of iterations =  5.2

     total cpu time spent up to now is        0.7 secs

     total energy              =     -66.48056050 Ry
     estimated scf accuracy    <       0.46172463 Ry

     total magnetization       =     1.31 Bohr mag/cell
     absolute magnetization    =     1.35 Bohr mag/cell

     iteration #  2     ecut=    40.00 Ry     beta= 0.50
     Davidson diagonalization with overlap
     ethr =  4.20E-03,  avg # of iterations =  1.5

     total cpu time spent up to now is        0.9 secs

     total energy              =     -66.75755449 Ry
     estimated scf accuracy    <       0.13902554 Ry

     total magnetization       =     0.51 Bohr mag/cell
     absolute magnetization    =     0.56 Bohr mag/cell

     iteration #  3     ecut=    40.00 Ry     beta= 0.50
     Davidson diagonalization with overlap
     ethr =  1.26E-03,  avg # of iterations =  1.0

     total cpu time spent up to now is        1.0 secs

     total energy              =     -66.85550642 Ry
     estimated scf accuracy    <       0.05327199 Ry

     total magnetization       =     0.10 Bohr mag/cell
     absolute magnetization    =     0.32 Bohr mag/cell

     iteration #  4     ecut=    40.00 Ry     beta= 0.50
     Davidson diagonalization with overlap
     ethr =  4.84E-04,  avg # of iterations =  1.6

     total cpu time spent up to now is        1.2 secs

     total energy              =     -66.87410197 Ry
     estimated scf accuracy    <       0.01258663 Ry

     total magnetization       =    -0.02 Bohr mag/cell
     absolute magnetization    =     0.02 Bohr mag/cell

     iteration #  5     ecut=    40.00 Ry     beta= 0.50
     Davidson diagonalization with overlap
     ethr =  1.14E-04,  avg # of iterations =  1.7

     total cpu time spent up to now is        1.3 secs

     total energy              =     -66.87683585 Ry
     estimated scf accuracy    <       0.00027242 Ry

     total magnetization       =    -0.00 Bohr mag/cell
     absolute magnetization    =     0.04 Bohr mag/cell

     iteration #  6     ecut=    40.00 Ry     beta= 0.50
     Davidson diagonalization with overlap
     ethr =  2.48E-06,  avg # of iterations =  2.6

     total cpu time spent up to now is        1.5 secs

     total energy              =     -66.87693855 Ry
     estimated scf accuracy    <       0.00000643 Ry

     total magnetization       =     0.00 Bohr mag/cell
     absolute magnetization    =     0.01 Bohr mag/cell

     iteration #  7     ecut=    40.00 Ry     beta= 0.50
     Davidson diagonalization with overlap
     ethr =  5.85E-08,  avg # of iterations =  2.2

     total cpu time spent up to now is        1.7 secs

     total energy              =     -66.87694208 Ry
     estimated scf accuracy    <       0.00000010 Ry

     total magnetization       =     0.00 Bohr mag/cell
     absolute magnetization    =     0.00 Bohr mag/cell

     iteration #  8     ecut=    40.00 Ry     beta= 0.50
     Davidson diagonalization with overlap
     ethr =  9.16E-10,  avg # of iterations =  1.6

     total cpu time spent up to now is        1.9 secs

     total energy              =     -66.87694224 Ry
     estimated scf accuracy    <       0.00000011 Ry

     total magnetization       =    -0.00 Bohr mag/cell
     absolute magnetization    =     0.00 Bohr mag/cell

     iteration #  9     ecut=    40.00 Ry     beta= 0.50
     Davidson diagonalization with overlap
     ethr =  9.16E-10,  avg # of iterations =  1.5

     Magnetic moment per site  (integrated on atomic sphere of radius R)
     atom   1 (R=0.413)  charge=  9.2992  magn= -0.0000

     total cpu time spent up to now is        2.0 secs

     End of self-consistent calculation

 ------ SPIN UP ------------


          k = 0.0000 0.0000 0.0000 (   459 PWs)   bands (ev):

     6.4001  12.0235  12.0235  12.0235  13.7195  13.7195  33.5481  37.4069
    37.4069  37.4069

          k = 0.1010 0.1010-0.1010 (   471 PWs)   bands (ev):

     7.1342  11.8176  12.2496  12.2496  13.6518  13.6518  33.0176  34.4808
    37.9040  37.9040

          k = 0.2020 0.2020-0.2020 (   471 PWs)   bands (ev):

     8.6630  12.1094  12.2836  12.2836  14.1094  14.1094  27.2699  34.0628
    37.6481  37.6481

          k = 0.3030 0.3030-0.3030 (   470 PWs)   bands (ev):

     9.1149  12.0193  12.0193  14.7843  14.9318  14.9318  21.7241  32.7981
    35.8612  35.8612

          k = 0.2020 0.0000 0.0000 (   471 PWs)   bands (ev):

     7.3860  11.5234  12.4965  12.4965  13.1945  13.9489  34.5193  35.0091
    35.7372  35.7372

          k = 0.3030 0.1010-0.1010 (   469 PWs)   bands (ev):

     8.7752  11.2186  12.3391  12.7958  13.7562  14.3614  29.6290  34.2715
    34.6428  36.5427

          k = 0.4041 0.2020-0.2020 (   455 PWs)   bands (ev):

     9.6054  11.7628  12.3062  12.5747  15.0407  15.9599  23.6375  32.9243
    33.5200  34.7081

          k =-0.2020-0.4041 0.4041 (   455 PWs)   bands (ev):

     9.6604  11.6519  12.4030  13.2698  14.8881  18.0040  20.6388  31.4744
    33.9072  34.5835

          k =-0.1010-0.3030 0.3030 (   457 PWs)   bands (ev):

     9.5824  11.8097  12.1437  12.5692  13.8537  15.7388  25.6600  31.3766
    34.8763  37.7984

          k =-0.0000-0.2020 0.2020 (   469 PWs)   bands (ev):

     8.2395  11.4779  12.3917  12.6549  13.1839  14.3269  30.9643  32.7466
    37.1445  37.8097

          k = 0.4041 0.0000 0.0000 (   456 PWs)   bands (ev):

     9.3926  10.5297  12.9821  13.7782  13.7782  14.4894  31.5360  31.5360
    32.3181  34.1198

          k = 0.5051 0.1010-0.1010 (   463 PWs)   bands (ev):

     9.8801  10.4309  12.9004  13.8569  15.1105  16.2733  25.9713  29.5374
    30.2877  35.2799

          k =-0.1010-0.5051 0.5051 (   456 PWs)   bands (ev):

    10.1789  11.0501  12.4975  13.5276  14.9852  20.4012  21.1473  26.9778
    31.3461  35.1321

          k = 0.0000-0.4041 0.4041 (   461 PWs)   bands (ev):

    10.6292  11.5910  11.6594  13.2042  14.1037  17.9701  25.0173  26.0569
    34.3899  34.9073

          k = 0.6061 0.0000 0.0000 (   452 PWs)   bands (ev):

     9.4580   9.8306  14.9512  15.1850  15.1850  16.5181  24.9464  28.1738
    28.1738  34.5370

          k = 0.0000-0.6061 0.6061 (   460 PWs)   bands (ev):

     9.6621  10.0601  14.1351  14.6290  15.2719  19.7329  22.5355  26.0673
    28.6186  35.6631

          k = 0.4041 0.2020 0.0000 (   464 PWs)   bands (ev):

    10.0733  10.8995  11.8451  13.6758  13.7765  15.8312  27.5507  29.4878
    33.0148  38.4391

          k =-0.2020-0.4041 0.6061 (   463 PWs)   bands (ev):

    10.4786  11.1994  11.9112  13.3054  14.7897  18.5048  22.7411  28.5727
    30.8067  37.1705

          k =-0.1010-0.5051 0.7071 (   461 PWs)   bands (ev):

    10.1116  10.3883  12.8363  14.3186  15.1796  19.0456  24.0836  26.6048
    27.9086  38.2021

          k = 0.0000-0.4041 0.6061 (   462 PWs)   bands (ev):

    10.5468  11.0695  11.9925  13.6416  15.1718  21.0380  23.1880  24.4373
    28.5251  38.5654

 ------ SPIN DOWN ----------


          k = 0.0000 0.0000 0.0000 (   459 PWs)   bands (ev):

     6.3999  12.0234  12.0234  12.0234  13.7195  13.7195  33.5479  37.4068
    37.4068  37.4068

          k = 0.1010 0.1010-0.1010 (   471 PWs)   bands (ev):

     7.1341  11.8175  12.2495  12.2495  13.6517  13.6517  33.0175  34.4807
    37.9039  37.9039

          k = 0.2020 0.2020-0.2020 (   471 PWs)   bands (ev):

     8.6629  12.1093  12.2835  12.2835  14.1094  14.1094  27.2698  34.0626
    37.6480  37.6480

          k = 0.3030 0.3030-0.3030 (   470 PWs)   bands (ev):

     9.1148  12.0192  12.0192  14.7842  14.9317  14.9317  21.7240  32.7979
    35.8611  35.8611

          k = 0.2020 0.0000 0.0000 (   471 PWs)   bands (ev):

     7.3858  11.5233  12.4964  12.4964  13.1944  13.9488  34.5191  35.0090
    35.7371  35.7371

          k = 0.3030 0.1010-0.1010 (   469 PWs)   bands (ev):

     8.7751  11.2185  12.3390  12.7957  13.7561  14.3613  29.6289  34.2713
    34.6426  36.5426

          k = 0.4041 0.2020-0.2020 (   455 PWs)   bands (ev):

     9.6053  11.7627  12.3061  12.5747  15.0406  15.9598  23.6374  32.9242
    33.5199  34.7080

          k =-0.2020-0.4041 0.4041 (   455 PWs)   bands (ev):

     9.6603  11.6518  12.4029  13.2697  14.8880  18.0039  20.6387  31.4743
    33.9071  34.5834

          k =-0.1010-0.3030 0.3030 (   457 PWs)   bands (ev):

     9.5822  11.8096  12.1436  12.5691  13.8536  15.7387  25.6599  31.3765
    34.8762  37.7983

          k =-0.0000-0.2020 0.2020 (   469 PWs)   bands (ev):

     8.2394  11.4778  12.3916  12.6548  13.1838  14.3268  30.9642  32.7465
    37.1444  37.8096

          k = 0.4041 0.0000 0.0000 (   456 PWs)   bands (ev):

     9.3925  10.5296  12.9820  13.7781  13.7781  14.4894  31.5359  31.5359
    32.3180  34.1197

          k = 0.5051 0.1010-0.1010 (   463 PWs)   bands (ev):

     9.8800  10.4308  12.9003  13.8568  15.1105  16.2732  25.9712  29.5373
    30.2876  35.2798

          k =-0.1010-0.5051 0.5051 (   456 PWs)   bands (ev):

    10.1788  11.0500  12.4974  13.5276  14.9851  20.4011  21.1472  26.9777
    31.3459  35.1320

          k = 0.0000-0.4041 0.4041 (   461 PWs)   bands (ev):

    10.6291  11.5910  11.6593  13.2041  14.1037  17.9700  25.0172  26.0568
    34.3898  34.9072

          k = 0.6061 0.0000 0.0000 (   452 PWs)   bands (ev):

     9.4579   9.8305  14.9511  15.1849  15.1849  16.5180  24.9463  28.1736
    28.1736  34.5370

          k = 0.0000-0.6061 0.6061 (   460 PWs)   bands (ev):

     9.6620  10.0600  14.1350  14.6289  15.2718  19.7328  22.5354  26.0672
    28.6185  35.6630

          k = 0.4041 0.2020 0.0000 (   464 PWs)   bands (ev):

    10.0732  10.8994  11.8451  13.6758  13.7764  15.8312  27.5506  29.4877
    33.0147  38.5420

          k =-0.2020-0.4041 0.6061 (   463 PWs)   bands (ev):

    10.4785  11.1993  11.9111  13.3053  14.7896  18.5047  22.7410  28.5726
    30.8066  37.1704

          k =-0.1010-0.5051 0.7071 (   461 PWs)   bands (ev):

    10.1115  10.3882  12.8362  14.3185  15.1795  19.0455  24.0835  26.6047
    27.9085  38.2020

          k = 0.0000-0.4041 0.6061 (   462 PWs)   bands (ev):

    10.5468  11.0694  11.9924  13.6415  15.1717  21.0379  23.1879  24.4372
    28.5250  38.5653

     the Fermi energy is    16.4902 ev

!    total energy              =     -66.87694226 Ry
     estimated scf accuracy    <          9.4E-11 Ry
     smearing contrib. (-TS)   =       0.00003411 Ry
     internal energy E=F+TS    =     -66.87697637 Ry

     The total energy is F=E-TS. E is the sum of the following terms:
     one-electron contribution =      10.17210152 Ry
     hartree contribution      =       6.83996806 Ry
     xc contribution           =     -10.49635908 Ry
     ewald contribution        =     -73.39268687 Ry

     total magnetization       =    -0.00 Bohr mag/cell
     absolute magnetization    =     0.00 Bohr mag/cell

     convergence has been achieved in   9 iterations

     Forces acting on atoms (cartesian axes, Ry/au):

     atom    1 type  1   force =     0.00000000    0.00000000    0.00000000
     The non-local contrib.  to forces
     atom    1 type  1   force =     0.00000000    0.00000000    0.00000000
     The ionic contribution  to forces
     atom    1 type  1   force =    -0.00000000   -0.00000000   -0.00000000
     The local contribution  to forces
     atom    1 type  1   force =     0.00000000    0.00000000    0.00000000
     The core correction contribution to forces
     atom    1 type  1   force =     0.00000000    0.00000000    0.00000000
     The Hubbard contrib.    to forces
     atom    1 type  1   force =     0.00000000    0.00000000    0.00000000
     The SCF correction term to forces
     atom    1 type  1   force =     0.00000000    0.00000000    0.00000000

     Total force =     0.000000     Total SCF correction =     0.000000


     Computing stress (Cartesian axis) and pressure

          total   stress  (Ry/bohr**3)                   (kbar)     P=       73.01
   0.00049634   0.00000000   0.00000000           73.01        0.00        0.00
   0.00000000   0.00049634   0.00000000            0.00       73.01        0.00
   0.00000000   0.00000000   0.00049634            0.00        0.00       73.01


     BFGS Geometry Optimization
     Energy error            =      0.0E+00 Ry
     Gradient error          =      0.0E+00 Ry/Bohr
     Cell gradient error     =      7.3E+01 kbar

     number of scf cycles    =   1
     number of bfgs steps    =   0

     enthalpy           new  =     -66.8769422604 Ry

     new trust radius        =       0.0257874943 bohr
     new conv_thr            =       0.0000001000 Ry

     new unit-cell volume =    112.04281 a.u.^3 (    16.60303 Ang^3 )
     density =     19.69946 g/cm^3

CELL_PARAMETERS (angstrom)
   0.000000000   2.024817090   2.024817090
   2.024817090   0.000000000   2.024817090
   2.024817090   2.024817090   0.000000000

ATOMIC_POSITIONS (angstrom)
Au            0.0000000000        0.0000000000        0.0000000000



     Writing config-only to output data dir /home/gridsan/epan1/labutil/lab3_samples/problem3/Lab3/Au_a_4.0_ecut_40_nk_7/pwscf.save/
     NEW-OLD atomic charge density approx. for the potential
     extrapolated charge   11.39952, renormalised to   11.00000
     Generating pointlists ...

     total cpu time spent up to now is        2.3 secs

     Self-consistent Calculation

     iteration #  1     ecut=    40.00 Ry     beta= 0.50
     Davidson diagonalization with overlap
     ethr =  1.00E-06,  avg # of iterations =  3.2

     total cpu time spent up to now is        2.5 secs

     total energy              =     -66.85080428 Ry
     estimated scf accuracy    <       0.02316325 Ry

     total magnetization       =    -0.00 Bohr mag/cell
     absolute magnetization    =     0.00 Bohr mag/cell

     iteration #  2     ecut=    40.00 Ry     beta= 0.50
     Davidson diagonalization with overlap
     ethr =  2.11E-04,  avg # of iterations =  2.0

     total cpu time spent up to now is        2.7 secs

     total energy              =     -66.87857612 Ry
     estimated scf accuracy    <       0.02755836 Ry

     total magnetization       =    -0.00 Bohr mag/cell
     absolute magnetization    =     0.00 Bohr mag/cell

     iteration #  3     ecut=    40.00 Ry     beta= 0.50
     Davidson diagonalization with overlap
     ethr =  2.11E-04,  avg # of iterations =  1.0

     total cpu time spent up to now is        2.9 secs

     total energy              =     -66.87793378 Ry
     estimated scf accuracy    <       0.00625953 Ry

     total magnetization       =     0.00 Bohr mag/cell
     absolute magnetization    =     0.00 Bohr mag/cell

     iteration #  4     ecut=    40.00 Ry     beta= 0.50
     Davidson diagonalization with overlap
     ethr =  5.69E-05,  avg # of iterations =  1.0

     total cpu time spent up to now is        3.0 secs

     total energy              =     -66.87813390 Ry
     estimated scf accuracy    <       0.00130173 Ry

     total magnetization       =    -0.00 Bohr mag/cell
     absolute magnetization    =     0.00 Bohr mag/cell

     iteration #  5     ecut=    40.00 Ry     beta= 0.50
     Davidson diagonalization with overlap
     ethr =  1.18E-05,  avg # of iterations =  1.0

     total cpu time spent up to now is        3.2 secs

     total energy              =     -66.87775898 Ry
     estimated scf accuracy    <       0.00084650 Ry

     total magnetization       =    -0.00 Bohr mag/cell
     absolute magnetization    =     0.00 Bohr mag/cell

     iteration #  6     ecut=    40.00 Ry     beta= 0.50
     Davidson diagonalization with overlap
     ethr =  7.70E-06,  avg # of iterations =  1.1

     total cpu time spent up to now is        3.3 secs

     total energy              =     -66.87785706 Ry
     estimated scf accuracy    <       0.00003957 Ry

     total magnetization       =    -0.00 Bohr mag/cell
     absolute magnetization    =     0.00 Bohr mag/cell

     iteration #  7     ecut=    40.00 Ry     beta= 0.50
     Davidson diagonalization with overlap
     ethr =  3.60E-07,  avg # of iterations =  1.0

     total cpu time spent up to now is        3.5 secs

     total energy              =     -66.87784202 Ry
     estimated scf accuracy    <       0.00002574 Ry

     total magnetization       =    -0.00 Bohr mag/cell
     absolute magnetization    =     0.00 Bohr mag/cell

     iteration #  8     ecut=    40.00 Ry     beta= 0.50
     Davidson diagonalization with overlap
     ethr =  2.34E-07,  avg # of iterations =  2.0

     total cpu time spent up to now is        3.7 secs

     total energy              =     -66.87784911 Ry
     estimated scf accuracy    <       0.00000228 Ry

     total magnetization       =     0.00 Bohr mag/cell
     absolute magnetization    =     0.00 Bohr mag/cell

     iteration #  9     ecut=    40.00 Ry     beta= 0.50
     Davidson diagonalization with overlap
     ethr =  2.07E-08,  avg # of iterations =  2.0

     Magnetic moment per site  (integrated on atomic sphere of radius R)
     atom   1 (R=0.413)  charge=  9.2517  magn=  0.0000

     total cpu time spent up to now is        3.8 secs

     End of self-consistent calculation

 ------ SPIN UP ------------


          k = 0.0000 0.0000 0.0000 (   459 PWs)   bands (ev):

     5.9179  11.3483  11.3483  11.3483  12.9389  12.9389  32.5769  36.2038
    36.2038  36.2038

          k = 0.0998 0.0998-0.0998 (   471 PWs)   bands (ev):

     6.6280  11.1575  11.5617  11.5617  12.8773  12.8773  31.8459  33.4543
    36.6244  36.6244

          k = 0.1996 0.1996-0.1996 (   471 PWs)   bands (ev):

     8.1219  11.4434  11.5948  11.5948  13.3085  13.3085  26.1142  33.0386
    36.2619  36.2619

          k = 0.2993 0.2993-0.2993 (   470 PWs)   bands (ev):

     8.5815  11.3469  11.3469  14.0579  14.0771  14.0771  20.6347  31.8350
    34.5639  34.5639

          k = 0.1996 0.0000 0.0000 (   471 PWs)   bands (ev):

     6.8715  10.8803  11.7945  11.7945  12.4509  13.1544  33.4534  33.8677
    34.4618  34.4618

          k = 0.2993 0.0998-0.0998 (   469 PWs)   bands (ev):

     8.2231  10.5953  11.6499  12.0768  12.9832  13.5425  28.4426  32.9901
    33.5310  35.2150

          k = 0.3991 0.1996-0.1996 (   455 PWs)   bands (ev):

     9.0491  11.1120  11.6300  11.8699  14.1782  15.0942  22.5446  31.8011
    32.2659  33.4531

          k =-0.1996-0.3991 0.3991 (   455 PWs)   bands (ev):

     9.1060  11.0058  11.7089  12.5509  14.0368  17.1128  19.5651  30.2912
    32.8077  33.3023

          k =-0.0998-0.2993 0.2993 (   457 PWs)   bands (ev):

     9.0172  11.1525  11.4772  11.8649  13.0702  14.8529  24.5292  30.1589
    33.7802  36.4002

          k =-0.0000-0.1996 0.1996 (   469 PWs)   bands (ev):

     7.6996  10.8393  11.6984  11.9435  12.4413  13.5122  29.7934  31.5069
    36.0118  36.5975

          k = 0.3991 0.0000 0.0000 (   456 PWs)   bands (ev):

     8.8356   9.9453  12.2647  13.0007  13.0007  13.6613  30.3364  30.3364
    30.9822  32.9273

          k = 0.4989 0.0998-0.0998 (   463 PWs)   bands (ev):

     9.3245   9.8529  12.1877  13.0740  14.2432  15.3949  24.8565  28.3250
    29.1335  34.0171

          k =-0.0998-0.4989 0.4989 (   456 PWs)   bands (ev):

     9.6107  10.4440  11.8078  12.7665  14.1276  19.3574  20.1778  25.8123
    30.1501  33.9102

          k = 0.0000-0.3991 0.3991 (   461 PWs)   bands (ev):

    10.0300  10.9587  11.0143  12.4637  13.3040  17.0104  23.9027  24.9198
    33.0830  33.7542

          k = 0.5987 0.0000 0.0000 (   452 PWs)   bands (ev):

     8.9303   9.2843  14.0932  14.3154  14.3154  15.7206  23.7507  27.1061
    27.1061  33.2695

          k = 0.0000-0.5987 0.5987 (   460 PWs)   bands (ev):

     9.1264   9.5019  13.3539  13.7952  14.3954  18.8211  21.4020  24.9891
    27.5300  34.3567

          k = 0.3991 0.1996 0.0000 (   464 PWs)   bands (ev):

     9.4888  10.2947  11.1870  12.9090  12.9985  14.9418  26.4005  28.2863
    31.8063  37.0938

          k =-0.1996-0.3991 0.5987 (   463 PWs)   bands (ev):

     9.8896  10.5842  11.2537  12.5599  13.9465  17.5386  21.6848  27.3910
    29.6192  35.9539

          k =-0.0998-0.4989 0.6984 (   461 PWs)   bands (ev):

     9.5536   9.8114  12.1268  13.5095  14.3102  18.0832  22.9788  25.5198
    26.7653  36.8729

          k = 0.0000-0.3991 0.5987 (   462 PWs)   bands (ev):

     9.9670  10.4580  11.3298  12.8750  14.3027  19.9943  22.1542  23.3354
    27.3693  37.2731

 ------ SPIN DOWN ----------


          k = 0.0000 0.0000 0.0000 (   459 PWs)   bands (ev):

     5.9179  11.3483  11.3483  11.3483  12.9389  12.9389  32.5769  36.2038
    36.2038  36.2038

          k = 0.0998 0.0998-0.0998 (   471 PWs)   bands (ev):

     6.6280  11.1575  11.5617  11.5617  12.8773  12.8773  31.8459  33.4543
    36.6244  36.6244

          k = 0.1996 0.1996-0.1996 (   471 PWs)   bands (ev):

     8.1219  11.4434  11.5948  11.5948  13.3085  13.3085  26.1142  33.0386
    36.2619  36.2619

          k = 0.2993 0.2993-0.2993 (   470 PWs)   bands (ev):

     8.5815  11.3469  11.3469  14.0579  14.0771  14.0771  20.6347  31.8350
    34.5639  34.5639

          k = 0.1996 0.0000 0.0000 (   471 PWs)   bands (ev):

     6.8715  10.8803  11.7945  11.7945  12.4509  13.1544  33.4534  33.8677
    34.4618  34.4618

          k = 0.2993 0.0998-0.0998 (   469 PWs)   bands (ev):

     8.2231  10.5953  11.6499  12.0768  12.9832  13.5425  28.4426  32.9901
    33.5310  35.2150

          k = 0.3991 0.1996-0.1996 (   455 PWs)   bands (ev):

     9.0491  11.1120  11.6300  11.8699  14.1782  15.0942  22.5446  31.8011
    32.2659  33.4531

          k =-0.1996-0.3991 0.3991 (   455 PWs)   bands (ev):

     9.1060  11.0058  11.7089  12.5509  14.0368  17.1128  19.5651  30.2912
    32.8077  33.3023

          k =-0.0998-0.2993 0.2993 (   457 PWs)   bands (ev):

     9.0172  11.1525  11.4772  11.8649  13.0702  14.8529  24.5292  30.1589
    33.7802  36.4002

          k =-0.0000-0.1996 0.1996 (   469 PWs)   bands (ev):

     7.6996  10.8393  11.6984  11.9435  12.4413  13.5122  29.7934  31.5069
    36.0118  36.5975

          k = 0.3991 0.0000 0.0000 (   456 PWs)   bands (ev):

     8.8356   9.9453  12.2648  13.0007  13.0007  13.6613  30.3364  30.3364
    30.9822  32.9273

          k = 0.4989 0.0998-0.0998 (   463 PWs)   bands (ev):

     9.3245   9.8529  12.1877  13.0740  14.2432  15.3949  24.8565  28.3250
    29.1335  34.0171

          k =-0.0998-0.4989 0.4989 (   456 PWs)   bands (ev):

     9.6107  10.4440  11.8078  12.7665  14.1276  19.3574  20.1778  25.8123
    30.1501  33.9102

          k = 0.0000-0.3991 0.3991 (   461 PWs)   bands (ev):

    10.0300  10.9587  11.0143  12.4637  13.3040  17.0104  23.9027  24.9198
    33.0830  33.7542

          k = 0.5987 0.0000 0.0000 (   452 PWs)   bands (ev):

     8.9303   9.2843  14.0932  14.3154  14.3154  15.7206  23.7507  27.1061
    27.1061  33.2695

          k = 0.0000-0.5987 0.5987 (   460 PWs)   bands (ev):

     9.1264   9.5019  13.3539  13.7952  14.3953  18.8211  21.4020  24.9891
    27.5300  34.3567

          k = 0.3991 0.1996 0.0000 (   464 PWs)   bands (ev):

     9.4888  10.2947  11.1870  12.9090  12.9985  14.9418  26.4005  28.2863
    31.8063  37.3075

          k =-0.1996-0.3991 0.5987 (   463 PWs)   bands (ev):

     9.8896  10.5842  11.2537  12.5599  13.9465  17.5386  21.6848  27.3910
    29.6192  35.9539

          k =-0.0998-0.4989 0.6984 (   461 PWs)   bands (ev):

     9.5536   9.8114  12.1268  13.5095  14.3102  18.0832  22.9788  25.5198
    26.7653  36.8729

          k = 0.0000-0.3991 0.5987 (   462 PWs)   bands (ev):

     9.9670  10.4580  11.3298  12.8750  14.3027  19.9943  22.1542  23.3354
    27.3693  37.2731

     the Fermi energy is    15.6562 ev

!    total energy              =     -66.87784962 Ry
     estimated scf accuracy    <       0.00000006 Ry
     smearing contrib. (-TS)   =       0.00009764 Ry
     internal energy E=F+TS    =     -66.87794725 Ry

     The total energy is F=E-TS. E is the sum of the following terms:
     one-electron contribution =       8.91614579 Ry
     hartree contribution      =       7.16261261 Ry
     xc contribution           =     -10.46355332 Ry
     ewald contribution        =     -72.49315233 Ry

     total magnetization       =     0.00 Bohr mag/cell
     absolute magnetization    =     0.00 Bohr mag/cell

     convergence has been achieved in   9 iterations

     Forces acting on atoms (cartesian axes, Ry/au):

     atom    1 type  1   force =     0.00000000    0.00000000    0.00000000
     The non-local contrib.  to forces
     atom    1 type  1   force =     0.00000000    0.00000000   -0.00000000
     The ionic contribution  to forces
     atom    1 type  1   force =    -0.00000000   -0.00000000   -0.00000000
     The local contribution  to forces
     atom    1 type  1   force =     0.00000000    0.00000000    0.00000000
     The core correction contribution to forces
     atom    1 type  1   force =     0.00000000    0.00000000    0.00000000
     The Hubbard contrib.    to forces
     atom    1 type  1   force =     0.00000000    0.00000000    0.00000000
     The SCF correction term to forces
     atom    1 type  1   force =     0.00000000    0.00000000    0.00000000

     Total force =     0.000000     Total SCF correction =     0.000000


     Computing stress (Cartesian axis) and pressure

          total   stress  (Ry/bohr**3)                   (kbar)     P=       -2.46
  -0.00001673   0.00000000   0.00000000           -2.46        0.00        0.00
   0.00000000  -0.00001673   0.00000000            0.00       -2.46        0.00
   0.00000000   0.00000000  -0.00001673            0.00        0.00       -2.46

     Energy error            =      9.1E-04 Ry
     Gradient error          =      0.0E+00 Ry/Bohr
     Cell gradient error     =      2.5E+00 kbar

     number of scf cycles    =   2
     number of bfgs steps    =   1

     enthalpy           old  =     -66.8769422604 Ry
     enthalpy           new  =     -66.8778496178 Ry

     CASE: enthalpy          _new < enthalpy          _old

     new trust radius        =       0.0008667335 bohr
     new conv_thr            =       0.0000000010 Ry

     new unit-cell volume =    111.90525 a.u.^3 (    16.58265 Ang^3 )
     density =     19.72367 g/cm^3

CELL_PARAMETERS (angstrom)
   0.000000000   2.023988100   2.023988100
   2.023988100   0.000000000   2.023988100
   2.023988100   2.023988100   0.000000000

ATOMIC_POSITIONS (angstrom)
Au            0.0000000000        0.0000000000        0.0000000000



     Writing config-only to output data dir /home/gridsan/epan1/labutil/lab3_samples/problem3/Lab3/Au_a_4.0_ecut_40_nk_7/pwscf.save/
     NEW-OLD atomic charge density approx. for the potential
     extrapolated charge   10.98648, renormalised to   11.00000
     Generating pointlists ...

     total cpu time spent up to now is        4.1 secs

     Self-consistent Calculation

     iteration #  1     ecut=    40.00 Ry     beta= 0.50
     Davidson diagonalization with overlap
     ethr =  1.00E-06,  avg # of iterations =  2.0

     total cpu time spent up to now is        4.3 secs

     total energy              =     -66.87782389 Ry
     estimated scf accuracy    <       0.00002410 Ry

     total magnetization       =     0.00 Bohr mag/cell
     absolute magnetization    =     0.00 Bohr mag/cell

     iteration #  2     ecut=    40.00 Ry     beta= 0.50
     Davidson diagonalization with overlap
     ethr =  2.19E-07,  avg # of iterations =  2.0

     total cpu time spent up to now is        4.5 secs

     total energy              =     -66.87785345 Ry
     estimated scf accuracy    <       0.00003068 Ry

     total magnetization       =     0.00 Bohr mag/cell
     absolute magnetization    =     0.00 Bohr mag/cell

     iteration #  3     ecut=    40.00 Ry     beta= 0.50
     Davidson diagonalization with overlap
     ethr =  2.19E-07,  avg # of iterations =  1.0

     total cpu time spent up to now is        4.6 secs

     total energy              =     -66.87785301 Ry
     estimated scf accuracy    <       0.00000679 Ry

     total magnetization       =    -0.00 Bohr mag/cell
     absolute magnetization    =     0.00 Bohr mag/cell

     iteration #  4     ecut=    40.00 Ry     beta= 0.50
     Davidson diagonalization with overlap
     ethr =  6.17E-08,  avg # of iterations =  1.0

     total cpu time spent up to now is        4.8 secs

     total energy              =     -66.87785316 Ry
     estimated scf accuracy    <       0.00000166 Ry

     total magnetization       =     0.00 Bohr mag/cell
     absolute magnetization    =     0.00 Bohr mag/cell

     iteration #  5     ecut=    40.00 Ry     beta= 0.50
     Davidson diagonalization with overlap
     ethr =  1.51E-08,  avg # of iterations =  1.0

     total cpu time spent up to now is        4.9 secs

     total energy              =     -66.87785276 Ry
     estimated scf accuracy    <       0.00000112 Ry

     total magnetization       =     0.00 Bohr mag/cell
     absolute magnetization    =     0.00 Bohr mag/cell

     iteration #  6     ecut=    40.00 Ry     beta= 0.50
     Davidson diagonalization with overlap
     ethr =  1.02E-08,  avg # of iterations =  1.0

     total cpu time spent up to now is        5.1 secs

     total energy              =     -66.87785277 Ry
     estimated scf accuracy    <       0.00000018 Ry

     total magnetization       =     0.00 Bohr mag/cell
     absolute magnetization    =     0.00 Bohr mag/cell

     iteration #  7     ecut=    40.00 Ry     beta= 0.50
     Davidson diagonalization with overlap
     ethr =  1.61E-09,  avg # of iterations =  1.3

     total cpu time spent up to now is        5.2 secs

     total energy              =     -66.87785278 Ry
     estimated scf accuracy    <       0.00000001 Ry

     total magnetization       =     0.00 Bohr mag/cell
     absolute magnetization    =     0.00 Bohr mag/cell

     iteration #  8     ecut=    40.00 Ry     beta= 0.50
     Davidson diagonalization with overlap
     ethr =  1.13E-10,  avg # of iterations =  1.1

     Magnetic moment per site  (integrated on atomic sphere of radius R)
     atom   1 (R=0.413)  charge=  9.2531  magn= -0.0000

     total cpu time spent up to now is        5.4 secs

     End of self-consistent calculation

 ------ SPIN UP ------------


          k = 0.0000 0.0000 0.0000 (   459 PWs)   bands (ev):

     5.9337  11.3713  11.3713  11.3713  12.9654  12.9654  32.6085  36.2432
    36.2432  36.2432

          k = 0.0998 0.0998-0.0998 (   471 PWs)   bands (ev):

     6.6445  11.1798  11.5850  11.5850  12.9035  12.9035  31.8844  33.4878
    36.6664  36.6664

          k = 0.1996 0.1996-0.1996 (   471 PWs)   bands (ev):

     8.1398  11.4657  11.6181  11.6181  13.3356  13.3356  26.1522  33.0719
    36.3075  36.3075

          k = 0.2995 0.2995-0.2995 (   470 PWs)   bands (ev):

     8.5994  11.3697  11.3697  14.0817  14.1060  14.1060  20.6706  31.8663
    34.6065  34.6065

          k = 0.1996 0.0000 0.0000 (   471 PWs)   bands (ev):

     6.8882  10.9021  11.8183  11.8183  12.4761  13.1813  33.4883  33.9051
    34.5037  34.5037

          k = 0.2995 0.0998-0.0998 (   469 PWs)   bands (ev):

     8.2412  10.6165  11.6732  12.1011  13.0093  13.5702  28.4816  33.0322
    33.5673  35.2588

          k = 0.3993 0.1996-0.1996 (   455 PWs)   bands (ev):

     9.0677  11.1340  11.6526  11.8938  14.2073  15.1231  22.5805  31.8381
    32.3070  33.4940

          k =-0.1996-0.3993 0.3993 (   455 PWs)   bands (ev):

     9.1246  11.0277  11.7324  12.5750  14.0656  17.1422  19.6006  30.3301
    32.8435  33.3443

          k =-0.0998-0.2995 0.2995 (   457 PWs)   bands (ev):

     9.0360  11.1747  11.4996  11.8888  13.0967  14.8827  24.5664  30.1989
    33.8159  36.4461

          k =-0.0000-0.1996 0.1996 (   469 PWs)   bands (ev):

     7.7172  10.8609  11.7219  11.9676  12.4665  13.5397  29.8318  31.5477
    36.0488  36.6370

          k = 0.3993 0.0000 0.0000 (   456 PWs)   bands (ev):

     8.8540   9.9652  12.2887  13.0270  13.0270  13.6893  30.3757  30.3757
    31.0263  32.9662

          k = 0.4991 0.0998-0.0998 (   463 PWs)   bands (ev):

     9.3432   9.8724  12.2116  13.1005  14.2725  15.4242  24.8930  28.3649
    29.1713  34.0585

          k =-0.0998-0.4991 0.4991 (   456 PWs)   bands (ev):

     9.6299  10.4645  11.8310  12.7923  14.1565  19.3919  20.2096  25.8506
    30.1893  33.9502

          k = 0.0000-0.3993 0.3993 (   461 PWs)   bands (ev):

    10.0502  10.9799  11.0360  12.4888  13.3310  17.0423  23.9393  24.9572
    33.1259  33.7919

          k = 0.5989 0.0000 0.0000 (   452 PWs)   bands (ev):

     8.9481   9.3029  14.1222  14.3447  14.3447  15.7467  23.7901  27.1410
    27.1410  33.3111

          k = 0.0000-0.5989 0.5989 (   460 PWs)   bands (ev):

     9.1445   9.5208  13.3802  13.8234  14.4250  18.8510  21.4394  25.0244
    27.5656  34.3997

          k = 0.3993 0.1996 0.0000 (   464 PWs)   bands (ev):

     9.5081  10.3153  11.2092  12.9349  13.0248  14.9716  26.4383  28.3257
    31.8460  37.1378

          k =-0.1996-0.3993 0.5989 (   463 PWs)   bands (ev):

     9.9094  10.6050  11.2758  12.5851  13.9750  17.5706  21.7195  27.4298
    29.6582  35.9936

          k =-0.0998-0.4991 0.6987 (   461 PWs)   bands (ev):

     9.5724   9.8310  12.1507  13.5369  14.3396  18.1150  23.0151  25.5554
    26.8028  36.9164

          k = 0.0000-0.3993 0.5989 (   462 PWs)   bands (ev):

     9.9866  10.4786  11.3521  12.9009  14.3321  20.0287  22.1881  23.3716
    27.4073  37.3154

 ------ SPIN DOWN ----------


          k = 0.0000 0.0000 0.0000 (   459 PWs)   bands (ev):

     5.9337  11.3713  11.3713  11.3713  12.9654  12.9654  32.6085  36.2432
    36.2432  36.2432

          k = 0.0998 0.0998-0.0998 (   471 PWs)   bands (ev):

     6.6445  11.1798  11.5850  11.5850  12.9035  12.9035  31.8844  33.4878
    36.6665  36.6665

          k = 0.1996 0.1996-0.1996 (   471 PWs)   bands (ev):

     8.1398  11.4657  11.6181  11.6181  13.3356  13.3356  26.1522  33.0719
    36.3075  36.3075

          k = 0.2995 0.2995-0.2995 (   470 PWs)   bands (ev):

     8.5994  11.3697  11.3697  14.0817  14.1060  14.1060  20.6706  31.8663
    34.6065  34.6065

          k = 0.1996 0.0000 0.0000 (   471 PWs)   bands (ev):

     6.8882  10.9021  11.8183  11.8183  12.4761  13.1813  33.4883  33.9051
    34.5037  34.5037

          k = 0.2995 0.0998-0.0998 (   469 PWs)   bands (ev):

     8.2412  10.6164  11.6732  12.1011  13.0093  13.5702  28.4816  33.0322
    33.5673  35.2588

          k = 0.3993 0.1996-0.1996 (   455 PWs)   bands (ev):

     9.0677  11.1340  11.6526  11.8938  14.2073  15.1231  22.5805  31.8381
    32.3070  33.4940

          k =-0.1996-0.3993 0.3993 (   455 PWs)   bands (ev):

     9.1246  11.0277  11.7324  12.5750  14.0656  17.1422  19.6006  30.3301
    32.8435  33.3444

          k =-0.0998-0.2995 0.2995 (   457 PWs)   bands (ev):

     9.0360  11.1747  11.4996  11.8888  13.0967  14.8827  24.5664  30.1989
    33.8159  36.4461

          k =-0.0000-0.1996 0.1996 (   469 PWs)   bands (ev):

     7.7172  10.8609  11.7219  11.9676  12.4665  13.5397  29.8318  31.5477
    36.0488  36.6370

          k = 0.3993 0.0000 0.0000 (   456 PWs)   bands (ev):

     8.8540   9.9652  12.2887  13.0270  13.0270  13.6893  30.3757  30.3757
    31.0263  32.9662

          k = 0.4991 0.0998-0.0998 (   463 PWs)   bands (ev):

     9.3432   9.8724  12.2116  13.1005  14.2725  15.4242  24.8930  28.3649
    29.1713  34.0585

          k =-0.0998-0.4991 0.4991 (   456 PWs)   bands (ev):

     9.6299  10.4645  11.8310  12.7923  14.1565  19.3919  20.2096  25.8506
    30.1893  33.9502

          k = 0.0000-0.3993 0.3993 (   461 PWs)   bands (ev):

    10.0502  10.9799  11.0360  12.4888  13.3310  17.0423  23.9393  24.9572
    33.1259  33.7919

          k = 0.5989 0.0000 0.0000 (   452 PWs)   bands (ev):

     8.9481   9.3029  14.1222  14.3447  14.3447  15.7467  23.7901  27.1410
    27.1410  33.3111

          k = 0.0000-0.5989 0.5989 (   460 PWs)   bands (ev):

     9.1445   9.5208  13.3802  13.8234  14.4250  18.8510  21.4394  25.0244
    27.5656  34.3997

          k = 0.3993 0.1996 0.0000 (   464 PWs)   bands (ev):

     9.5081  10.3153  11.2092  12.9349  13.0248  14.9716  26.4383  28.3257
    31.8460  37.1378

          k =-0.1996-0.3993 0.5989 (   463 PWs)   bands (ev):

     9.9094  10.6050  11.2758  12.5851  13.9750  17.5706  21.7195  27.4298
    29.6582  35.9936

          k =-0.0998-0.4991 0.6987 (   461 PWs)   bands (ev):

     9.5724   9.8310  12.1507  13.5369  14.3396  18.1150  23.0151  25.5554
    26.8028  36.9164

          k = 0.0000-0.3993 0.5989 (   462 PWs)   bands (ev):

     9.9866  10.4786  11.3521  12.9009  14.3321  20.0287  22.1881  23.3716
    27.4073  37.3154

     the Fermi energy is    15.6835 ev

!    total energy              =     -66.87785278 Ry
     estimated scf accuracy    <          4.6E-10 Ry
     smearing contrib. (-TS)   =       0.00009553 Ry
     internal energy E=F+TS    =     -66.87794832 Ry

     The total energy is F=E-TS. E is the sum of the following terms:
     one-electron contribution =       8.95826810 Ry
     hartree contribution      =       7.15107556 Ry
     xc contribution           =     -10.46444771 Ry
     ewald contribution        =     -72.52284427 Ry

     total magnetization       =     0.00 Bohr mag/cell
     absolute magnetization    =     0.00 Bohr mag/cell

     convergence has been achieved in   8 iterations

     Forces acting on atoms (cartesian axes, Ry/au):

     atom    1 type  1   force =     0.00000000    0.00000000    0.00000000
     The non-local contrib.  to forces
     atom    1 type  1   force =     0.00000000    0.00000000   -0.00000000
     The ionic contribution  to forces
     atom    1 type  1   force =    -0.00000000   -0.00000000   -0.00000000
     The local contribution  to forces
     atom    1 type  1   force =     0.00000000    0.00000000    0.00000000
     The core correction contribution to forces
     atom    1 type  1   force =     0.00000000    0.00000000    0.00000000
     The Hubbard contrib.    to forces
     atom    1 type  1   force =     0.00000000    0.00000000    0.00000000
     The SCF correction term to forces
     atom    1 type  1   force =     0.00000000    0.00000000    0.00000000

     Total force =     0.000000     Total SCF correction =     0.000000


     Computing stress (Cartesian axis) and pressure

          total   stress  (Ry/bohr**3)                   (kbar)     P=       -2.35
  -0.00001594  -0.00000000   0.00000000           -2.35       -0.00        0.00
  -0.00000000  -0.00001594   0.00000000           -0.00       -2.35        0.00
   0.00000000   0.00000000  -0.00001594            0.00        0.00       -2.35

     Energy error            =      3.2E-06 Ry
     Gradient error          =      0.0E+00 Ry/Bohr
     Cell gradient error     =      2.3E+00 kbar

     number of scf cycles    =   3
     number of bfgs steps    =   2

     enthalpy           old  =     -66.8778496178 Ry
     enthalpy           new  =     -66.8778527832 Ry

     CASE: enthalpy          _new < enthalpy          _old


     WARNING: bfgs curvature condition failed, Theta= 0.840
     new trust radius        =       0.0012998341 bohr
     new conv_thr            =       0.0000000010 Ry

     new unit-cell volume =    111.69912 a.u.^3 (    16.55210 Ang^3 )
     density =     19.76007 g/cm^3

CELL_PARAMETERS (angstrom)
   0.000000000   2.022744614   2.022744614
   2.022744614   0.000000000   2.022744614
   2.022744614   2.022744614   0.000000000

ATOMIC_POSITIONS (angstrom)
Au            0.0000000000        0.0000000000        0.0000000000



     Writing config-only to output data dir /home/gridsan/epan1/labutil/lab3_samples/problem3/Lab3/Au_a_4.0_ecut_40_nk_7/pwscf.save/
     NEW-OLD atomic charge density approx. for the potential
     extrapolated charge   10.97970, renormalised to   11.00000
     Generating pointlists ...

     total cpu time spent up to now is        5.6 secs

     Self-consistent Calculation

     iteration #  1     ecut=    40.00 Ry     beta= 0.50
     Davidson diagonalization with overlap
     ethr =  1.00E-06,  avg # of iterations =  2.0

     total cpu time spent up to now is        5.8 secs

     total energy              =     -66.87778440 Ry
     estimated scf accuracy    <       0.00006124 Ry

     total magnetization       =     0.00 Bohr mag/cell
     absolute magnetization    =     0.00 Bohr mag/cell

     iteration #  2     ecut=    40.00 Ry     beta= 0.50
     Davidson diagonalization with overlap
     ethr =  5.57E-07,  avg # of iterations =  2.0

     total cpu time spent up to now is        6.0 secs

     total energy              =     -66.87785433 Ry
     estimated scf accuracy    <       0.00006988 Ry

     total magnetization       =     0.00 Bohr mag/cell
     absolute magnetization    =     0.00 Bohr mag/cell

     iteration #  3     ecut=    40.00 Ry     beta= 0.50
     Davidson diagonalization with overlap
     ethr =  5.57E-07,  avg # of iterations =  1.0

     total cpu time spent up to now is        6.2 secs

     total energy              =     -66.87785394 Ry
     estimated scf accuracy    <       0.00001445 Ry

     total magnetization       =     0.00 Bohr mag/cell
     absolute magnetization    =     0.00 Bohr mag/cell

     iteration #  4     ecut=    40.00 Ry     beta= 0.50
     Davidson diagonalization with overlap
     ethr =  1.31E-07,  avg # of iterations =  1.0

     total cpu time spent up to now is        6.3 secs

     total energy              =     -66.87785410 Ry
     estimated scf accuracy    <       0.00000367 Ry

     total magnetization       =     0.00 Bohr mag/cell
     absolute magnetization    =     0.00 Bohr mag/cell

     iteration #  5     ecut=    40.00 Ry     beta= 0.50
     Davidson diagonalization with overlap
     ethr =  3.34E-08,  avg # of iterations =  1.0

     total cpu time spent up to now is        6.5 secs

     total energy              =     -66.87785333 Ry
     estimated scf accuracy    <       0.00000217 Ry

     total magnetization       =     0.00 Bohr mag/cell
     absolute magnetization    =     0.00 Bohr mag/cell

     iteration #  6     ecut=    40.00 Ry     beta= 0.50
     Davidson diagonalization with overlap
     ethr =  1.97E-08,  avg # of iterations =  1.0

     total cpu time spent up to now is        6.6 secs

     total energy              =     -66.87785334 Ry
     estimated scf accuracy    <       0.00000032 Ry

     total magnetization       =     0.00 Bohr mag/cell
     absolute magnetization    =     0.00 Bohr mag/cell

     iteration #  7     ecut=    40.00 Ry     beta= 0.50
     Davidson diagonalization with overlap
     ethr =  2.87E-09,  avg # of iterations =  1.4

     total cpu time spent up to now is        6.8 secs

     total energy              =     -66.87785338 Ry
     estimated scf accuracy    <          7.5E-09 Ry

     total magnetization       =     0.00 Bohr mag/cell
     absolute magnetization    =     0.00 Bohr mag/cell

     iteration #  8     ecut=    40.00 Ry     beta= 0.50
     Davidson diagonalization with overlap
     ethr =  6.86E-11,  avg # of iterations =  1.0

     Magnetic moment per site  (integrated on atomic sphere of radius R)
     atom   1 (R=0.413)  charge=  9.2554  magn= -0.0000

     total cpu time spent up to now is        6.9 secs

     End of self-consistent calculation

 ------ SPIN UP ------------


          k = 0.0000 0.0000 0.0000 (   459 PWs)   bands (ev):

     5.9572  11.4044  11.4044  11.4044  13.0036  13.0036  32.6563  36.3025
    36.3025  36.3025

          k = 0.0999 0.0999-0.0999 (   471 PWs)   bands (ev):

     6.6693  11.2123  11.6188  11.6188  12.9415  12.9415  31.9421  33.5383
    36.7295  36.7295

          k = 0.1998 0.1998-0.1998 (   471 PWs)   bands (ev):

     8.1663  11.4984  11.6520  11.6520  13.3749  13.3749  26.2089  33.1222
    36.3755  36.3755

          k = 0.2996 0.2996-0.2996 (   470 PWs)   bands (ev):

     8.6256  11.4028  11.4028  14.1173  14.1479  14.1479  20.7239  31.9136
    34.6702  34.6702

          k = 0.1998 0.0000 0.0000 (   471 PWs)   bands (ev):

     6.9134  10.9337  11.8528  11.8528  12.5126  13.2202  33.5407  33.9614
    34.5664  34.5664

          k = 0.2996 0.0999-0.0999 (   469 PWs)   bands (ev):

     8.2682  10.6471  11.7071  12.1364  13.0472  13.6103  28.5399  33.0951
    33.6219  35.3242

          k = 0.3995 0.1998-0.1998 (   455 PWs)   bands (ev):

     9.0950  11.1660  11.6858  11.9284  14.2496  15.1655  22.6340  31.8937
    32.3685  33.5553

          k =-0.1998-0.3995 0.3995 (   455 PWs)   bands (ev):

     9.1518  11.0594  11.7665  12.6103  14.1073  17.1858  19.6531  30.3884
    32.8974  33.4072

          k =-0.0999-0.2996 0.2996 (   457 PWs)   bands (ev):

     9.0637  11.2070  11.5324  11.9234  13.1351  14.9260  24.6218  30.2587
    33.8697  36.5148

          k =-0.0000-0.1998 0.1998 (   469 PWs)   bands (ev):

     7.7436  10.8923  11.7560  12.0026  12.5029  13.5796  29.8894  31.6085
    36.1044  36.6965

          k = 0.3995 0.0000 0.0000 (   456 PWs)   bands (ev):

     8.8813   9.9939  12.3239  13.0651  13.0651  13.7298  30.4346  30.4346
    31.0920  33.0246

          k = 0.4994 0.0999-0.0999 (   463 PWs)   bands (ev):

     9.3705   9.9008  12.2465  13.1389  14.3150  15.4672  24.9477  28.4243
    29.2279  34.1205

          k =-0.0999-0.4994 0.4994 (   456 PWs)   bands (ev):

     9.6578  10.4942  11.8648  12.8296  14.1985  19.4430  20.2570  25.9077
    30.2479  34.0103

          k = 0.0000-0.3995 0.3995 (   461 PWs)   bands (ev):

    10.0796  11.0110  11.0677  12.5251  13.3702  17.0892  23.9939  25.0128
    33.1900  33.8486

          k = 0.5993 0.0000 0.0000 (   452 PWs)   bands (ev):

     8.9741   9.3297  14.1642  14.3873  14.3873  15.7858  23.8486  27.1934
    27.1934  33.3733

          k = 0.0000-0.5993 0.5993 (   460 PWs)   bands (ev):

     9.1709   9.5483  13.4185  13.8642  14.4679  18.8955  21.4950  25.0772
    27.6190  34.4638

          k = 0.3995 0.1998 0.0000 (   464 PWs)   bands (ev):

     9.5368  10.3450  11.2416  12.9725  13.0630  15.0152  26.4947  28.3846
    31.9054  37.2038

          k =-0.1998-0.3995 0.5993 (   463 PWs)   bands (ev):

     9.9383  10.6352  11.3081  12.6217  14.0163  17.6179  21.7712  27.4877
    29.7164  36.0534

          k =-0.0999-0.4994 0.6992 (   461 PWs)   bands (ev):

     9.5999   9.8593  12.1855  13.5765  14.3821  18.1621  23.0692  25.6085
    26.8588  36.9817

          k = 0.0000-0.3995 0.5993 (   462 PWs)   bands (ev):

    10.0151  10.5086  11.3847  12.9385  14.3746  20.0799  22.2387  23.4255
    27.4639  37.3789

 ------ SPIN DOWN ----------


          k = 0.0000 0.0000 0.0000 (   459 PWs)   bands (ev):

     5.9572  11.4044  11.4044  11.4044  13.0036  13.0036  32.6563  36.3025
    36.3025  36.3025

          k = 0.0999 0.0999-0.0999 (   471 PWs)   bands (ev):

     6.6693  11.2123  11.6188  11.6188  12.9415  12.9415  31.9421  33.5383
    36.7295  36.7295

          k = 0.1998 0.1998-0.1998 (   471 PWs)   bands (ev):

     8.1663  11.4984  11.6520  11.6520  13.3749  13.3749  26.2089  33.1222
    36.3755  36.3755

          k = 0.2996 0.2996-0.2996 (   470 PWs)   bands (ev):

     8.6256  11.4028  11.4028  14.1173  14.1479  14.1479  20.7239  31.9136
    34.6702  34.6702

          k = 0.1998 0.0000 0.0000 (   471 PWs)   bands (ev):

     6.9134  10.9337  11.8528  11.8528  12.5126  13.2202  33.5407  33.9614
    34.5664  34.5664

          k = 0.2996 0.0999-0.0999 (   469 PWs)   bands (ev):

     8.2682  10.6471  11.7071  12.1364  13.0472  13.6103  28.5399  33.0951
    33.6219  35.3242

          k = 0.3995 0.1998-0.1998 (   455 PWs)   bands (ev):

     9.0950  11.1660  11.6858  11.9284  14.2496  15.1655  22.6340  31.8937
    32.3685  33.5553

          k =-0.1998-0.3995 0.3995 (   455 PWs)   bands (ev):

     9.1518  11.0594  11.7665  12.6103  14.1073  17.1858  19.6531  30.3884
    32.8974  33.4072

          k =-0.0999-0.2996 0.2996 (   457 PWs)   bands (ev):

     9.0637  11.2070  11.5324  11.9234  13.1351  14.9260  24.6218  30.2587
    33.8697  36.5148

          k =-0.0000-0.1998 0.1998 (   469 PWs)   bands (ev):

     7.7436  10.8923  11.7560  12.0026  12.5029  13.5796  29.8894  31.6085
    36.1044  36.6965

          k = 0.3995 0.0000 0.0000 (   456 PWs)   bands (ev):

     8.8813   9.9939  12.3239  13.0651  13.0651  13.7298  30.4346  30.4346
    31.0920  33.0246

          k = 0.4994 0.0999-0.0999 (   463 PWs)   bands (ev):

     9.3705   9.9008  12.2465  13.1389  14.3150  15.4672  24.9477  28.4243
    29.2279  34.1205

          k =-0.0999-0.4994 0.4994 (   456 PWs)   bands (ev):

     9.6578  10.4942  11.8648  12.8296  14.1985  19.4430  20.2570  25.9077
    30.2479  34.0103

          k = 0.0000-0.3995 0.3995 (   461 PWs)   bands (ev):

    10.0796  11.0110  11.0677  12.5251  13.3702  17.0892  23.9939  25.0128
    33.1900  33.8486

          k = 0.5993 0.0000 0.0000 (   452 PWs)   bands (ev):

     8.9741   9.3297  14.1642  14.3873  14.3873  15.7858  23.8486  27.1934
    27.1934  33.3733

          k = 0.0000-0.5993 0.5993 (   460 PWs)   bands (ev):

     9.1709   9.5483  13.4185  13.8642  14.4679  18.8955  21.4950  25.0772
    27.6190  34.4638

          k = 0.3995 0.1998 0.0000 (   464 PWs)   bands (ev):

     9.5368  10.3450  11.2416  12.9725  13.0630  15.0152  26.4947  28.3846
    31.9054  37.2038

          k =-0.1998-0.3995 0.5993 (   463 PWs)   bands (ev):

     9.9383  10.6352  11.3081  12.6217  14.0163  17.6179  21.7712  27.4877
    29.7164  36.0534

          k =-0.0999-0.4994 0.6992 (   461 PWs)   bands (ev):

     9.5999   9.8593  12.1855  13.5765  14.3821  18.1621  23.0692  25.6085
    26.8588  36.9817

          k = 0.0000-0.3995 0.5993 (   462 PWs)   bands (ev):

    10.0151  10.5086  11.3847  12.9385  14.3746  20.0799  22.2387  23.4255
    27.4639  37.3789

     the Fermi energy is    15.7240 ev

!    total energy              =     -66.87785338 Ry
     estimated scf accuracy    <          8.0E-10 Ry
     smearing contrib. (-TS)   =       0.00009274 Ry
     internal energy E=F+TS    =     -66.87794612 Ry

     The total energy is F=E-TS. E is the sum of the following terms:
     one-electron contribution =       9.02067231 Ry
     hartree contribution      =       7.13484969 Ry
     xc contribution           =     -10.46604033 Ry
     ewald contribution        =     -72.56742779 Ry

     total magnetization       =     0.00 Bohr mag/cell
     absolute magnetization    =     0.00 Bohr mag/cell

     convergence has been achieved in   8 iterations

     Forces acting on atoms (cartesian axes, Ry/au):

     atom    1 type  1   force =     0.00000000    0.00000000    0.00000000
     The non-local contrib.  to forces
     atom    1 type  1   force =    -0.00000000   -0.00000000    0.00000000
     The ionic contribution  to forces
     atom    1 type  1   force =    -0.00000000   -0.00000000   -0.00000000
     The local contribution  to forces
     atom    1 type  1   force =     0.00000000    0.00000000    0.00000000
     The core correction contribution to forces
     atom    1 type  1   force =     0.00000000    0.00000000    0.00000000
     The Hubbard contrib.    to forces
     atom    1 type  1   force =     0.00000000    0.00000000    0.00000000
     The SCF correction term to forces
     atom    1 type  1   force =     0.00000000    0.00000000    0.00000000

     Total force =     0.000000     Total SCF correction =     0.000000


     Computing stress (Cartesian axis) and pressure

          total   stress  (Ry/bohr**3)                   (kbar)     P=        1.09
   0.00000743  -0.00000000  -0.00000000            1.09       -0.00       -0.00
  -0.00000000   0.00000743  -0.00000000           -0.00        1.09       -0.00
  -0.00000000  -0.00000000   0.00000743           -0.00       -0.00        1.09

     Energy error            =      6.0E-07 Ry
     Gradient error          =      0.0E+00 Ry/Bohr
     Cell gradient error     =      1.1E+00 kbar

     number of scf cycles    =   4
     number of bfgs steps    =   3

     enthalpy           old  =     -66.8778527832 Ry
     enthalpy           new  =     -66.8778533843 Ry

     CASE: enthalpy          _new < enthalpy          _old

     new trust radius        =       0.0004126022 bohr
     new conv_thr            =       0.0000000010 Ry

     new unit-cell volume =    111.76454 a.u.^3 (    16.56180 Ang^3 )
     density =     19.74850 g/cm^3

CELL_PARAMETERS (angstrom)
   0.000000000   2.023139451   2.023139451
   2.023139451   0.000000000   2.023139451
   2.023139451   2.023139451   0.000000000

ATOMIC_POSITIONS (angstrom)
Au            0.0000000000        0.0000000000        0.0000000000



     Writing config-only to output data dir /home/gridsan/epan1/labutil/lab3_samples/problem3/Lab3/Au_a_4.0_ecut_40_nk_7/pwscf.save/
     NEW-OLD atomic charge density approx. for the potential
     extrapolated charge   11.00644, renormalised to   11.00000
     Generating pointlists ...

     total cpu time spent up to now is        7.2 secs

     Self-consistent Calculation

     iteration #  1     ecut=    40.00 Ry     beta= 0.50
     Davidson diagonalization with overlap
     ethr =  1.00E-06,  avg # of iterations =  2.0

     Threshold (ethr) on eigenvalues was too large:
     Diagonalizing with lowered threshold

     Davidson diagonalization with overlap
     ethr =  5.44E-08,  avg # of iterations =  1.0

     total cpu time spent up to now is        7.5 secs

     total energy              =     -66.87784684 Ry
     estimated scf accuracy    <       0.00000601 Ry

     total magnetization       =     0.00 Bohr mag/cell
     absolute magnetization    =     0.00 Bohr mag/cell

     iteration #  2     ecut=    40.00 Ry     beta= 0.50
     Davidson diagonalization with overlap
     ethr =  5.46E-08,  avg # of iterations =  2.0

     total cpu time spent up to now is        8.5 secs

     total energy              =     -66.87785385 Ry
     estimated scf accuracy    <       0.00000708 Ry

     total magnetization       =     0.00 Bohr mag/cell
     absolute magnetization    =     0.00 Bohr mag/cell

     iteration #  3     ecut=    40.00 Ry     beta= 0.50
     Davidson diagonalization with overlap
     ethr =  5.46E-08,  avg # of iterations =  1.0

     total cpu time spent up to now is        8.9 secs

     total energy              =     -66.87785379 Ry
     estimated scf accuracy    <       0.00000150 Ry

     total magnetization       =     0.00 Bohr mag/cell
     absolute magnetization    =     0.00 Bohr mag/cell

     iteration #  4     ecut=    40.00 Ry     beta= 0.50
     Davidson diagonalization with overlap
     ethr =  1.37E-08,  avg # of iterations =  1.0

     total cpu time spent up to now is        9.1 secs

     total energy              =     -66.87785380 Ry
     estimated scf accuracy    <       0.00000038 Ry

     total magnetization       =     0.00 Bohr mag/cell
     absolute magnetization    =     0.00 Bohr mag/cell

     iteration #  5     ecut=    40.00 Ry     beta= 0.50
     Davidson diagonalization with overlap
     ethr =  3.45E-09,  avg # of iterations =  1.0

     total cpu time spent up to now is        9.2 secs

     total energy              =     -66.87785371 Ry
     estimated scf accuracy    <       0.00000022 Ry

     total magnetization       =     0.00 Bohr mag/cell
     absolute magnetization    =     0.00 Bohr mag/cell

     iteration #  6     ecut=    40.00 Ry     beta= 0.50
     Davidson diagonalization with overlap
     ethr =  1.98E-09,  avg # of iterations =  1.1

     total cpu time spent up to now is        9.4 secs

     total energy              =     -66.87785373 Ry
     estimated scf accuracy    <       0.00000001 Ry

     total magnetization       =     0.00 Bohr mag/cell
     absolute magnetization    =     0.00 Bohr mag/cell

     iteration #  7     ecut=    40.00 Ry     beta= 0.50
     Davidson diagonalization with overlap
     ethr =  1.20E-10,  avg # of iterations =  1.2

     total cpu time spent up to now is        9.5 secs

     total energy              =     -66.87785373 Ry
     estimated scf accuracy    <          1.3E-09 Ry

     total magnetization       =     0.00 Bohr mag/cell
     absolute magnetization    =     0.00 Bohr mag/cell

     iteration #  8     ecut=    40.00 Ry     beta= 0.50
     Davidson diagonalization with overlap
     ethr =  1.18E-11,  avg # of iterations =  1.5

     Magnetic moment per site  (integrated on atomic sphere of radius R)
     atom   1 (R=0.413)  charge=  9.2547  magn= -0.0000

     total cpu time spent up to now is        9.7 secs

     End of self-consistent calculation

 ------ SPIN UP ------------


          k = 0.0000 0.0000 0.0000 (   459 PWs)   bands (ev):

     5.9497  11.3938  11.3938  11.3938  12.9914  12.9914  32.6411  36.2836
    36.2836  36.2836

          k = 0.0999 0.0999-0.0999 (   471 PWs)   bands (ev):

     6.6614  11.2019  11.6080  11.6080  12.9293  12.9293  31.9238  33.5222
    36.7094  36.7094

          k = 0.1997 0.1997-0.1997 (   471 PWs)   bands (ev):

     8.1578  11.4879  11.6411  11.6411  13.3623  13.3623  26.1909  33.1063
    36.3539  36.3539

          k = 0.2996 0.2996-0.2996 (   470 PWs)   bands (ev):

     8.6172  11.3922  11.3922  14.1060  14.1345  14.1345  20.7069  31.8986
    34.6499  34.6499

          k = 0.1997 0.0000 0.0000 (   471 PWs)   bands (ev):

     6.9054  10.9236  11.8417  11.8417  12.5009  13.2077  33.5240  33.9436
    34.5464  34.5464

          k = 0.2996 0.0999-0.0999 (   469 PWs)   bands (ev):

     8.2596  10.6373  11.6962  12.1251  13.0351  13.5974  28.5213  33.0751
    33.6046  35.3034

          k = 0.3994 0.1997-0.1997 (   455 PWs)   bands (ev):

     9.0862  11.1558  11.6752  11.9173  14.2361  15.1520  22.6170  31.8760
    32.3490  33.5358

          k =-0.1997-0.3994 0.3994 (   455 PWs)   bands (ev):

     9.1431  11.0493  11.7556  12.5990  14.0939  17.1719  19.6363  30.3698
    32.8802  33.3872

          k =-0.0999-0.2996 0.2996 (   457 PWs)   bands (ev):

     9.0548  11.1967  11.5219  11.9123  13.1228  14.9121  24.6041  30.2397
    33.8526  36.4929

          k =-0.0000-0.1997 0.1997 (   469 PWs)   bands (ev):

     7.7352  10.8822  11.7450  11.9914  12.4912  13.5668  29.8711  31.5891
    36.0867  36.6776

          k = 0.3994 0.0000 0.0000 (   456 PWs)   bands (ev):

     8.8726   9.9847  12.3127  13.0529  13.0529  13.7168  30.4158  30.4158
    31.0711  33.0060

          k = 0.4993 0.0999-0.0999 (   463 PWs)   bands (ev):

     9.3617   9.8917  12.2354  13.1266  14.3014  15.4534  24.9303  28.4054
    29.2099  34.1007

          k =-0.0999-0.4993 0.4993 (   456 PWs)   bands (ev):

     9.6489  10.4847  11.8540  12.8177  14.1851  19.4267  20.2419  25.8895
    30.2293  33.9912

          k = 0.0000-0.3994 0.3994 (   461 PWs)   bands (ev):

    10.0702  11.0010  11.0576  12.5134  13.3577  17.0742  23.9765  24.9951
    33.1696  33.8306

          k = 0.5992 0.0000 0.0000 (   452 PWs)   bands (ev):

     8.9658   9.3211  14.1508  14.3737  14.3737  15.7734  23.8299  27.1768
    27.1768  33.3535

          k = 0.0000-0.5992 0.5992 (   460 PWs)   bands (ev):

     9.1624   9.5395  13.4062  13.8511  14.4541  18.8814  21.4773  25.0604
    27.6021  34.4434

          k = 0.3994 0.1997 0.0000 (   464 PWs)   bands (ev):

     9.5276  10.3354  11.2312  12.9605  13.0508  15.0012  26.4767  28.3658
    31.8865  37.1828

          k =-0.1997-0.3994 0.5992 (   463 PWs)   bands (ev):

     9.9291  10.6255  11.2977  12.6100  14.0031  17.6028  21.7548  27.4692
    29.6979  36.0344

          k =-0.0999-0.4993 0.6990 (   461 PWs)   bands (ev):

     9.5911   9.8502  12.1744  13.5638  14.3685  18.1471  23.0520  25.5916
    26.8410  36.9610

          k = 0.0000-0.3994 0.5992 (   462 PWs)   bands (ev):

    10.0060  10.4990  11.3742  12.9265  14.3610  20.0636  22.2226  23.4083
    27.4459  37.3587

 ------ SPIN DOWN ----------


          k = 0.0000 0.0000 0.0000 (   459 PWs)   bands (ev):

     5.9497  11.3938  11.3938  11.3938  12.9914  12.9914  32.6411  36.2836
    36.2836  36.2836

          k = 0.0999 0.0999-0.0999 (   471 PWs)   bands (ev):

     6.6614  11.2019  11.6080  11.6080  12.9293  12.9293  31.9238  33.5222
    36.7094  36.7094

          k = 0.1997 0.1997-0.1997 (   471 PWs)   bands (ev):

     8.1578  11.4879  11.6411  11.6411  13.3623  13.3623  26.1909  33.1063
    36.3539  36.3539

          k = 0.2996 0.2996-0.2996 (   470 PWs)   bands (ev):

     8.6172  11.3922  11.3922  14.1060  14.1345  14.1345  20.7069  31.8986
    34.6499  34.6499

          k = 0.1997 0.0000 0.0000 (   471 PWs)   bands (ev):

     6.9054  10.9236  11.8417  11.8417  12.5009  13.2077  33.5240  33.9436
    34.5464  34.5464

          k = 0.2996 0.0999-0.0999 (   469 PWs)   bands (ev):

     8.2596  10.6373  11.6962  12.1251  13.0351  13.5974  28.5213  33.0751
    33.6046  35.3034

          k = 0.3994 0.1997-0.1997 (   455 PWs)   bands (ev):

     9.0862  11.1558  11.6752  11.9173  14.2361  15.1520  22.6170  31.8760
    32.3490  33.5358

          k =-0.1997-0.3994 0.3994 (   455 PWs)   bands (ev):

     9.1431  11.0493  11.7556  12.5990  14.0939  17.1719  19.6363  30.3698
    32.8802  33.3872

          k =-0.0999-0.2996 0.2996 (   457 PWs)   bands (ev):

     9.0548  11.1967  11.5219  11.9123  13.1228  14.9121  24.6041  30.2397
    33.8526  36.4929

          k =-0.0000-0.1997 0.1997 (   469 PWs)   bands (ev):

     7.7352  10.8822  11.7450  11.9914  12.4912  13.5668  29.8711  31.5891
    36.0867  36.6776

          k = 0.3994 0.0000 0.0000 (   456 PWs)   bands (ev):

     8.8726   9.9847  12.3127  13.0529  13.0529  13.7168  30.4158  30.4158
    31.0711  33.0060

          k = 0.4993 0.0999-0.0999 (   463 PWs)   bands (ev):

     9.3617   9.8917  12.2354  13.1266  14.3014  15.4534  24.9303  28.4054
    29.2099  34.1007

          k =-0.0999-0.4993 0.4993 (   456 PWs)   bands (ev):

     9.6489  10.4847  11.8540  12.8177  14.1851  19.4267  20.2419  25.8895
    30.2293  33.9912

          k = 0.0000-0.3994 0.3994 (   461 PWs)   bands (ev):

    10.0702  11.0010  11.0576  12.5134  13.3577  17.0742  23.9765  24.9951
    33.1696  33.8306

          k = 0.5992 0.0000 0.0000 (   452 PWs)   bands (ev):

     8.9658   9.3211  14.1508  14.3737  14.3737  15.7734  23.8299  27.1768
    27.1768  33.3535

          k = 0.0000-0.5992 0.5992 (   460 PWs)   bands (ev):

     9.1624   9.5395  13.4062  13.8511  14.4541  18.8814  21.4773  25.0604
    27.6021  34.4434

          k = 0.3994 0.1997 0.0000 (   464 PWs)   bands (ev):

     9.5276  10.3354  11.2312  12.9605  13.0508  15.0012  26.4767  28.3658
    31.8865  37.1828

          k =-0.1997-0.3994 0.5992 (   463 PWs)   bands (ev):

     9.9291  10.6255  11.2977  12.6100  14.0031  17.6028  21.7548  27.4692
    29.6979  36.0344

          k =-0.0999-0.4993 0.6990 (   461 PWs)   bands (ev):

     9.5911   9.8502  12.1744  13.5638  14.3685  18.1471  23.0520  25.5916
    26.8410  36.9610

          k = 0.0000-0.3994 0.5992 (   462 PWs)   bands (ev):

    10.0060  10.4990  11.3742  12.9265  14.3610  20.0636  22.2226  23.4083
    27.4459  37.3587

     the Fermi energy is    15.7111 ev

!    total energy              =     -66.87785373 Ry
     estimated scf accuracy    <          3.6E-11 Ry
     smearing contrib. (-TS)   =       0.00009367 Ry
     internal energy E=F+TS    =     -66.87794740 Ry

     The total energy is F=E-TS. E is the sum of the following terms:
     one-electron contribution =       9.00078268 Ry
     hartree contribution      =       7.14008999 Ry
     xc contribution           =     -10.46555457 Ry
     ewald contribution        =     -72.55326550 Ry

     total magnetization       =     0.00 Bohr mag/cell
     absolute magnetization    =     0.00 Bohr mag/cell

     convergence has been achieved in   8 iterations

     Forces acting on atoms (cartesian axes, Ry/au):

     atom    1 type  1   force =     0.00000000    0.00000000    0.00000000
     The non-local contrib.  to forces
     atom    1 type  1   force =     0.00000000    0.00000000   -0.00000000
     The ionic contribution  to forces
     atom    1 type  1   force =    -0.00000000   -0.00000000   -0.00000000
     The local contribution  to forces
     atom    1 type  1   force =     0.00000000    0.00000000    0.00000000
     The core correction contribution to forces
     atom    1 type  1   force =     0.00000000    0.00000000    0.00000000
     The Hubbard contrib.    to forces
     atom    1 type  1   force =     0.00000000    0.00000000    0.00000000
     The SCF correction term to forces
     atom    1 type  1   force =     0.00000000    0.00000000    0.00000000

     Total force =     0.000000     Total SCF correction =     0.000000


     Computing stress (Cartesian axis) and pressure

          total   stress  (Ry/bohr**3)                   (kbar)     P=        0.26
   0.00000179  -0.00000000  -0.00000000            0.26       -0.00       -0.00
  -0.00000000   0.00000179  -0.00000000           -0.00        0.26       -0.00
  -0.00000000  -0.00000000   0.00000179           -0.00       -0.00        0.26

     Energy error            =      3.5E-07 Ry
     Gradient error          =      0.0E+00 Ry/Bohr
     Cell gradient error     =      2.6E-01 kbar
Begin final coordinates
     new unit-cell volume =    111.76454 a.u.^3 (    16.56180 Ang^3 )
     density =     19.74850 g/cm^3

CELL_PARAMETERS (angstrom)
   0.000000000   2.023139451   2.023139451
   2.023139451   0.000000000   2.023139451
   2.023139451   2.023139451   0.000000000

ATOMIC_POSITIONS (angstrom)
Au            0.0000000000        0.0000000000        0.0000000000
End final coordinates



     Writing config-only to output data dir /home/gridsan/epan1/labutil/lab3_samples/problem3/Lab3/Au_a_4.0_ecut_40_nk_7/pwscf.save/

     lsda relaxation :  a final configuration with zero
                        absolute magnetization has been found

     the program is checking if it is really the minimum energy structure
     by performing a new scf iteration without any "electronic" history

     Initial potential from superposition of free atoms

     starting charge      10.9999, renormalised to      11.0000

     total cpu time spent up to now is       10.2 secs

     Self-consistent Calculation

     iteration #  1     ecut=    40.00 Ry     beta= 0.50
     Davidson diagonalization with overlap
     ethr =  1.00E-06,  avg # of iterations =  3.7

     total cpu time spent up to now is       10.5 secs

     total energy              =     -66.47887225 Ry
     estimated scf accuracy    <       0.46883474 Ry

     total magnetization       =     1.33 Bohr mag/cell
     absolute magnetization    =     1.37 Bohr mag/cell

     iteration #  2     ecut=    40.00 Ry     beta= 0.50
     Davidson diagonalization with overlap
     ethr =  4.26E-03,  avg # of iterations =  1.5

     total cpu time spent up to now is       10.6 secs

     total energy              =     -66.75559931 Ry
     estimated scf accuracy    <       0.14359024 Ry

     total magnetization       =     0.52 Bohr mag/cell
     absolute magnetization    =     0.57 Bohr mag/cell

     iteration #  3     ecut=    40.00 Ry     beta= 0.50
     Davidson diagonalization with overlap
     ethr =  1.31E-03,  avg # of iterations =  1.0

     total cpu time spent up to now is       10.8 secs

     total energy              =     -66.85504783 Ry
     estimated scf accuracy    <       0.05514917 Ry

     total magnetization       =     0.11 Bohr mag/cell
     absolute magnetization    =     0.33 Bohr mag/cell

     iteration #  4     ecut=    40.00 Ry     beta= 0.50
     Davidson diagonalization with overlap
     ethr =  5.01E-04,  avg # of iterations =  1.5

     total cpu time spent up to now is       10.9 secs

     total energy              =     -66.87453872 Ry
     estimated scf accuracy    <       0.01468181 Ry

     total magnetization       =    -0.02 Bohr mag/cell
     absolute magnetization    =     0.02 Bohr mag/cell

     iteration #  5     ecut=    40.00 Ry     beta= 0.50
     Davidson diagonalization with overlap
     ethr =  1.33E-04,  avg # of iterations =  1.6

     total cpu time spent up to now is       11.1 secs

     total energy              =     -66.87774620 Ry
     estimated scf accuracy    <       0.00026238 Ry

     total magnetization       =    -0.00 Bohr mag/cell
     absolute magnetization    =     0.04 Bohr mag/cell

     iteration #  6     ecut=    40.00 Ry     beta= 0.50
     Davidson diagonalization with overlap
     ethr =  2.39E-06,  avg # of iterations =  2.0

     total cpu time spent up to now is       11.3 secs

     total energy              =     -66.87784974 Ry
     estimated scf accuracy    <       0.00000736 Ry

     total magnetization       =     0.00 Bohr mag/cell
     absolute magnetization    =     0.01 Bohr mag/cell

     iteration #  7     ecut=    40.00 Ry     beta= 0.50
     Davidson diagonalization with overlap
     ethr =  6.69E-08,  avg # of iterations =  2.0

     total cpu time spent up to now is       11.5 secs

     total energy              =     -66.87785346 Ry
     estimated scf accuracy    <       0.00000033 Ry

     total magnetization       =     0.00 Bohr mag/cell
     absolute magnetization    =     0.00 Bohr mag/cell

     iteration #  8     ecut=    40.00 Ry     beta= 0.50
     Davidson diagonalization with overlap
     ethr =  2.98E-09,  avg # of iterations =  1.5

     total cpu time spent up to now is       11.6 secs

     total energy              =     -66.87785371 Ry
     estimated scf accuracy    <       0.00000013 Ry

     total magnetization       =    -0.00 Bohr mag/cell
     absolute magnetization    =     0.00 Bohr mag/cell

     iteration #  9     ecut=    40.00 Ry     beta= 0.50
     Davidson diagonalization with overlap
     ethr =  1.15E-09,  avg # of iterations =  1.5

     Magnetic moment per site  (integrated on atomic sphere of radius R)
     atom   1 (R=0.413)  charge=  9.2547  magn= -0.0000

     total cpu time spent up to now is       11.8 secs

     End of self-consistent calculation

 ------ SPIN UP ------------


          k = 0.0000 0.0000 0.0000 (   459 PWs)   bands (ev):

     5.9498  11.3939  11.3939  11.3939  12.9915  12.9915  32.6412  36.2837
    36.2837  36.2837

          k = 0.0999 0.0999-0.0999 (   471 PWs)   bands (ev):

     6.6615  11.2020  11.6081  11.6081  12.9294  12.9294  31.9238  33.5223
    36.7095  36.7095

          k = 0.1997 0.1997-0.1997 (   471 PWs)   bands (ev):

     8.1579  11.4880  11.6412  11.6412  13.3624  13.3624  26.1909  33.1063
    36.3539  36.3539

          k = 0.2996 0.2996-0.2996 (   470 PWs)   bands (ev):

     8.6173  11.3923  11.3923  14.1061  14.1346  14.1346  20.7070  31.8987
    34.6500  34.6500

          k = 0.1997 0.0000 0.0000 (   471 PWs)   bands (ev):

     6.9055  10.9237  11.8419  11.8419  12.5010  13.2079  33.5241  33.9436
    34.5465  34.5465

          k = 0.2996 0.0999-0.0999 (   469 PWs)   bands (ev):

     8.2596  10.6374  11.6963  12.1252  13.0352  13.5975  28.5214  33.0751
    33.6046  35.3035

          k = 0.3994 0.1997-0.1997 (   455 PWs)   bands (ev):

     9.0863  11.1559  11.6753  11.9174  14.2362  15.1521  22.6171  31.8761
    32.3490  33.5358

          k =-0.1997-0.3994 0.3994 (   455 PWs)   bands (ev):

     9.1432  11.0494  11.7557  12.5991  14.0940  17.1720  19.6364  30.3699
    32.8803  33.3873

          k =-0.0999-0.2996 0.2996 (   457 PWs)   bands (ev):

     9.0549  11.1968  11.5220  11.9124  13.1229  14.9123  24.6042  30.2398
    33.8527  36.4930

          k =-0.0000-0.1997 0.1997 (   469 PWs)   bands (ev):

     7.7353  10.8823  11.7452  11.9915  12.4913  13.5670  29.8712  31.5892
    36.0868  36.6776

          k = 0.3994 0.0000 0.0000 (   456 PWs)   bands (ev):

     8.8727   9.9848  12.3128  13.0530  13.0530  13.7169  30.4159  30.4159
    31.0711  33.0061

          k = 0.4993 0.0999-0.0999 (   463 PWs)   bands (ev):

     9.3618   9.8918  12.2355  13.1267  14.3015  15.4535  24.9304  28.4054
    29.2100  34.1008

          k =-0.0999-0.4993 0.4993 (   456 PWs)   bands (ev):

     9.6490  10.4848  11.8541  12.8178  14.1852  19.4268  20.2420  25.8896
    30.2293  33.9912

          k = 0.0000-0.3994 0.3994 (   461 PWs)   bands (ev):

    10.0703  11.0011  11.0577  12.5136  13.3578  17.0743  23.9766  24.9952
    33.1697  33.8306

          k = 0.5992 0.0000 0.0000 (   452 PWs)   bands (ev):

     8.9658   9.3212  14.1509  14.3738  14.3738  15.7734  23.8300  27.1768
    27.1768  33.3536

          k = 0.0000-0.5992 0.5992 (   460 PWs)   bands (ev):

     9.1625   9.5396  13.4063  13.8513  14.4543  18.8814  21.4774  25.0604
    27.6021  34.4435

          k = 0.3994 0.1997 0.0000 (   464 PWs)   bands (ev):

     9.5277  10.3355  11.2313  12.9606  13.0509  15.0013  26.4768  28.3659
    31.8866  37.1829

          k =-0.1997-0.3994 0.5992 (   463 PWs)   bands (ev):

     9.9292  10.6256  11.2978  12.6101  14.0032  17.6029  21.7548  27.4693
    29.6980  36.0345

          k =-0.0999-0.4993 0.6990 (   461 PWs)   bands (ev):

     9.5912   9.8503  12.1745  13.5639  14.3686  18.1472  23.0520  25.5917
    26.8410  36.9610

          k = 0.0000-0.3994 0.5992 (   462 PWs)   bands (ev):

    10.0061  10.4991  11.3744  12.9266  14.3611  20.0637  22.2227  23.4084
    27.4459  37.3588

 ------ SPIN DOWN ----------


          k = 0.0000 0.0000 0.0000 (   459 PWs)   bands (ev):

     5.9497  11.3938  11.3938  11.3938  12.9914  12.9914  32.6410  36.2836
    36.2836  36.2836

          k = 0.0999 0.0999-0.0999 (   471 PWs)   bands (ev):

     6.6614  11.2019  11.6080  11.6080  12.9293  12.9293  31.9237  33.5222
[...]
  -0.00000000   0.00000000   0.00000054           -0.00        0.00        0.08

     Energy error            =      3.5E-07 Ry
     Gradient error          =      0.0E+00 Ry/Bohr
     Cell gradient error     =      7.9E-02 kbar

     bfgs converged in   5 scf cycles and   4 bfgs steps
     (criteria: energy <  1.0E-04 Ry, force <  1.0E-03 Ry/Bohr, cell <  5.0E-01 kbar)

     End of BFGS Geometry Optimization

     Final enthalpy           =     -66.8778537297 Ry

     File /home/gridsan/epan1/labutil/lab3_samples/problem3/Lab3/Au_a_4.0_ecut_40_nk_7/pwscf.bfgs deleted, as requested
Begin final coordinates
     new unit-cell volume =    111.76454 a.u.^3 (    16.56180 Ang^3 )
     density =     19.74850 g/cm^3

CELL_PARAMETERS (angstrom)
   0.000000000   2.023139451   2.023139451
   2.023139451   0.000000000   2.023139451
   2.023139451   2.023139451   0.000000000

ATOMIC_POSITIONS (angstrom)
Au            0.0000000000        0.0000000000        0.0000000000
End final coordinates



     Writing config-only to output data dir /home/gridsan/epan1/labutil/lab3_samples/problem3/Lab3/Au_a_4.0_ecut_40_nk_7/pwscf.save/

     Final scf calculation at the relaxed structure.
     The G-vectors are recalculated for the final unit cell
     Results may differ from those at the preceding step.

     Parallelization info
     --------------------
     sticks:   dense  smooth     PW     G-vecs:    dense   smooth      PW
     Min          81      39     13                 1355      479      90
     Max          82      40     14                 1358      484      91
     Sum         649     313    109                10849     3839     725

     Using Slab Decomposition



     bravais-lattice index     =            0
     lattice parameter (alat)  =       5.3450  a.u.
     unit-cell volume          =     111.7645 (a.u.)^3
     number of atoms/cell      =            1
     number of atomic types    =            1
     number of electrons       =        11.00
     number of Kohn-Sham states=           10
     kinetic-energy cutoff     =      40.0000  Ry
     charge density cutoff     =     320.0000  Ry
     scf convergence threshold =      1.0E-09
     mixing beta               =       0.5000
     number of iterations used =            8  plain     mixing
     press convergence thresh. =      5.0E-01
     Exchange-correlation=  SLA  PZ   NOGX NOGC
                           (   1   1   0   0   0   0   0)

     celldm(1)=   5.344953  celldm(2)=   0.000000  celldm(3)=   0.000000
     celldm(4)=   0.000000  celldm(5)=   0.000000  celldm(6)=   0.000000

     crystal axes: (cart. coord. in units of alat)
               a(1) = (   0.000000   0.715288   0.715288 )  
               a(2) = (   0.715288   0.000000   0.715288 )  
               a(3) = (   0.715288   0.715288   0.000000 )  

     reciprocal axes: (cart. coord. in units 2 pi/alat)
               b(1) = ( -0.699019  0.699019  0.699019 )  
               b(2) = (  0.699019 -0.699019  0.699019 )  
               b(3) = (  0.699019  0.699019 -0.699019 )  


     PseudoPot. # 1 for Au read from file:
     /home/gridsan/epan1/labutil/lab3_samples/pseudopotentials/Au.pz-d-rrkjus.UPF
     MD5 check sum: 424ffd4ac9c90487cbadcd287136c95b
     Pseudo is Ultrasoft, Zval = 11.0
     Generated by new atomic code, or converted to UPF format
     Using radial grid of 1279 points,  3 beta functions with: 
                l(1) =   2
                l(2) =   2
                l(3) =   1
     Q(r) pseudized with 0 coefficients 


     atomic species   valence    mass     pseudopotential
        Au            11.00   196.96657     Au( 1.00)

     Starting magnetic structure 
     atomic species   magnetization
        Au          -0.000

     48 Sym. Ops., with inversion, found



   Cartesian axes

     site n.     atom                  positions (alat units)
         1           Au  tau(   1) = (   0.0000000   0.0000000   0.0000000  )

     number of k points=    20  Methfessel-Paxton smearing, width (Ry)=  0.0200
                       cart. coord. in units 2pi/alat
        k(    1) = (   0.0000000   0.0000000   0.0000000), wk =   0.0029155
        k(    2) = (   0.0998599   0.0998599  -0.0998599), wk =   0.0233236
        k(    3) = (   0.1997198   0.1997198  -0.1997198), wk =   0.0233236
        k(    4) = (   0.2995797   0.2995797  -0.2995797), wk =   0.0233236
        k(    5) = (   0.1997198   0.0000000   0.0000000), wk =   0.0174927
        k(    6) = (   0.2995797   0.0998599  -0.0998599), wk =   0.0699708
        k(    7) = (   0.3994396   0.1997198  -0.1997198), wk =   0.0699708
        k(    8) = (  -0.1997198  -0.3994396   0.3994396), wk =   0.0699708
        k(    9) = (  -0.0998599  -0.2995797   0.2995797), wk =   0.0699708
        k(   10) = (  -0.0000000  -0.1997198   0.1997198), wk =   0.0349854
        k(   11) = (   0.3994396   0.0000000   0.0000000), wk =   0.0174927
        k(   12) = (   0.4992995   0.0998599  -0.0998599), wk =   0.0699708
        k(   13) = (  -0.0998599  -0.4992995   0.4992995), wk =   0.0699708
        k(   14) = (   0.0000000  -0.3994396   0.3994396), wk =   0.0349854
        k(   15) = (   0.5991594   0.0000000   0.0000000), wk =   0.0174927
        k(   16) = (   0.0000000  -0.5991594   0.5991594), wk =   0.0349854
        k(   17) = (   0.3994396   0.1997198   0.0000000), wk =   0.0699708
        k(   18) = (  -0.1997198  -0.3994396   0.5991594), wk =   0.1399417
        k(   19) = (  -0.0998599  -0.4992995   0.6990193), wk =   0.0699708
        k(   20) = (   0.0000000  -0.3994396   0.5991594), wk =   0.0699708

     Dense  grid:    10849 G-vectors     FFT dimensions: (  32,  32,  32)

     Smooth grid:     3839 G-vectors     FFT dimensions: (  24,  24,  24)

     Estimated max dynamical RAM per process >       5.15 MB

     Estimated total dynamical RAM >      41.24 MB
     Generating pointlists ...

     Initial potential from superposition of free atoms

     starting charge      10.9999, renormalised to      11.0000
     Starting wfcs are    9 randomized atomic wfcs +    1 random wfcs

     total cpu time spent up to now is       12.3 secs

     Self-consistent Calculation

     iteration #  1     ecut=    40.00 Ry     beta= 0.50
     Davidson diagonalization with overlap
     c_bands:  1 eigenvalues not converged
     ethr =  1.00E-06,  avg # of iterations = 11.7

     total cpu time spent up to now is       12.8 secs

     total energy              =     -66.85885711 Ry
     estimated scf accuracy    <       0.07817037 Ry

     total magnetization       =    -0.00 Bohr mag/cell
     absolute magnetization    =     0.00 Bohr mag/cell

     iteration #  2     ecut=    40.00 Ry     beta= 0.50
     Davidson diagonalization with overlap
     ethr =  7.11E-04,  avg # of iterations =  2.0

     total cpu time spent up to now is       13.0 secs

     total energy              =     -66.87752322 Ry
     estimated scf accuracy    <       0.00220316 Ry

     total magnetization       =    -0.00 Bohr mag/cell
     absolute magnetization    =     0.00 Bohr mag/cell

     iteration #  3     ecut=    40.00 Ry     beta= 0.50
     Davidson diagonalization with overlap
     ethr =  2.00E-05,  avg # of iterations =  1.6

     total cpu time spent up to now is       13.2 secs

     total energy              =     -66.87787918 Ry
     estimated scf accuracy    <       0.00011509 Ry

     total magnetization       =    -0.00 Bohr mag/cell
     absolute magnetization    =     0.00 Bohr mag/cell

     iteration #  4     ecut=    40.00 Ry     beta= 0.50
     Davidson diagonalization with overlap
     ethr =  1.05E-06,  avg # of iterations =  1.4

     total cpu time spent up to now is       13.3 secs

     total energy              =     -66.87788107 Ry
     estimated scf accuracy    <       0.00000393 Ry

     total magnetization       =    -0.00 Bohr mag/cell
     absolute magnetization    =     0.00 Bohr mag/cell

     iteration #  5     ecut=    40.00 Ry     beta= 0.50
     Davidson diagonalization with overlap
     ethr =  3.57E-08,  avg # of iterations =  1.1

     total cpu time spent up to now is       13.5 secs

     total energy              =     -66.87788169 Ry
     estimated scf accuracy    <       0.00000006 Ry

     total magnetization       =     0.00 Bohr mag/cell
     absolute magnetization    =     0.00 Bohr mag/cell

     iteration #  6     ecut=    40.00 Ry     beta= 0.50
     Davidson diagonalization with overlap
     ethr =  5.25E-10,  avg # of iterations =  1.8

     total cpu time spent up to now is       13.7 secs

     total energy              =     -66.87788170 Ry
     estimated scf accuracy    <          1.8E-09 Ry

     total magnetization       =     0.00 Bohr mag/cell
     absolute magnetization    =     0.00 Bohr mag/cell

     iteration #  7     ecut=    40.00 Ry     beta= 0.50
     Davidson diagonalization with overlap
     ethr =  1.65E-11,  avg # of iterations =  2.0

     Magnetic moment per site  (integrated on atomic sphere of radius R)
     atom   1 (R=0.413)  charge=  9.2546  magn=  0.0000

     total cpu time spent up to now is       13.8 secs

     End of self-consistent calculation

 ------ SPIN UP ------------


          k = 0.0000 0.0000 0.0000 (   531 PWs)   bands (ev):

     5.9498  11.3935  11.3935  11.3935  12.9911  12.9911  32.6410  36.2836
    36.2836  36.2836

          k = 0.0999 0.0999-0.0999 (   489 PWs)   bands (ev):

     6.6614  11.2018  11.6078  11.6078  12.9292  12.9292  31.9237  33.5222
    36.7093  36.7093

          k = 0.1997 0.1997-0.1997 (   483 PWs)   bands (ev):

     8.1578  11.4879  11.6410  11.6410  13.3622  13.3622  26.1909  33.1063
    36.3539  36.3539

          k = 0.2996 0.2996-0.2996 (   471 PWs)   bands (ev):

     8.6172  11.3921  11.3921  14.1060  14.1344  14.1344  20.7069  31.8986
    34.6500  34.6500

          k = 0.1997 0.0000 0.0000 (   487 PWs)   bands (ev):

     6.9054  10.9235  11.8417  11.8417  12.5008  13.2076  33.5240  33.9435
    34.5464  34.5464

          k = 0.2996 0.0999-0.0999 (   482 PWs)   bands (ev):

     8.2596  10.6372  11.6962  12.1250  13.0350  13.5973  28.5213  33.0750
    33.6045  35.3034

          k = 0.3994 0.1997-0.1997 (   473 PWs)   bands (ev):

     9.0862  11.1557  11.6751  11.9172  14.2360  15.1519  22.6170  31.8760
    32.3490  33.5357

          k =-0.1997-0.3994 0.3994 (   477 PWs)   bands (ev):

     9.1431  11.0491  11.7554  12.5989  14.0938  17.1719  19.6363  30.3698
    32.8802  33.3872

          k =-0.0999-0.2996 0.2996 (   481 PWs)   bands (ev):

     9.0548  11.1966  11.5218  11.9121  13.1226  14.9121  24.6041  30.2396
    33.8526  36.4929

          k =-0.0000-0.1997 0.1997 (   485 PWs)   bands (ev):

     7.7352  10.8822  11.7449  11.9912  12.4912  13.5667  29.8711  31.5891
    36.0867  36.6775

          k = 0.3994 0.0000 0.0000 (   480 PWs)   bands (ev):

     8.8725   9.9845  12.3126  13.0528  13.0528  13.7167  30.4159  30.4159
    31.0710  33.0059

          k = 0.4993 0.0999-0.0999 (   468 PWs)   bands (ev):

     9.3617   9.8917  12.2353  13.1265  14.3013  15.4534  24.9303  28.4053
    29.2100  34.1007

          k =-0.0999-0.4993 0.4993 (   476 PWs)   bands (ev):

     9.6488  10.4846  11.8539  12.8175  14.1850  19.4267  20.2419  25.8895
    30.2293  33.9911

          k = 0.0000-0.3994 0.3994 (   478 PWs)   bands (ev):

    10.0701  11.0010  11.0575  12.5133  13.3575  17.0742  23.9765  24.9951
    33.1696  33.8305

          k = 0.5992 0.0000 0.0000 (   468 PWs)   bands (ev):

     8.9657   9.3210  14.1507  14.3736  14.3736  15.7734  23.8299  27.1768
    27.1768  33.3533

          k = 0.0000-0.5992 0.5992 (   472 PWs)   bands (ev):

     9.1624   9.5393  13.4062  13.8510  14.4540  18.8814  21.4773  25.0603
    27.6021  34.4432

          k = 0.3994 0.1997 0.0000 (   473 PWs)   bands (ev):

     9.5276  10.3354  11.2311  12.9604  13.0507  15.0011  26.4767  28.3658
    31.8864  37.1828

          k =-0.1997-0.3994 0.5992 (   482 PWs)   bands (ev):

     9.9290  10.6254  11.2976  12.6099  14.0030  17.6028  21.7548  27.4692
    29.6978  36.0344

          k =-0.0999-0.4993 0.6990 (   474 PWs)   bands (ev):

     9.5910   9.8501  12.1743  13.5637  14.3684  18.1470  23.0520  25.5916
    26.8409  36.9609

          k = 0.0000-0.3994 0.5992 (   471 PWs)   bands (ev):

    10.0059  10.4989  11.3742  12.9264  14.3609  20.0636  22.2226  23.4083
    27.4458  37.3587

 ------ SPIN DOWN ----------


          k = 0.0000 0.0000 0.0000 (   531 PWs)   bands (ev):

     5.9498  11.3935  11.3935  11.3935  12.9911  12.9911  32.6410  36.2836
    36.2836  36.2836

          k = 0.0999 0.0999-0.0999 (   489 PWs)   bands (ev):

     6.6614  11.2018  11.6078  11.6078  12.9292  12.9292  31.9237  33.5222
    36.7093  36.7093

          k = 0.1997 0.1997-0.1997 (   483 PWs)   bands (ev):

     8.1578  11.4879  11.6410  11.6410  13.3622  13.3622  26.1909  33.1063
    36.3539  36.3539

          k = 0.2996 0.2996-0.2996 (   471 PWs)   bands (ev):

     8.6172  11.3921  11.3921  14.1060  14.1344  14.1344  20.7069  31.8986
    34.6500  34.6500

          k = 0.1997 0.0000 0.0000 (   487 PWs)   bands (ev):

     6.9054  10.9235  11.8417  11.8417  12.5008  13.2076  33.5240  33.9435
    34.5464  34.5464

          k = 0.2996 0.0999-0.0999 (   482 PWs)   bands (ev):

     8.2596  10.6372  11.6962  12.1250  13.0350  13.5973  28.5213  33.0750
    33.6045  35.3034

          k = 0.3994 0.1997-0.1997 (   473 PWs)   bands (ev):

     9.0862  11.1557  11.6751  11.9172  14.2360  15.1519  22.6170  31.8760
    32.3490  33.5357

          k =-0.1997-0.3994 0.3994 (   477 PWs)   bands (ev):

     9.1431  11.0491  11.7554  12.5989  14.0938  17.1719  19.6363  30.3698
    32.8802  33.3872

          k =-0.0999-0.2996 0.2996 (   481 PWs)   bands (ev):

     9.0548  11.1966  11.5218  11.9121  13.1226  14.9121  24.6041  30.2396
    33.8526  36.4929

          k =-0.0000-0.1997 0.1997 (   485 PWs)   bands (ev):

     7.7352  10.8822  11.7449  11.9912  12.4912  13.5667  29.8711  31.5891
    36.0867  36.6775

          k = 0.3994 0.0000 0.0000 (   480 PWs)   bands (ev):

     8.8725   9.9845  12.3126  13.0528  13.0528  13.7167  30.4159  30.4159
    31.0710  33.0059

          k = 0.4993 0.0999-0.0999 (   468 PWs)   bands (ev):

     9.3617   9.8917  12.2353  13.1265  14.3013  15.4534  24.9303  28.4053
    29.2100  34.1007

          k =-0.0999-0.4993 0.4993 (   476 PWs)   bands (ev):

     9.6488  10.4846  11.8539  12.8175  14.1850  19.4267  20.2419  25.8895
    30.2293  33.9911

          k = 0.0000-0.3994 0.3994 (   478 PWs)   bands (ev):

    10.0701  11.0010  11.0575  12.5133  13.3575  17.0742  23.9765  24.9951
    33.1696  33.8305

          k = 0.5992 0.0000 0.0000 (   468 PWs)   bands (ev):

     8.9657   9.3210  14.1507  14.3736  14.3736  15.7734  23.8299  27.1768
    27.1768  33.3533

          k = 0.0000-0.5992 0.5992 (   472 PWs)   bands (ev):

     9.1624   9.5393  13.4062  13.8510  14.4540  18.8814  21.4773  25.0603
    27.6021  34.4432

          k = 0.3994 0.1997 0.0000 (   473 PWs)   bands (ev):

     9.5276  10.3354  11.2311  12.9604  13.0507  15.0011  26.4767  28.3658
    31.8864  37.1828

          k =-0.1997-0.3994 0.5992 (   482 PWs)   bands (ev):

     9.9290  10.6254  11.2976  12.6099  14.0030  17.6028  21.7548  27.4692
    29.6978  36.0344

          k =-0.0999-0.4993 0.6990 (   474 PWs)   bands (ev):

     9.5910   9.8501  12.1743  13.5637  14.3684  18.1470  23.0520  25.5916
    26.8409  36.9609

          k = 0.0000-0.3994 0.5992 (   471 PWs)   bands (ev):

    10.0059  10.4989  11.3742  12.9264  14.3609  20.0636  22.2226  23.4083
    27.4458  37.3587

     the Fermi energy is    15.7111 ev

!    total energy              =     -66.87788170 Ry
     estimated scf accuracy    <          1.4E-10 Ry
     smearing contrib. (-TS)   =       0.00009369 Ry
     internal energy E=F+TS    =     -66.87797539 Ry

     The total energy is F=E-TS. E is the sum of the following terms:
     one-electron contribution =       9.00084813 Ry
     hartree contribution      =       7.13994847 Ry
     xc contribution           =     -10.46550649 Ry
     ewald contribution        =     -72.55326550 Ry

     total magnetization       =    -0.00 Bohr mag/cell
     absolute magnetization    =     0.00 Bohr mag/cell

     convergence has been achieved in   7 iterations

     Forces acting on atoms (cartesian axes, Ry/au):

     atom    1 type  1   force =     0.00000000    0.00000000    0.00000000
     The non-local contrib.  to forces
     atom    1 type  1   force =     0.00000000    0.00000000    0.00000000
     The ionic contribution  to forces
     atom    1 type  1   force =    -0.00000000   -0.00000000   -0.00000000
     The local contribution  to forces
     atom    1 type  1   force =     0.00000000    0.00000000    0.00000000
     The core correction contribution to forces
     atom    1 type  1   force =     0.00000000    0.00000000    0.00000000
     The Hubbard contrib.    to forces
     atom    1 type  1   force =     0.00000000    0.00000000    0.00000000
     The SCF correction term to forces
     atom    1 type  1   force =     0.00000000    0.00000000    0.00000000

     Total force =     0.000000     Total SCF correction =     0.000000


     Computing stress (Cartesian axis) and pressure

          total   stress  (Ry/bohr**3)                   (kbar)     P=       -0.04
  -0.00000029   0.00000000   0.00000000           -0.04        0.00        0.00
   0.00000000  -0.00000029   0.00000000            0.00       -0.04        0.00
   0.00000000   0.00000000  -0.00000029            0.00        0.00       -0.04


     init_run     :      0.59s CPU      0.62s WALL (       2 calls)
     electrons    :     11.63s CPU     11.45s WALL (       7 calls)
     update_pot   :      0.39s CPU      0.32s WALL (       4 calls)
     forces       :      0.42s CPU      0.35s WALL (       7 calls)
     stress       :      1.22s CPU      1.13s WALL (       7 calls)

     Called by init_run:
     wfcinit      :      0.08s CPU      0.10s WALL (       2 calls)
     potinit      :      0.20s CPU      0.21s WALL (       3 calls)
     hinit0       :      0.32s CPU      0.32s WALL (       2 calls)

     Called by electrons:
     c_bands      :      9.47s CPU      9.50s WALL (      59 calls)
     sum_band     :      1.72s CPU      1.52s WALL (      59 calls)
     v_of_rho     :      0.13s CPU      0.12s WALL (      65 calls)
     newd         :      0.19s CPU      0.17s WALL (      65 calls)
     mix_rho      :      0.07s CPU      0.07s WALL (      59 calls)

     Called by c_bands:
     init_us_2    :      0.18s CPU      0.16s WALL (    5360 calls)
     init_us_2:cp :      0.17s CPU      0.16s WALL (    5360 calls)
     cegterg      :      8.06s CPU      7.61s WALL (    2360 calls)

     Called by *egterg:
     cdiaghg      :      1.22s CPU      1.15s WALL (    6273 calls)
     h_psi        :      5.65s CPU      5.37s WALL (    6593 calls)
     s_psi        :      0.06s CPU      0.05s WALL (    6593 calls)
     g_psi        :      0.02s CPU      0.02s WALL (    4153 calls)

     Called by h_psi:
     h_psi:calbec :      0.45s CPU      0.43s WALL (    6593 calls)
     vloc_psi     :      5.10s CPU      4.84s WALL (    6593 calls)
     add_vuspsi   :      0.06s CPU      0.06s WALL (    6593 calls)

     General routines
     calbec       :      0.69s CPU      0.65s WALL (   10353 calls)
     fft          :      0.57s CPU      0.55s WALL (     727 calls)
     ffts         :      0.13s CPU      0.13s WALL (     248 calls)
     fftw         :      5.46s CPU      5.14s WALL (  136556 calls)
     interpolate  :      0.14s CPU      0.14s WALL (     130 calls)

     Parallel routines

     PWSCF        :     14.55s CPU     14.26s WALL


   This run was terminated on:  11: 6:50   3Nov2023            

=------------------------------------------------------------------------------=
   JOB DONE.
=------------------------------------------------------------------------------=
