
     Program PWSCF v.7.2 starts on  3Nov2023 at 14: 3:55 

     This program is part of the open-source Quantum ESPRESSO suite
     for quantum simulation of materials; please cite
         "P. Giannozzi et al., J. Phys.:Condens. Matter 21 395502 (2009);
         "P. Giannozzi et al., J. Phys.:Condens. Matter 29 465901 (2017);
         "P. Giannozzi et al., J. Chem. Phys. 152 154105 (2020);
          URL http://www.quantum-espresso.org", 
     in publications or presentations arising from this work. More details at
     http://www.quantum-espresso.org/quote

     Parallel version (MPI), running on     8 processors

     MPI processes distributed on     8 nodes
     186967 MiB available memory on the printing compute node when the environment starts

     Waiting for input...
     Reading input from standard input

     Current dimensions of program PWSCF are:
     Max number of different atomic species (ntypx) = 10
     Max number of k-points (npk) =  40000
     Max angular momentum in pseudopotentials (lmaxx) =  4
     file Cu.pz-d-rrkjus.UPF: wavefunction(s)  3D renormalized
     Message from routine setup:
     using ibrav=0 with symmetry is DISCOURAGED, use correct ibrav instead

     R & G space division:  proc/nbgrp/npool/nimage =       8
     Subspace diagonalization in iterative solution of the eigenvalue problem:
     a serial algorithm will be used


     Parallelization info
     --------------------
     sticks:   dense  smooth     PW     G-vecs:    dense   smooth      PW
     Min          86      43     13                 2263      801     143
     Max          88      44     14                 2266      804     146
     Sum         697     349    109                18111     6423    1155

     Using Slab Decomposition



     bravais-lattice index     =            0
     lattice parameter (alat)  =       5.2270  a.u.
     unit-cell volume          =     187.0550 (a.u.)^3
     number of atoms/cell      =            2
     number of atomic types    =            2
     number of electrons       =        22.00
     number of Kohn-Sham states=           15
     kinetic-energy cutoff     =      40.0000  Ry
     charge density cutoff     =     320.0000  Ry
     scf convergence threshold =      1.0E-07
     mixing beta               =       0.5000
     number of iterations used =            8  plain     mixing
     energy convergence thresh.=      1.0E-04
     force convergence thresh. =      1.0E-03
     press convergence thresh. =      5.0E-01
     Exchange-correlation=  SLA  PZ   NOGX NOGC
                           (   1   1   0   0   0   0   0)
     nstep                     =           50


     celldm(1)=   5.226982  celldm(2)=   0.000000  celldm(3)=   0.000000
     celldm(4)=   0.000000  celldm(5)=   0.000000  celldm(6)=   0.000000

     crystal axes: (cart. coord. in units of alat)
               a(1) = (   1.000000   0.000000   0.000000 )  
               a(2) = (   0.000000   1.000000   0.000000 )  
               a(3) = (   0.000000   0.000000   1.309834 )  

     reciprocal axes: (cart. coord. in units 2 pi/alat)
               b(1) = (  1.000000  0.000000  0.000000 )  
               b(2) = (  0.000000  1.000000  0.000000 )  
               b(3) = (  0.000000  0.000000  0.763456 )  


     PseudoPot. # 1 for Au read from file:
     /home/gridsan/epan1/labutil/lab3_samples/pseudopotentials/Au.pz-d-rrkjus.UPF
     MD5 check sum: 424ffd4ac9c90487cbadcd287136c95b
     Pseudo is Ultrasoft, Zval = 11.0
     Generated by new atomic code, or converted to UPF format
     Using radial grid of 1279 points,  3 beta functions with: 
                l(1) =   2
                l(2) =   2
                l(3) =   1
     Q(r) pseudized with 0 coefficients 


     PseudoPot. # 2 for Cu read from file:
     /home/gridsan/epan1/labutil/lab3_samples/pseudopotentials/Cu.pz-d-rrkjus.UPF
     MD5 check sum: fd38ae683e239c95a66f426e1f8e5fc7
     Pseudo is Ultrasoft, Zval = 11.0
     Generated by new atomic code, or converted to UPF format
     Using radial grid of  899 points,  3 beta functions with: 
                l(1) =   2
                l(2) =   2
                l(3) =   1
     Q(r) pseudized with 0 coefficients 


     atomic species   valence    mass     pseudopotential
        Au            11.00   196.96657     Au( 1.00)
        Cu            11.00    63.54600     Cu( 1.00)

     Starting magnetic structure 
     atomic species   magnetization
        Au           0.700
        Cu           0.000

     16 Sym. Ops., with inversion, found



   Cartesian axes

     site n.     atom                  positions (alat units)
         1           Cu  tau(   1) = (   0.0000000   0.0000000   0.0000000  )
         2           Au  tau(   2) = (   0.5000000   0.5000000   0.6549168  )

     number of k points=    18  Methfessel-Paxton smearing, width (Ry)=  0.0200
                       cart. coord. in units 2pi/alat
        k(    1) = (   0.0000000   0.0000000   0.0000000), wk =   0.0080000
        k(    2) = (   0.0000000   0.0000000   0.1526911), wk =   0.0160000
        k(    3) = (   0.0000000   0.0000000   0.3053823), wk =   0.0160000
        k(    4) = (   0.0000000   0.2000000   0.0000000), wk =   0.0320000
        k(    5) = (   0.0000000   0.2000000   0.1526911), wk =   0.0640000
        k(    6) = (   0.0000000   0.2000000   0.3053823), wk =   0.0640000
        k(    7) = (   0.0000000   0.4000000   0.0000000), wk =   0.0320000
        k(    8) = (   0.0000000   0.4000000   0.1526911), wk =   0.0640000
        k(    9) = (   0.0000000   0.4000000   0.3053823), wk =   0.0640000
        k(   10) = (   0.2000000   0.2000000   0.0000000), wk =   0.0320000
        k(   11) = (   0.2000000   0.2000000   0.1526911), wk =   0.0640000
        k(   12) = (   0.2000000   0.2000000   0.3053823), wk =   0.0640000
        k(   13) = (   0.2000000   0.4000000   0.0000000), wk =   0.0640000
        k(   14) = (   0.2000000   0.4000000   0.1526911), wk =   0.1280000
        k(   15) = (   0.2000000   0.4000000   0.3053823), wk =   0.1280000
        k(   16) = (   0.4000000   0.4000000   0.0000000), wk =   0.0320000
        k(   17) = (   0.4000000   0.4000000   0.1526911), wk =   0.0640000
        k(   18) = (   0.4000000   0.4000000   0.3053823), wk =   0.0640000

     Dense  grid:    18111 G-vectors     FFT dimensions: (  30,  30,  40)

     Smooth grid:     6423 G-vectors     FFT dimensions: (  24,  24,  27)

     Estimated max dynamical RAM per process >       8.93 MB

     Estimated total dynamical RAM >      71.41 MB
     Generating pointlists ...
     new r_m :   0.3976 (alat units)  2.0781 (a.u.) for type    1
     new r_m :   0.3976 (alat units)  2.0781 (a.u.) for type    2

     Initial potential from superposition of free atoms

     starting charge      21.9996, renormalised to      22.0000
     Starting wfcs are   15 randomized atomic wfcs

     total cpu time spent up to now is        0.7 secs

     Self-consistent Calculation

     iteration #  1     ecut=    40.00 Ry     beta= 0.50
     Davidson diagonalization with overlap
     ethr =  1.00E-02,  avg # of iterations =  4.0

     total cpu time spent up to now is        1.1 secs

     total energy              =    -154.19302300 Ry
     estimated scf accuracy    <       0.75051542 Ry

     total magnetization       =     1.40 Bohr mag/cell
     absolute magnetization    =     1.57 Bohr mag/cell

     iteration #  2     ecut=    40.00 Ry     beta= 0.50
     Davidson diagonalization with overlap
     ethr =  3.41E-03,  avg # of iterations =  2.0

     total cpu time spent up to now is        1.4 secs

     total energy              =    -154.53907413 Ry
     estimated scf accuracy    <       0.43997385 Ry

     total magnetization       =     0.32 Bohr mag/cell
     absolute magnetization    =     0.52 Bohr mag/cell

     iteration #  3     ecut=    40.00 Ry     beta= 0.50
     Davidson diagonalization with overlap
     ethr =  2.00E-03,  avg # of iterations =  1.4

     total cpu time spent up to now is        1.6 secs

     total energy              =    -154.66756481 Ry
     estimated scf accuracy    <       0.09254587 Ry

     total magnetization       =     0.33 Bohr mag/cell
     absolute magnetization    =     0.46 Bohr mag/cell

     iteration #  4     ecut=    40.00 Ry     beta= 0.50
     Davidson diagonalization with overlap
     ethr =  4.21E-04,  avg # of iterations =  1.7

     total cpu time spent up to now is        1.9 secs

     total energy              =    -154.71994310 Ry
     estimated scf accuracy    <       0.03610499 Ry

     total magnetization       =     0.29 Bohr mag/cell
     absolute magnetization    =     0.34 Bohr mag/cell

     iteration #  5     ecut=    40.00 Ry     beta= 0.50
     Davidson diagonalization with overlap
     ethr =  1.64E-04,  avg # of iterations =  1.7

     total cpu time spent up to now is        2.2 secs

     total energy              =    -154.73193077 Ry
     estimated scf accuracy    <       0.00588971 Ry

     total magnetization       =    -0.01 Bohr mag/cell
     absolute magnetization    =     0.05 Bohr mag/cell

     iteration #  6     ecut=    40.00 Ry     beta= 0.50
     Davidson diagonalization with overlap
     ethr =  2.68E-05,  avg # of iterations =  2.5

     total cpu time spent up to now is        2.5 secs

     total energy              =    -154.73289057 Ry
     estimated scf accuracy    <       0.00019358 Ry

     total magnetization       =    -0.02 Bohr mag/cell
     absolute magnetization    =     0.03 Bohr mag/cell

     iteration #  7     ecut=    40.00 Ry     beta= 0.50
     Davidson diagonalization with overlap
     ethr =  8.80E-07,  avg # of iterations =  3.9

     total cpu time spent up to now is        2.9 secs

     total energy              =    -154.73298476 Ry
     estimated scf accuracy    <       0.00016081 Ry

     total magnetization       =     0.00 Bohr mag/cell
     absolute magnetization    =     0.01 Bohr mag/cell

     iteration #  8     ecut=    40.00 Ry     beta= 0.50
     Davidson diagonalization with overlap
     ethr =  7.31E-07,  avg # of iterations =  1.2

     total cpu time spent up to now is        3.2 secs

     total energy              =    -154.73299820 Ry
     estimated scf accuracy    <       0.00001410 Ry

     total magnetization       =     0.00 Bohr mag/cell
     absolute magnetization    =     0.00 Bohr mag/cell

     iteration #  9     ecut=    40.00 Ry     beta= 0.50
     Davidson diagonalization with overlap
     ethr =  6.41E-08,  avg # of iterations =  1.6

     total cpu time spent up to now is        3.4 secs

     total energy              =    -154.73300056 Ry
     estimated scf accuracy    <       0.00000026 Ry

     total magnetization       =    -0.00 Bohr mag/cell
     absolute magnetization    =     0.00 Bohr mag/cell

     iteration # 10     ecut=    40.00 Ry     beta= 0.50
     Davidson diagonalization with overlap
     ethr =  1.19E-09,  avg # of iterations =  2.1

     Magnetic moment per site  (integrated on atomic sphere of radius R)
     atom   1 (R=0.398)  charge= 10.0389  magn= -0.0000
     atom   2 (R=0.398)  charge=  8.8305  magn=  0.0001

     total cpu time spent up to now is        3.7 secs

     End of self-consistent calculation

 ------ SPIN UP ------------


          k = 0.0000 0.0000 0.0000 (   821 PWs)   bands (ev):

     5.5646   8.8079   8.9524  11.5003  11.5003  12.6630  12.6674  13.4293
    13.9392  14.1894  14.1894  17.9534  24.2715  26.3371  26.3371

          k = 0.0000 0.0000 0.1527 (   802 PWs)   bands (ev):

     6.0558   8.9032   9.1385  11.6172  11.6172  12.5307  12.7550  13.2833
    13.8380  13.8713  13.8713  15.6328  27.2878  27.2878  27.3571

          k = 0.0000 0.0000 0.3054 (   810 PWs)   bands (ev):

     7.1549   9.0737   9.5645  11.8899  11.8899  12.2935  12.4456  12.9587
    13.3002  13.3002  13.3069  13.6194  29.7537  29.7537  31.3651

          k = 0.0000 0.2000 0.0000 (   799 PWs)   bands (ev):

     6.4914   9.1714   9.6091  10.9833  11.7374  12.2962  12.7671  13.2007
    13.4481  13.5663  13.9802  20.1782  21.7330  24.7458  27.8715

          k = 0.0000 0.2000 0.1527 (   805 PWs)   bands (ev):

     6.9347   9.2502   9.7889  10.9626  11.6677  12.3783  12.7265  12.9333
    13.3498  13.3605  14.0827  17.5415  22.5680  28.0642  28.6619

          k = 0.0000 0.2000 0.3054 (   800 PWs)   bands (ev):

     7.9139   9.3531   9.8972  11.2929  11.7141  12.1305  12.3125  12.6747
    13.3756  13.5600  13.9409  14.6077  24.5168  27.0411  30.8126

          k = 0.0000 0.4000 0.0000 (   802 PWs)   bands (ev):

     8.3490   9.9058  10.1230  10.9050  11.6526  12.2860  12.5111  12.5659
    13.1651  13.4759  14.1792  17.0213  24.1383  25.3492  28.5005

          k = 0.0000 0.4000 0.1527 (   795 PWs)   bands (ev):

     8.4496   9.3555  10.4477  11.4318  11.6804  11.9747  12.5992  12.6875
    13.4136  13.8198  14.0445  17.1953  20.6601  24.8580  29.8394

          k = 0.0000 0.4000 0.3054 (   795 PWs)   bands (ev):

     8.5668   8.8037  11.1999  11.3245  11.5734  12.6690  12.7591  13.2991
    13.7450  13.8837  14.0798  15.7495  19.6528  22.0687  32.7458

          k = 0.2000 0.2000 0.0000 (   799 PWs)   bands (ev):

     7.3828   9.7715   9.9227  10.7887  11.1986  11.7668  12.9459  13.0180
    13.3245  13.5220  14.2220  21.6596  22.6697  22.8580  25.5378

          k = 0.2000 0.2000 0.1527 (   793 PWs)   bands (ev):

     7.8158   9.9635   9.9817  10.8039  10.9727  11.5883  13.0027  13.0642
    13.3862  13.6211  13.9108  18.7164  23.5103  23.7970  28.6645

          k = 0.2000 0.2000 0.3054 (   798 PWs)   bands (ev):

     8.8243   9.7785  10.0880  10.8264  11.2108  11.5464  12.6412  13.0535
    13.2522  13.3708  14.3004  15.8413  25.2169  25.5060  27.4200

          k = 0.2000 0.4000 0.0000 (   793 PWs)   bands (ev):

     9.0393   9.9526   9.9831  10.4980  10.8812  12.2567  13.2016  13.3485
    13.3949  13.9456  14.1265  17.6690  24.9623  25.0257  26.5950

          k = 0.2000 0.4000 0.1527 (   794 PWs)   bands (ev):

     9.1210   9.8848  10.2090  10.5546  10.8833  12.2282  12.9691  13.1031
    13.8730  13.9319  14.3806  18.2336  21.2198  25.3569  26.4800

          k = 0.2000 0.4000 0.3054 (   805 PWs)   bands (ev):

     9.0316   9.8484  10.3165  10.8253  11.4653  12.3752  12.6518  13.0618
    13.6622  13.7715  15.5283  17.5737  20.1771  22.4758  27.4993

          k = 0.4000 0.4000 0.0000 (   794 PWs)   bands (ev):

     8.5558   9.7661   9.7915   9.8097  12.9083  13.6598  13.8071  13.8417
    13.9965  14.2771  14.4073  17.8659  21.9544  25.0852  26.4809

          k = 0.4000 0.4000 0.1527 (   801 PWs)   bands (ev):

     8.7253   9.7883   9.8043  10.2689  12.6237  12.8323  13.5110  13.6907
    13.8033  13.9848  15.9466  19.0539  21.9719  23.6568  24.8039

          k = 0.4000 0.4000 0.3054 (   806 PWs)   bands (ev):

     9.0641   9.6889   9.8827  11.4576  12.1172  12.1655  12.8566  13.4156
    13.7776  13.8294  17.7216  20.2981  21.5093  22.6353  24.1364

 ------ SPIN DOWN ----------


          k = 0.0000 0.0000 0.0000 (   821 PWs)   bands (ev):

     5.5640   8.8084   8.9524  11.5006  11.5006  12.6636  12.6679  13.4296
    13.9397  14.1898  14.1898  17.9527  24.2713  26.3365  26.3365

          k = 0.0000 0.0000 0.1527 (   802 PWs)   bands (ev):

     6.0553   8.9037   9.1384  11.6175  11.6175  12.5312  12.7556  13.2835
    13.8385  13.8716  13.8716  15.6323  27.2872  27.2872  27.3567

          k = 0.0000 0.0000 0.3054 (   810 PWs)   bands (ev):

     7.1546   9.0742   9.5641  11.8903  11.8903  12.2939  12.4456  12.9594
    13.3003  13.3003  13.3069  13.6197  29.7532  29.7532  31.3644

          k = 0.0000 0.2000 0.0000 (   799 PWs)   bands (ev):

     6.4909   9.1717   9.6093  10.9836  11.7377  12.2969  12.7676  13.2008
    13.4484  13.5666  13.9805  20.1777  21.7326  24.7455  27.8709

          k = 0.0000 0.2000 0.1527 (   805 PWs)   bands (ev):

     6.9342   9.2505   9.7891  10.9629  11.6680  12.3789  12.7269  12.9334
    13.3501  13.3607  14.0830  17.5412  22.5676  28.0638  28.6613

          k = 0.0000 0.2000 0.3054 (   800 PWs)   bands (ev):

     7.9137   9.3530   9.8974  11.2930  11.7145  12.1311  12.3125  12.6751
    13.3758  13.5603  13.9413  14.6077  24.5165  27.0407  30.8121

          k = 0.0000 0.4000 0.0000 (   802 PWs)   bands (ev):

     8.3488   9.9059  10.1233  10.9049  11.6533  12.2864  12.5111  12.5661
    13.1653  13.4761  14.1797  17.0213  24.1379  25.3489  28.5001

          k = 0.0000 0.4000 0.1527 (   795 PWs)   bands (ev):

     8.4495   9.3556  10.4477  11.4323  11.6804  11.9751  12.5993  12.6877
    13.4138  13.8201  14.0450  17.1952  20.6599  24.8576  29.8390

          k = 0.0000 0.4000 0.3054 (   795 PWs)   bands (ev):

     8.5668   8.8039  11.2004  11.3246  11.5738  12.6691  12.7594  13.2988
    13.7455  13.8840  14.0801  15.7491  19.6529  22.0684  32.7452

          k = 0.2000 0.2000 0.0000 (   799 PWs)   bands (ev):

     7.3822   9.7716   9.9231  10.7889  11.1989  11.7674  12.9460  13.0185
    13.3248  13.5223  14.2223  21.6592  22.6692  22.8577  25.5375

          k = 0.2000 0.2000 0.1527 (   793 PWs)   bands (ev):

     7.8153   9.9636   9.9822  10.8042  10.9729  11.5888  13.0032  13.0644
    13.3865  13.6214  13.9111  18.7161  23.5099  23.7966  28.6641

          k = 0.2000 0.2000 0.3054 (   798 PWs)   bands (ev):

     8.8240   9.7784  10.0885  10.8266  11.2110  11.5467  12.6413  13.0540
    13.2524  13.3711  14.3006  15.8413  25.2165  25.5056  27.4195

          k = 0.2000 0.4000 0.0000 (   793 PWs)   bands (ev):

     9.0390   9.9526   9.9833  10.4985  10.8814  12.2569  13.2019  13.3487
    13.3952  13.9459  14.1269  17.6689  24.9619  25.0253  26.5946

          k = 0.2000 0.4000 0.1527 (   794 PWs)   bands (ev):

     9.1209   9.8849  10.2091  10.5548  10.8835  12.2283  12.9693  13.1034
    13.8734  13.9323  14.3808  18.2335  21.2195  25.3566  26.4796

          k = 0.2000 0.4000 0.3054 (   805 PWs)   bands (ev):

     9.0316   9.8485  10.3169  10.8255  11.4654  12.3752  12.6519  13.0621
    13.6627  13.7720  15.5284  17.5734  20.1771  22.4755  27.4988

          k = 0.4000 0.4000 0.0000 (   794 PWs)   bands (ev):

     8.5560   9.7662   9.7913   9.8099  12.9088  13.6601  13.8078  13.8421
    13.9968  14.2774  14.4070  17.8655  21.9543  25.0849  26.4802

          k = 0.4000 0.4000 0.1527 (   801 PWs)   bands (ev):

     8.7255   9.7884   9.8044  10.2688  12.6240  12.8323  13.5113  13.6911
    13.8040  13.9852  15.9465  19.0536  21.9717  23.6564  24.8035

          k = 0.4000 0.4000 0.3054 (   806 PWs)   bands (ev):

     9.0644   9.6891   9.8829  11.4576  12.1173  12.1655  12.8568  13.4159
    13.7782  13.8300  17.7216  20.2977  21.5090  22.6348  24.1362

     the Fermi energy is    15.7270 ev

!    total energy              =    -154.73300063 Ry
     estimated scf accuracy    <       0.00000002 Ry
     smearing contrib. (-TS)   =      -0.00052563 Ry
     internal energy E=F+TS    =    -154.73247500 Ry

     The total energy is F=E-TS. E is the sum of the following terms:
     one-electron contribution =      -3.76815218 Ry
     hartree contribution      =      27.56971716 Ry
     xc contribution           =     -24.55831610 Ry
     ewald contribution        =    -153.97572388 Ry

     total magnetization       =    -0.00 Bohr mag/cell
     absolute magnetization    =     0.00 Bohr mag/cell

     convergence has been achieved in  10 iterations

     Forces acting on atoms (cartesian axes, Ry/au):

     atom    1 type  2   force =     0.00000000    0.00000000    0.00000000
     atom    2 type  1   force =     0.00000000    0.00000000    0.00000000
     The non-local contrib.  to forces
     atom    1 type  2   force =     0.00000000    0.00000000    0.00000000
     atom    2 type  1   force =     0.00000000    0.00000000    0.00000000
     The ionic contribution  to forces
     atom    1 type  2   force =    -0.00000000   -0.00000000   -0.00000000
     atom    2 type  1   force =     0.00000000    0.00000000    0.00000000
     The local contribution  to forces
     atom    1 type  2   force =     0.00000000    0.00000000   -0.00000000
     atom    2 type  1   force =    -0.00000000   -0.00000000   -0.00000000
     The core correction contribution to forces
     atom    1 type  2   force =     0.00000000    0.00000000    0.00000000
     atom    2 type  1   force =     0.00000000    0.00000000    0.00000000
     The Hubbard contrib.    to forces
     atom    1 type  2   force =     0.00000000    0.00000000    0.00000000
     atom    2 type  1   force =     0.00000000    0.00000000    0.00000000
     The SCF correction term to forces
     atom    1 type  2   force =     0.00000000    0.00000000   -0.00000000
     atom    2 type  1   force =     0.00000000    0.00000000    0.00000000

     Total force =     0.000000     Total SCF correction =     0.000000


     Computing stress (Cartesian axis) and pressure

          total   stress  (Ry/bohr**3)                   (kbar)     P=        8.21
   0.00005478   0.00000000   0.00000000            8.06        0.00        0.00
   0.00000000   0.00005478   0.00000000            0.00        8.06        0.00
   0.00000000   0.00000000   0.00005780            0.00        0.00        8.50


     BFGS Geometry Optimization
     Energy error            =      0.0E+00 Ry
     Gradient error          =      0.0E+00 Ry/Bohr
     Cell gradient error     =      8.5E+00 kbar

     number of scf cycles    =   1
     number of bfgs steps    =   0

     enthalpy           new  =    -154.7330006280 Ry

     new trust radius        =       0.0039528625 bohr
     new conv_thr            =       0.0000001000 Ry

     new unit-cell volume =    187.83877 a.u.^3 (    27.83483 Ang^3 )
     density =     15.54136 g/cm^3

CELL_PARAMETERS (angstrom)
   2.769788296   0.000000000   0.000000000
   0.000000000   2.769788296   0.000000000
   0.000000000   0.000000000   3.628235587

ATOMIC_POSITIONS (angstrom)
Cu            0.0000000000        0.0000000000        0.0000000000
Au            1.3848941480        1.3848941480        1.8141177936



     Writing config-only to output data dir /home/gridsan/epan1/labutil/lab3_samples/problem3/Lab3/CuAu_a_2.766_c_3.623_ecut_40_nk_5/pwscf.save/
     NEW-OLD atomic charge density approx. for the potential
     extrapolated charge   22.09180, renormalised to   22.00000
     Generating pointlists ...

     total cpu time spent up to now is        4.3 secs

     Self-consistent Calculation

     iteration #  1     ecut=    40.00 Ry     beta= 0.50
     Davidson diagonalization with overlap
     ethr =  1.00E-06,  avg # of iterations =  3.0

     total cpu time spent up to now is        4.7 secs

     total energy              =    -154.72998229 Ry
     estimated scf accuracy    <       0.00307138 Ry

     total magnetization       =    -0.00 Bohr mag/cell
     absolute magnetization    =     0.00 Bohr mag/cell

     iteration #  2     ecut=    40.00 Ry     beta= 0.50
     Davidson diagonalization with overlap
     ethr =  1.40E-05,  avg # of iterations =  2.1

     total cpu time spent up to now is        5.1 secs

     total energy              =    -154.73260701 Ry
     estimated scf accuracy    <       0.00935433 Ry

     total magnetization       =    -0.00 Bohr mag/cell
     absolute magnetization    =     0.00 Bohr mag/cell

     iteration #  3     ecut=    40.00 Ry     beta= 0.50
     Davidson diagonalization with overlap
     ethr =  1.40E-05,  avg # of iterations =  2.0

     total cpu time spent up to now is        5.4 secs

     total energy              =    -154.73314520 Ry
     estimated scf accuracy    <       0.00116527 Ry

     total magnetization       =    -0.00 Bohr mag/cell
     absolute magnetization    =     0.00 Bohr mag/cell

     iteration #  4     ecut=    40.00 Ry     beta= 0.50
     Davidson diagonalization with overlap
     ethr =  5.30E-06,  avg # of iterations =  1.0

     total cpu time spent up to now is        5.7 secs

     total energy              =    -154.73305049 Ry
     estimated scf accuracy    <       0.00055728 Ry

     total magnetization       =    -0.00 Bohr mag/cell
     absolute magnetization    =     0.00 Bohr mag/cell

     iteration #  5     ecut=    40.00 Ry     beta= 0.50
     Davidson diagonalization with overlap
     ethr =  2.53E-06,  avg # of iterations =  1.0

     total cpu time spent up to now is        5.9 secs

     total energy              =    -154.73303698 Ry
     estimated scf accuracy    <       0.00015942 Ry

     total magnetization       =    -0.00 Bohr mag/cell
     absolute magnetization    =     0.00 Bohr mag/cell

     iteration #  6     ecut=    40.00 Ry     beta= 0.50
     Davidson diagonalization with overlap
     ethr =  7.25E-07,  avg # of iterations =  1.0

     total cpu time spent up to now is        6.2 secs

     total energy              =    -154.73303987 Ry
     estimated scf accuracy    <       0.00004345 Ry

     total magnetization       =    -0.00 Bohr mag/cell
     absolute magnetization    =     0.00 Bohr mag/cell

     iteration #  7     ecut=    40.00 Ry     beta= 0.50
     Davidson diagonalization with overlap
     ethr =  1.98E-07,  avg # of iterations =  1.0

     total cpu time spent up to now is        6.4 secs

     total energy              =    -154.73303421 Ry
     estimated scf accuracy    <       0.00002967 Ry

     total magnetization       =    -0.00 Bohr mag/cell
     absolute magnetization    =     0.00 Bohr mag/cell

     iteration #  8     ecut=    40.00 Ry     beta= 0.50
     Davidson diagonalization with overlap
     ethr =  1.35E-07,  avg # of iterations =  1.0

     total cpu time spent up to now is        6.7 secs

     total energy              =    -154.73303117 Ry
     estimated scf accuracy    <       0.00000944 Ry

     total magnetization       =    -0.00 Bohr mag/cell
     absolute magnetization    =     0.00 Bohr mag/cell

     iteration #  9     ecut=    40.00 Ry     beta= 0.50
     Davidson diagonalization with overlap
     ethr =  4.29E-08,  avg # of iterations =  2.0

     Magnetic moment per site  (integrated on atomic sphere of radius R)
     atom   1 (R=0.398)  charge= 10.0331  magn=  0.0000
     atom   2 (R=0.398)  charge=  8.8266  magn=  0.0000

     total cpu time spent up to now is        7.0 secs

     End of self-consistent calculation

 ------ SPIN UP ------------


          k = 0.0000 0.0000 0.0000 (   821 PWs)   bands (ev):

     5.5125   8.7516   8.8953  11.4271  11.4271  12.5821  12.5910  13.3469
    13.8527  14.1011  14.1011  17.8634  24.1384  26.2239  26.2239

          k = 0.0000 0.0000 0.1525 (   802 PWs)   bands (ev):

     6.0022   8.8462   9.0796  11.5429  11.5429  12.4556  12.6732  13.2019
    13.7525  13.7858  13.7858  15.5445  27.1701  27.1701  27.2226

          k = 0.0000 0.0000 0.3049 (   810 PWs)   bands (ev):

     7.0992   9.0152   9.5007  11.8127  11.8127  12.2205  12.3651  12.8743
    13.2200  13.2200  13.2271  13.5366  29.6261  29.6261  31.2466

          k = 0.0000 0.1997 0.0000 (   799 PWs)   bands (ev):

     6.4362   9.1126   9.5484  10.9127  11.6625  12.2172  12.6901  13.1211
    13.3657  13.4837  13.8935  20.0759  21.6233  24.6190  27.7513

          k = 0.0000 0.1997 0.1525 (   805 PWs)   bands (ev):

     6.8783   9.1906   9.7268  10.8921  11.5934  12.2978  12.6496  12.8555
    13.2683  13.2802  13.9951  17.4427  22.4563  27.9330  28.5383

          k = 0.0000 0.1997 0.3049 (   800 PWs)   bands (ev):

     7.8561   9.2911   9.8333  11.2207  11.6393  12.0531  12.2371  12.5985
    13.2944  13.4771  13.8546  14.5191  24.3984  26.9170  30.6806

          k = 0.0000 0.3995 0.0000 (   802 PWs)   bands (ev):

     8.2897   9.8418  10.0574  10.8373  11.5775  12.2062  12.4365  12.4913
    13.0860  13.3941  14.0917  16.9216  24.0219  25.2275  28.3716

          k = 0.0000 0.3995 0.1525 (   795 PWs)   bands (ev):

     8.3908   9.2943  10.3804  11.3589  11.6086  11.8979  12.5237  12.6120
    13.3320  13.7344  13.9581  17.0981  20.5473  24.7374  29.7075

          k = 0.0000 0.3995 0.3049 (   795 PWs)   bands (ev):

     8.5089   8.7454  11.1291  11.2516  11.5000  12.5925  12.6820  13.2222
    13.6606  13.7980  13.9920  15.6623  19.5394  21.9503  32.6092

          k = 0.1997 0.1997 0.0000 (   799 PWs)   bands (ev):

     7.3246   9.7100   9.8595  10.7204  11.1261  11.6914  12.8684  12.9392
    13.2440  13.4391  14.1335  21.5515  22.5621  22.7364  25.4164

          k = 0.1997 0.1997 0.1525 (   793 PWs)   bands (ev):

     7.7564   9.9004   9.9181  10.7354  10.9021  11.5148  12.9241  12.9848
    13.3051  13.5376  13.8250  18.6119  23.3988  23.6783  28.5356

          k = 0.1997 0.1997 0.3049 (   798 PWs)   bands (ev):

     8.7625   9.7144  10.0235  10.7576  11.1400  11.4728  12.5636  12.9745
    13.1726  13.2894  14.2120  15.7458  25.0952  25.3873  27.2940

          k = 0.1997 0.3995 0.0000 (   793 PWs)   bands (ev):

     8.9781   9.8897   9.9189  10.4307  10.8125  12.1818  13.1211  13.2670
    13.3136  13.8593  14.0394  17.5685  24.8386  24.9068  26.4782

          k = 0.1997 0.3995 0.1525 (   794 PWs)   bands (ev):

     9.0602   9.8208  10.1445  10.4873  10.8140  12.1540  12.8903  13.0240
    13.7877  13.8451  14.2928  18.1322  21.1071  25.2357  26.3568

          k = 0.1997 0.3995 0.3049 (   805 PWs)   bands (ev):

     8.9719   9.7849  10.2515  10.7561  11.3919  12.3005  12.5758  12.9835
    13.5769  13.6875  15.4353  17.4771  20.0639  22.3587  27.3765

          k = 0.3995 0.3995 0.0000 (   794 PWs)   bands (ev):

     8.5009   9.7042   9.7294   9.7474  12.8274  13.5750  13.7224  13.7563
    13.9100  14.1883  14.3252  17.7731  21.8329  24.9593  26.3646

          k = 0.3995 0.3995 0.1525 (   801 PWs)   bands (ev):

     8.6695   9.7257   9.7419  10.2042  12.5458  12.7551  13.4265  13.6073
    13.7181  13.8976  15.8536  18.9553  21.8509  23.5437  24.6814

          k = 0.3995 0.3995 0.3049 (   806 PWs)   bands (ev):

     9.0065   9.6263   9.8193  11.3867  12.0437  12.0928  12.7747  13.3352
    13.6895  13.7454  17.6207  20.1900  21.4013  22.5212  24.0125

 ------ SPIN DOWN ----------


          k = 0.0000 0.0000 0.0000 (   821 PWs)   bands (ev):

     5.5125   8.7516   8.8953  11.4271  11.4271  12.5821  12.5910  13.3469
    13.8527  14.1011  14.1011  17.8634  24.1384  26.2239  26.2239

          k = 0.0000 0.0000 0.1525 (   802 PWs)   bands (ev):

     6.0022   8.8462   9.0796  11.5429  11.5429  12.4556  12.6732  13.2019
    13.7525  13.7858  13.7858  15.5445  27.1701  27.1701  27.2226

          k = 0.0000 0.0000 0.3049 (   810 PWs)   bands (ev):

     7.0992   9.0152   9.5007  11.8127  11.8127  12.2205  12.3651  12.8743
    13.2200  13.2200  13.2271  13.5366  29.6260  29.6260  31.2466

          k = 0.0000 0.1997 0.0000 (   799 PWs)   bands (ev):

     6.4362   9.1126   9.5484  10.9127  11.6625  12.2172  12.6901  13.1212
    13.3657  13.4837  13.8935  20.0759  21.6233  24.6190  27.7513

          k = 0.0000 0.1997 0.1525 (   805 PWs)   bands (ev):

     6.8783   9.1906   9.7268  10.8921  11.5934  12.2978  12.6497  12.8555
    13.2683  13.2802  13.9951  17.4427  22.4563  27.9330  28.5383

          k = 0.0000 0.1997 0.3049 (   800 PWs)   bands (ev):

     7.8561   9.2911   9.8333  11.2207  11.6393  12.0531  12.2371  12.5985
    13.2944  13.4771  13.8546  14.5191  24.3984  26.9170  30.6806

          k = 0.0000 0.3995 0.0000 (   802 PWs)   bands (ev):

     8.2897   9.8418  10.0574  10.8373  11.5775  12.2062  12.4365  12.4913
    13.0860  13.3941  14.0917  16.9216  24.0219  25.2275  28.3716

          k = 0.0000 0.3995 0.1525 (   795 PWs)   bands (ev):

     8.3908   9.2943  10.3804  11.3589  11.6086  11.8979  12.5237  12.6120
    13.3320  13.7344  13.9581  17.0981  20.5473  24.7374  29.7075

          k = 0.0000 0.3995 0.3049 (   795 PWs)   bands (ev):

     8.5089   8.7454  11.1291  11.2516  11.5000  12.5925  12.6820  13.2222
    13.6606  13.7980  13.9920  15.6623  19.5394  21.9503  32.6092

          k = 0.1997 0.1997 0.0000 (   799 PWs)   bands (ev):

     7.3246   9.7100   9.8595  10.7204  11.1261  11.6914  12.8684  12.9393
    13.2440  13.4391  14.1335  21.5515  22.5621  22.7364  25.4164

          k = 0.1997 0.1997 0.1525 (   793 PWs)   bands (ev):

     7.7564   9.9004   9.9181  10.7354  10.9021  11.5148  12.9241  12.9848
    13.3051  13.5376  13.8250  18.6119  23.3988  23.6783  28.5356

          k = 0.1997 0.1997 0.3049 (   798 PWs)   bands (ev):

     8.7625   9.7144  10.0235  10.7576  11.1400  11.4728  12.5636  12.9745
    13.1726  13.2894  14.2120  15.7458  25.0952  25.3872  27.2940

          k = 0.1997 0.3995 0.0000 (   793 PWs)   bands (ev):

     8.9781   9.8897   9.9190  10.4307  10.8125  12.1818  13.1211  13.2670
    13.3136  13.8593  14.0394  17.5685  24.8386  24.9068  26.4782

          k = 0.1997 0.3995 0.1525 (   794 PWs)   bands (ev):

     9.0602   9.8208  10.1445  10.4873  10.8140  12.1540  12.8903  13.0240
    13.7877  13.8451  14.2928  18.1322  21.1071  25.2357  26.3568

          k = 0.1997 0.3995 0.3049 (   805 PWs)   bands (ev):

     8.9719   9.7849  10.2515  10.7561  11.3919  12.3005  12.5758  12.9835
    13.5769  13.6875  15.4353  17.4771  20.0639  22.3587  27.3765

          k = 0.3995 0.3995 0.0000 (   794 PWs)   bands (ev):

     8.5009   9.7042   9.7294   9.7474  12.8274  13.5750  13.7224  13.7563
    13.9100  14.1883  14.3252  17.7731  21.8329  24.9593  26.3646

          k = 0.3995 0.3995 0.1525 (   801 PWs)   bands (ev):

     8.6695   9.7257   9.7419  10.2042  12.5458  12.7551  13.4265  13.6073
    13.7181  13.8976  15.8536  18.9553  21.8509  23.5437  24.6814

          k = 0.3995 0.3995 0.3049 (   806 PWs)   bands (ev):

     9.0065   9.6263   9.8193  11.3867  12.0437  12.0928  12.7747  13.3352
    13.6895  13.7454  17.6207  20.1900  21.4013  22.5212  24.0125

     the Fermi energy is    15.6357 ev

!    total energy              =    -154.73303292 Ry
     estimated scf accuracy    <       0.00000001 Ry
     smearing contrib. (-TS)   =      -0.00053017 Ry
     internal energy E=F+TS    =    -154.73250275 Ry

     The total energy is F=E-TS. E is the sum of the following terms:
     one-electron contribution =      -4.08081692 Ry
     hartree contribution      =      27.66194439 Ry
     xc contribution           =     -24.55235553 Ry
     ewald contribution        =    -153.76127468 Ry

     total magnetization       =     0.00 Bohr mag/cell
     absolute magnetization    =     0.00 Bohr mag/cell

     convergence has been achieved in   9 iterations

     Forces acting on atoms (cartesian axes, Ry/au):

     atom    1 type  2   force =     0.00000000    0.00000000    0.00000000
     atom    2 type  1   force =     0.00000000    0.00000000    0.00000000
     The non-local contrib.  to forces
     atom    1 type  2   force =     0.00000000    0.00000000    0.00000000
     atom    2 type  1   force =     0.00000000    0.00000000    0.00000000
     The ionic contribution  to forces
     atom    1 type  2   force =    -0.00000000   -0.00000000   -0.00000000
     atom    2 type  1   force =    -0.00000000   -0.00000000   -0.00000000
     The local contribution  to forces
     atom    1 type  2   force =     0.00000000    0.00000000    0.00000000
     atom    2 type  1   force =    -0.00000000   -0.00000000   -0.00000000
     The core correction contribution to forces
     atom    1 type  2   force =     0.00000000    0.00000000    0.00000000
     atom    2 type  1   force =     0.00000000    0.00000000    0.00000000
     The Hubbard contrib.    to forces
     atom    1 type  2   force =     0.00000000    0.00000000    0.00000000
     atom    2 type  1   force =     0.00000000    0.00000000    0.00000000
     The SCF correction term to forces
     atom    1 type  2   force =    -0.00000000   -0.00000000   -0.00000000
     atom    2 type  1   force =     0.00000000    0.00000000   -0.00000000

     Total force =     0.000000     Total SCF correction =     0.000000


     Computing stress (Cartesian axis) and pressure

          total   stress  (Ry/bohr**3)                   (kbar)     P=        0.44
   0.00000130   0.00000000   0.00000000            0.19        0.00        0.00
   0.00000000   0.00000130   0.00000000            0.00        0.19        0.00
   0.00000000   0.00000000   0.00000627            0.00        0.00        0.92

     Energy error            =      3.2E-05 Ry
     Gradient error          =      0.0E+00 Ry/Bohr
     Cell gradient error     =      9.2E-01 kbar

     number of scf cycles    =   2
     number of bfgs steps    =   1

     enthalpy           old  =    -154.7330006280 Ry
     enthalpy           new  =    -154.7330329247 Ry

     CASE: enthalpy          _new < enthalpy          _old

     new trust radius        =       0.0004622853 bohr
     new conv_thr            =       0.0000000010 Ry

     new unit-cell volume =    187.88437 a.u.^3 (    27.84159 Ang^3 )
     density =     15.53759 g/cm^3

CELL_PARAMETERS (angstrom)
   2.769890903   0.000000000   0.000000000
   0.000000000   2.769890903   0.000000000
   0.000000000   0.000000000   3.628847491

ATOMIC_POSITIONS (angstrom)
Cu            0.0000000000        0.0000000000        0.0000000000
Au            1.3849454517        1.3849454517        1.8144237454



     Writing config-only to output data dir /home/gridsan/epan1/labutil/lab3_samples/problem3/Lab3/CuAu_a_2.766_c_3.623_ecut_40_nk_5/pwscf.save/
     NEW-OLD atomic charge density approx. for the potential
     extrapolated charge   22.00534, renormalised to   22.00000
     Generating pointlists ...

     total cpu time spent up to now is        7.6 secs

     Self-consistent Calculation

     iteration #  1     ecut=    40.00 Ry     beta= 0.50
     Davidson diagonalization with overlap
     ethr =  1.00E-06,  avg # of iterations =  2.0

     Threshold (ethr) on eigenvalues was too large:
     Diagonalizing with lowered threshold

     Davidson diagonalization with overlap
     ethr =  3.93E-08,  avg # of iterations =  1.0

     total cpu time spent up to now is        8.2 secs

     total energy              =    -154.73302415 Ry
     estimated scf accuracy    <       0.00000894 Ry

     total magnetization       =     0.00 Bohr mag/cell
     absolute magnetization    =     0.00 Bohr mag/cell

     iteration #  2     ecut=    40.00 Ry     beta= 0.50
     Davidson diagonalization with overlap
     ethr =  4.06E-08,  avg # of iterations =  2.1

     total cpu time spent up to now is        8.6 secs

     total energy              =    -154.73303196 Ry
     estimated scf accuracy    <       0.00003057 Ry

     total magnetization       =     0.00 Bohr mag/cell
     absolute magnetization    =     0.00 Bohr mag/cell

     iteration #  3     ecut=    40.00 Ry     beta= 0.50
     Davidson diagonalization with overlap
     ethr =  4.06E-08,  avg # of iterations =  2.0

     total cpu time spent up to now is        8.8 secs

     total energy              =    -154.73303379 Ry
     estimated scf accuracy    <       0.00000366 Ry

     total magnetization       =     0.00 Bohr mag/cell
     absolute magnetization    =     0.00 Bohr mag/cell

     iteration #  4     ecut=    40.00 Ry     beta= 0.50
     Davidson diagonalization with overlap
     ethr =  1.66E-08,  avg # of iterations =  1.0

     total cpu time spent up to now is        9.1 secs

     total energy              =    -154.73303325 Ry
     estimated scf accuracy    <       0.00000186 Ry

     total magnetization       =     0.00 Bohr mag/cell
     absolute magnetization    =     0.00 Bohr mag/cell

     iteration #  5     ecut=    40.00 Ry     beta= 0.50
     Davidson diagonalization with overlap
     ethr =  8.47E-09,  avg # of iterations =  1.2

     total cpu time spent up to now is        9.4 secs

     total energy              =    -154.73303337 Ry
     estimated scf accuracy    <       0.00000013 Ry

     total magnetization       =     0.00 Bohr mag/cell
     absolute magnetization    =     0.00 Bohr mag/cell

     iteration #  6     ecut=    40.00 Ry     beta= 0.50
     Davidson diagonalization with overlap
     ethr =  6.13E-10,  avg # of iterations =  2.0

     total cpu time spent up to now is        9.7 secs

     total energy              =    -154.73303341 Ry
     estimated scf accuracy    <          2.0E-09 Ry

     total magnetization       =     0.00 Bohr mag/cell
     absolute magnetization    =     0.00 Bohr mag/cell

     iteration #  7     ecut=    40.00 Ry     beta= 0.50
     Davidson diagonalization with overlap
     ethr =  9.01E-12,  avg # of iterations =  2.9

     total cpu time spent up to now is       10.9 secs

     total energy              =    -154.73303339 Ry
     estimated scf accuracy    <       0.00000005 Ry

     total magnetization       =     0.00 Bohr mag/cell
     absolute magnetization    =     0.00 Bohr mag/cell

     iteration #  8     ecut=    40.00 Ry     beta= 0.50
     Davidson diagonalization with overlap
     ethr =  9.01E-12,  avg # of iterations =  3.0

     Magnetic moment per site  (integrated on atomic sphere of radius R)
     atom   1 (R=0.398)  charge= 10.0328  magn=  0.0000
     atom   2 (R=0.398)  charge=  8.8264  magn=  0.0000

     total cpu time spent up to now is       11.3 secs

     End of self-consistent calculation

 ------ SPIN UP ------------


          k = 0.0000 0.0000 0.0000 (   821 PWs)   bands (ev):

     5.5095   8.7479   8.8917  11.4229  11.4229  12.5777  12.5858  13.3414
    13.8473  14.0955  14.0955  17.8563  24.1282  26.2191  26.2191

          k = 0.0000 0.0000 0.1524 (   802 PWs)   bands (ev):

     5.9990   8.8424   9.0759  11.5387  11.5387  12.4506  12.6687  13.1964
    13.7472  13.7805  13.7805  15.5379  27.1648  27.1648  27.2119

          k = 0.0000 0.0000 0.3049 (   810 PWs)   bands (ev):

     7.0955   9.0113   9.4966  11.8084  11.8084  12.2158  12.3594  12.8696
    13.2150  13.2150  13.2217  13.5315  29.6197  29.6197  31.2408

          k = 0.0000 0.1997 0.0000 (   799 PWs)   bands (ev):

     6.4331   9.1089   9.5447  10.9084  11.6581  12.2128  12.6850  13.1159
    13.3604  13.4785  13.8881  20.0684  21.6179  24.6095  27.7461

          k = 0.0000 0.1997 0.1524 (   805 PWs)   bands (ev):

     6.8750   9.1868   9.7230  10.8878  11.5892  12.2933  12.6446  12.8504
    13.2630  13.2752  13.9896  17.4358  22.4508  27.9227  28.5328

          k = 0.0000 0.1997 0.3049 (   800 PWs)   bands (ev):

     7.8524   9.2872   9.8292  11.2161  11.6351  12.0488  12.2321  12.5934
    13.2892  13.4719  13.8491  14.5134  24.3921  26.9101  30.6742

          k = 0.0000 0.3994 0.0000 (   802 PWs)   bands (ev):

     8.2863   9.8379  10.0530  10.8336  11.5732  12.2016  12.4316  12.4865
    13.0811  13.3890  14.0865  16.9165  24.0138  25.2184  28.3627

          k = 0.0000 0.3994 0.1524 (   795 PWs)   bands (ev):

     8.3873   9.2905  10.3763  11.3548  11.6044  11.8936  12.5188  12.6071
    13.3269  13.7290  13.9529  17.0930  20.5397  24.7298  29.6975

          k = 0.0000 0.3994 0.3049 (   795 PWs)   bands (ev):

     8.5054   8.7418  11.1251  11.2466  11.4960  12.5880  12.6770  13.2175
    13.6554  13.7925  13.9864  15.6570  19.5329  21.9431  32.6030

          k = 0.1997 0.1997 0.0000 (   799 PWs)   bands (ev):

     7.3214   9.7063   9.8556  10.7162  11.1215  11.6871  12.8634  12.9341
    13.2390  13.4338  14.1279  21.5438  22.5571  22.7296  25.4081

          k = 0.1997 0.1997 0.1524 (   793 PWs)   bands (ev):

     7.7530   9.8965   9.9142  10.7314  10.8977  11.5106  12.9190  12.9796
    13.2999  13.5324  13.8196  18.6048  23.3932  23.6724  28.5258

          k = 0.1997 0.1997 0.3049 (   798 PWs)   bands (ev):

     8.7588   9.7105  10.0194  10.7537  11.1356  11.4684  12.5585  12.9694
    13.1675  13.2843  14.2064  15.7396  25.0891  25.3809  27.2872

          k = 0.1997 0.3994 0.0000 (   793 PWs)   bands (ev):

     8.9747   9.8861   9.9148  10.4266  10.8082  12.1775  13.1161  13.2618
    13.3085  13.8538  14.0342  17.5635  24.8309  24.8986  26.4712

          k = 0.1997 0.3994 0.1524 (   794 PWs)   bands (ev):

     9.0566   9.8169  10.1406  10.4832  10.8099  12.1497  12.8853  13.0190
    13.7824  13.8397  14.2875  18.1269  21.0996  25.2282  26.3507

          k = 0.1997 0.3994 0.3049 (   805 PWs)   bands (ev):

     8.9683   9.7811  10.2476  10.7523  11.3872  12.2961  12.5709  12.9784
    13.5717  13.6822  15.4295  17.4711  20.0576  22.3517  27.3703

          k = 0.3994 0.3994 0.0000 (   794 PWs)   bands (ev):

     8.4975   9.7003   9.7259   9.7433  12.8229  13.5699  13.7172  13.7511
    13.9044  14.1826  14.3209  17.7686  21.8267  24.9530  26.3568

          k = 0.3994 0.3994 0.1524 (   801 PWs)   bands (ev):

     8.6660   9.7218   9.7380  10.2005  12.5413  12.7506  13.4213  13.6021
    13.7129  13.8922  15.8482  18.9501  21.8445  23.5367  24.6750

          k = 0.3994 0.3994 0.3049 (   806 PWs)   bands (ev):

     9.0028   9.6225   9.8155  11.3822  12.0394  12.0884  12.7697  13.3300
    13.6843  13.7401  17.6147  20.1834  21.3952  22.5153  24.0062

 ------ SPIN DOWN ----------


          k = 0.0000 0.0000 0.0000 (   821 PWs)   bands (ev):

     5.5095   8.7479   8.8917  11.4229  11.4229  12.5777  12.5858  13.3414
    13.8473  14.0955  14.0955  17.8563  24.1282  26.2191  26.2191

          k = 0.0000 0.0000 0.1524 (   802 PWs)   bands (ev):

     5.9990   8.8424   9.0759  11.5387  11.5387  12.4506  12.6687  13.1964
    13.7472  13.7805  13.7805  15.5379  27.1648  27.1648  27.2119

          k = 0.0000 0.0000 0.3049 (   810 PWs)   bands (ev):

     7.0955   9.0113   9.4966  11.8084  11.8084  12.2158  12.3594  12.8696
    13.2150  13.2150  13.2217  13.5315  29.6197  29.6197  31.2408

          k = 0.0000 0.1997 0.0000 (   799 PWs)   bands (ev):

     6.4331   9.1089   9.5447  10.9084  11.6581  12.2128  12.6850  13.1159
    13.3604  13.4785  13.8881  20.0684  21.6179  24.6095  27.7461

          k = 0.0000 0.1997 0.1524 (   805 PWs)   bands (ev):

     6.8750   9.1868   9.7230  10.8878  11.5892  12.2933  12.6446  12.8504
    13.2630  13.2752  13.9896  17.4358  22.4508  27.9227  28.5328

          k = 0.0000 0.1997 0.3049 (   800 PWs)   bands (ev):

     7.8524   9.2872   9.8292  11.2161  11.6351  12.0488  12.2321  12.5934
    13.2892  13.4719  13.8491  14.5134  24.3921  26.9101  30.6742

          k = 0.0000 0.3994 0.0000 (   802 PWs)   bands (ev):

     8.2863   9.8379  10.0530  10.8336  11.5732  12.2016  12.4316  12.4865
    13.0811  13.3890  14.0865  16.9165  24.0138  25.2184  28.3627

          k = 0.0000 0.3994 0.1524 (   795 PWs)   bands (ev):

     8.3873   9.2905  10.3763  11.3548  11.6044  11.8936  12.5188  12.6071
    13.3269  13.7290  13.9529  17.0930  20.5397  24.7298  29.6975

          k = 0.0000 0.3994 0.3049 (   795 PWs)   bands (ev):

     8.5054   8.7418  11.1251  11.2466  11.4960  12.5880  12.6770  13.2175
    13.6554  13.7925  13.9864  15.6570  19.5329  21.9431  32.6030

          k = 0.1997 0.1997 0.0000 (   799 PWs)   bands (ev):

     7.3214   9.7063   9.8556  10.7162  11.1215  11.6871  12.8634  12.9341
    13.2390  13.4338  14.1279  21.5438  22.5571  22.7296  25.4081

          k = 0.1997 0.1997 0.1524 (   793 PWs)   bands (ev):

     7.7530   9.8965   9.9142  10.7314  10.8977  11.5106  12.9190  12.9796
    13.2999  13.5324  13.8196  18.6048  23.3932  23.6724  28.5258

          k = 0.1997 0.1997 0.3049 (   798 PWs)   bands (ev):

     8.7588   9.7105  10.0194  10.7537  11.1356  11.4684  12.5585  12.9694
    13.1675  13.2843  14.2064  15.7396  25.0891  25.3809  27.2872

          k = 0.1997 0.3994 0.0000 (   793 PWs)   bands (ev):

     8.9747   9.8861   9.9148  10.4266  10.8082  12.1775  13.1161  13.2618
    13.3085  13.8538  14.0342  17.5635  24.8309  24.8986  26.4712

          k = 0.1997 0.3994 0.1524 (   794 PWs)   bands (ev):

     9.0566   9.8169  10.1406  10.4832  10.8099  12.1497  12.8853  13.0190
    13.7824  13.8397  14.2875  18.1269  21.0996  25.2282  26.3507

          k = 0.1997 0.3994 0.3049 (   805 PWs)   bands (ev):

     8.9683   9.7811  10.2476  10.7523  11.3872  12.2961  12.5709  12.9784
    13.5717  13.6822  15.4295  17.4711  20.0576  22.3517  27.3703

          k = 0.3994 0.3994 0.0000 (   794 PWs)   bands (ev):

     8.4975   9.7003   9.7259   9.7433  12.8229  13.5699  13.7172  13.7511
    13.9044  14.1826  14.3209  17.7686  21.8267  24.9530  26.3568

          k = 0.3994 0.3994 0.1524 (   801 PWs)   bands (ev):

     8.6660   9.7218   9.7380  10.2005  12.5413  12.7506  13.4213  13.6021
    13.7129  13.8922  15.8482  18.9501  21.8445  23.5367  24.6750

          k = 0.3994 0.3994 0.3049 (   806 PWs)   bands (ev):

     9.0028   9.6225   9.8155  11.3822  12.0394  12.0884  12.7697  13.3300
    13.6843  13.7401  17.6147  20.1834  21.3952  22.5153  24.0062

     the Fermi energy is    15.6300 ev

!    total energy              =    -154.73303340 Ry
     estimated scf accuracy    <          4.2E-11 Ry
     smearing contrib. (-TS)   =      -0.00052966 Ry
     internal energy E=F+TS    =    -154.73250374 Ry

     The total energy is F=E-TS. E is the sum of the following terms:
     one-electron contribution =      -4.09936026 Ry
     hartree contribution      =      27.66784324 Ry
     xc contribution           =     -24.55213291 Ry
     ewald contribution        =    -153.74885381 Ry

     total magnetization       =     0.00 Bohr mag/cell
     absolute magnetization    =     0.00 Bohr mag/cell

     convergence has been achieved in   8 iterations

     Forces acting on atoms (cartesian axes, Ry/au):

     atom    1 type  2   force =     0.00000000    0.00000000    0.00000000
     atom    2 type  1   force =     0.00000000    0.00000000    0.00000000
     The non-local contrib.  to forces
     atom    1 type  2   force =     0.00000000    0.00000000    0.00000000
     atom    2 type  1   force =     0.00000000    0.00000000    0.00000000
     The ionic contribution  to forces
     atom    1 type  2   force =    -0.00000000   -0.00000000   -0.00000000
     atom    2 type  1   force =    -0.00000000   -0.00000000   -0.00000000
     The local contribution  to forces
     atom    1 type  2   force =    -0.00000000    0.00000000   -0.00000000
     atom    2 type  1   force =    -0.00000000   -0.00000000   -0.00000000
     The core correction contribution to forces
     atom    1 type  2   force =     0.00000000    0.00000000    0.00000000
     atom    2 type  1   force =     0.00000000    0.00000000    0.00000000
     The Hubbard contrib.    to forces
     atom    1 type  2   force =     0.00000000    0.00000000    0.00000000
     atom    2 type  1   force =     0.00000000    0.00000000    0.00000000
     The SCF correction term to forces
     atom    1 type  2   force =    -0.00000000   -0.00000000   -0.00000000
     atom    2 type  1   force =     0.00000000   -0.00000000    0.00000000

     Total force =     0.000000     Total SCF correction =     0.000000


     Computing stress (Cartesian axis) and pressure

          total   stress  (Ry/bohr**3)                   (kbar)     P=        1.06
   0.00000555   0.00000000   0.00000000            0.82        0.00        0.00
   0.00000000   0.00000555   0.00000000            0.00        0.82        0.00
   0.00000000   0.00000000   0.00001043            0.00        0.00        1.53

     Energy error            =      4.7E-07 Ry
     Gradient error          =      0.0E+00 Ry/Bohr
     Cell gradient error     =      1.5E+00 kbar

     number of scf cycles    =   3
     number of bfgs steps    =   2

     enthalpy           old  =    -154.7330329247 Ry
     enthalpy           new  =    -154.7330333991 Ry

     CASE: enthalpy          _new < enthalpy          _old


     WARNING: bfgs curvature condition failed, Theta= 0.426
     new trust radius        =       0.0003044168 bohr
     new conv_thr            =       0.0000000010 Ry

     new unit-cell volume =    187.91724 a.u.^3 (    27.84646 Ang^3 )
     density =     15.53487 g/cm^3

CELL_PARAMETERS (angstrom)
   2.769979425   0.000000000   0.000000000
   0.000000000   2.769979425   0.000000000
   0.000000000   0.000000000   3.629250451

ATOMIC_POSITIONS (angstrom)
Cu            0.0000000000        0.0000000000        0.0000000000
Au            1.3849897125        1.3849897125        1.8146252254



     Writing config-only to output data dir /home/gridsan/epan1/labutil/lab3_samples/problem3/Lab3/CuAu_a_2.766_c_3.623_ecut_40_nk_5/pwscf.save/
     NEW-OLD atomic charge density approx. for the potential
     extrapolated charge   22.00385, renormalised to   22.00000
     Generating pointlists ...

     total cpu time spent up to now is       12.2 secs

     Self-consistent Calculation

     iteration #  1     ecut=    40.00 Ry     beta= 0.50
     Davidson diagonalization with overlap
     ethr =  1.00E-06,  avg # of iterations =  2.0

     Threshold (ethr) on eigenvalues was too large:
     Diagonalizing with lowered threshold

     Davidson diagonalization with overlap
     ethr =  2.32E-08,  avg # of iterations =  1.0

     total cpu time spent up to now is       12.8 secs

     total energy              =    -154.73302844 Ry
     estimated scf accuracy    <       0.00000526 Ry

     total magnetization       =     0.00 Bohr mag/cell
     absolute magnetization    =     0.00 Bohr mag/cell

     iteration #  2     ecut=    40.00 Ry     beta= 0.50
     Davidson diagonalization with overlap
     ethr =  2.39E-08,  avg # of iterations =  2.1

     total cpu time spent up to now is       13.1 secs

     total energy              =    -154.73303273 Ry
     estimated scf accuracy    <       0.00001686 Ry

     total magnetization       =     0.00 Bohr mag/cell
     absolute magnetization    =     0.00 Bohr mag/cell

     iteration #  3     ecut=    40.00 Ry     beta= 0.50
     Davidson diagonalization with overlap
     ethr =  2.39E-08,  avg # of iterations =  2.0

     total cpu time spent up to now is       13.4 secs

     total energy              =    -154.73303382 Ry
     estimated scf accuracy    <       0.00000184 Ry

     total magnetization       =     0.00 Bohr mag/cell
     absolute magnetization    =     0.00 Bohr mag/cell

     iteration #  4     ecut=    40.00 Ry     beta= 0.50
     Davidson diagonalization with overlap
     ethr =  8.38E-09,  avg # of iterations =  1.0

     total cpu time spent up to now is       13.7 secs

     total energy              =    -154.73303365 Ry
     estimated scf accuracy    <       0.00000090 Ry

     total magnetization       =     0.00 Bohr mag/cell
     absolute magnetization    =     0.00 Bohr mag/cell

     iteration #  5     ecut=    40.00 Ry     beta= 0.50
     Davidson diagonalization with overlap
     ethr =  4.11E-09,  avg # of iterations =  1.0

     total cpu time spent up to now is       14.0 secs

     total energy              =    -154.73303357 Ry
     estimated scf accuracy    <       0.00000022 Ry

     total magnetization       =     0.00 Bohr mag/cell
     absolute magnetization    =     0.00 Bohr mag/cell

     iteration #  6     ecut=    40.00 Ry     beta= 0.50
     Davidson diagonalization with overlap
     ethr =  1.01E-09,  avg # of iterations =  2.0

     total cpu time spent up to now is       14.4 secs

     total energy              =    -154.73303364 Ry
     estimated scf accuracy    <       0.00000003 Ry

     total magnetization       =    -0.00 Bohr mag/cell
     absolute magnetization    =     0.00 Bohr mag/cell

     iteration #  7     ecut=    40.00 Ry     beta= 0.50
     Davidson diagonalization with overlap
     ethr =  1.34E-10,  avg # of iterations =  1.0

     total cpu time spent up to now is       14.7 secs

     total energy              =    -154.73303364 Ry
     estimated scf accuracy    <       0.00000001 Ry

     total magnetization       =    -0.00 Bohr mag/cell
     absolute magnetization    =     0.00 Bohr mag/cell

     iteration #  8     ecut=    40.00 Ry     beta= 0.50
     Davidson diagonalization with overlap
     ethr =  6.66E-11,  avg # of iterations =  1.0

     total cpu time spent up to now is       15.0 secs

     total energy              =    -154.73303364 Ry
     estimated scf accuracy    <          3.1E-09 Ry

     total magnetization       =    -0.00 Bohr mag/cell
     absolute magnetization    =     0.00 Bohr mag/cell

     iteration #  9     ecut=    40.00 Ry     beta= 0.50
     Davidson diagonalization with overlap
     ethr =  1.41E-11,  avg # of iterations =  1.7

     Magnetic moment per site  (integrated on atomic sphere of radius R)
     atom   1 (R=0.398)  charge= 10.0325  magn=  0.0000
     atom   2 (R=0.398)  charge=  8.8263  magn= -0.0000

     total cpu time spent up to now is       15.3 secs

     End of self-consistent calculation

 ------ SPIN UP ------------


          k = 0.0000 0.0000 0.0000 (   821 PWs)   bands (ev):

     5.5073   8.7454   8.8892  11.4199  11.4199  12.5746  12.5824  13.3379
    13.8436  14.0918  14.0918  17.8514  24.1213  26.2154  26.2154

          k = 0.0000 0.0000 0.1524 (   802 PWs)   bands (ev):

     5.9967   8.8398   9.0733  11.5357  11.5357  12.4473  12.6656  13.1929
    13.7436  13.7769  13.7769  15.5333  27.1608  27.1608  27.2046

          k = 0.0000 0.0000 0.3049 (   810 PWs)   bands (ev):

     7.0930   9.0086   9.4937  11.8054  11.8054  12.2126  12.3556  12.8663
    13.2118  13.2118  13.2181  13.5281  29.6151  29.6151  31.2365

          k = 0.0000 0.1997 0.0000 (   799 PWs)   bands (ev):

     6.4308   9.1063   9.5422  10.9054  11.6551  12.2097  12.6816  13.1124
    13.3569  13.4751  13.8845  20.0633  21.6139  24.6029  27.7421

          k = 0.0000 0.1997 0.1524 (   805 PWs)   bands (ev):

     6.8726   9.1841   9.7203  10.8848  11.5863  12.2901  12.6412  12.8470
    13.2595  13.2720  13.9859  17.4311  22.4467  27.9156  28.5286

          k = 0.0000 0.1997 0.3049 (   800 PWs)   bands (ev):

     7.8498   9.2845   9.8264  11.2129  11.6322  12.0458  12.2287  12.5901
    13.2858  13.4685  13.8455  14.5095  24.3876  26.9051  30.6695

          k = 0.0000 0.3994 0.0000 (   802 PWs)   bands (ev):

     8.2839   9.8352  10.0500  10.8309  11.5701  12.1984  12.4284  12.4833
    13.0779  13.3857  14.0829  16.9129  24.0081  25.2121  28.3565

          k = 0.0000 0.3994 0.1524 (   795 PWs)   bands (ev):

     8.3848   9.2878  10.3734  11.3519  11.6014  11.8906  12.5155  12.6039
    13.3235  13.7254  13.9493  17.0893  20.5345  24.7243  29.6906

          k = 0.0000 0.3994 0.3049 (   795 PWs)   bands (ev):

     8.5029   8.7393  11.1224  11.2433  11.4933  12.5848  12.6736  13.2143
    13.6520  13.7888  13.9826  15.6532  19.5284  21.9380  32.5983

          k = 0.1997 0.1997 0.0000 (   799 PWs)   bands (ev):

     7.3191   9.7038   9.8530  10.7134  11.1183  11.6841  12.8602  12.9307
    13.2357  13.4303  14.1242  21.5385  22.5533  22.7247  25.4022

          k = 0.1997 0.1997 0.1524 (   793 PWs)   bands (ev):

     7.7506   9.8938   9.9115  10.7286  10.8947  11.5078  12.9156  12.9762
    13.2964  13.5289  13.8160  18.5998  23.3892  23.6680  28.5190

          k = 0.1997 0.1997 0.3049 (   798 PWs)   bands (ev):

     8.7562   9.7078  10.0166  10.7510  11.1325  11.4654  12.5551  12.9660
    13.1641  13.2809  14.2027  15.7354  25.0846  25.3763  27.2823

          k = 0.1997 0.3994 0.0000 (   793 PWs)   bands (ev):

     8.9722   9.8835   9.9119  10.4238  10.8053  12.1745  13.1128  13.2584
    13.3052  13.8502  14.0307  17.5598  24.8255  24.8929  26.4663

          k = 0.1997 0.3994 0.1524 (   794 PWs)   bands (ev):

     9.0541   9.8142  10.1380  10.4804  10.8070  12.1467  12.8819  13.0156
    13.7789  13.8361  14.2839  18.1230  21.0943  25.2228  26.3462

          k = 0.1997 0.3994 0.3049 (   805 PWs)   bands (ev):

     8.9658   9.7784  10.2448  10.7495  11.3839  12.2931  12.5676  12.9750
    13.5682  13.6787  15.4256  17.4669  20.0530  22.3468  27.3657

          k = 0.3994 0.3994 0.0000 (   794 PWs)   bands (ev):

     8.4952   9.6976   9.7235   9.7406  12.8197  13.5664  13.7137  13.7476
    13.9007  14.1788  14.3178  17.7652  21.8223  24.9484  26.3513

          k = 0.3994 0.3994 0.1524 (   801 PWs)   bands (ev):

     8.6635   9.7191   9.7354  10.1979  12.5383  12.7475  13.4178  13.5986
    13.7095  13.8886  15.8444  18.9463  21.8398  23.5318  24.6703

          k = 0.3994 0.3994 0.3049 (   806 PWs)   bands (ev):

     9.0002   9.6199   9.8129  11.3792  12.0364  12.0855  12.7662  13.3267
    13.6808  13.7367  17.6105  20.1787  21.3908  22.5110  24.0015

 ------ SPIN DOWN ----------


          k = 0.0000 0.0000 0.0000 (   821 PWs)   bands (ev):

     5.5073   8.7454   8.8892  11.4199  11.4199  12.5746  12.5824  13.3379
    13.8436  14.0918  14.0918  17.8514  24.1213  26.2154  26.2154

          k = 0.0000 0.0000 0.1524 (   802 PWs)   bands (ev):

     5.9967   8.8398   9.0733  11.5357  11.5357  12.4473  12.6656  13.1929
    13.7436  13.7769  13.7769  15.5333  27.1608  27.1608  27.2046

          k = 0.0000 0.0000 0.3049 (   810 PWs)   bands (ev):

     7.0930   9.0086   9.4937  11.8054  11.8054  12.2126  12.3556  12.8663
    13.2118  13.2118  13.2181  13.5281  29.6151  29.6151  31.2365

          k = 0.0000 0.1997 0.0000 (   799 PWs)   bands (ev):

     6.4308   9.1063   9.5422  10.9054  11.6551  12.2097  12.6816  13.1124
    13.3569  13.4751  13.8845  20.0633  21.6139  24.6029  27.7421

          k = 0.0000 0.1997 0.1524 (   805 PWs)   bands (ev):

     6.8726   9.1841   9.7203  10.8848  11.5863  12.2901  12.6412  12.8470
    13.2595  13.2720  13.9859  17.4311  22.4467  27.9156  28.5286

          k = 0.0000 0.1997 0.3049 (   800 PWs)   bands (ev):

     7.8498   9.2845   9.8264  11.2129  11.6322  12.0458  12.2287  12.5901
    13.2858  13.4685  13.8455  14.5095  24.3876  26.9051  30.6695

          k = 0.0000 0.3994 0.0000 (   802 PWs)   bands (ev):

     8.2839   9.8352  10.0500  10.8309  11.5701  12.1984  12.4284  12.4833
    13.0779  13.3857  14.0829  16.9129  24.0081  25.2121  28.3565

          k = 0.0000 0.3994 0.1524 (   795 PWs)   bands (ev):

     8.3848   9.2878  10.3734  11.3519  11.6014  11.8906  12.5155  12.6039
    13.3235  13.7254  13.9493  17.0893  20.5345  24.7243  29.6906

          k = 0.0000 0.3994 0.3049 (   795 PWs)   bands (ev):

     8.5029   8.7393  11.1224  11.2433  11.4933  12.5848  12.6736  13.2143
    13.6520  13.7888  13.9826  15.6532  19.5284  21.9380  32.5983

          k = 0.1997 0.1997 0.0000 (   799 PWs)   bands (ev):

     7.3191   9.7038   9.8530  10.7134  11.1183  11.6841  12.8602  12.9307
    13.2357  13.4303  14.1242  21.5385  22.5533  22.7247  25.4022

          k = 0.1997 0.1997 0.1524 (   793 PWs)   bands (ev):

     7.7506   9.8938   9.9115  10.7286  10.8947  11.5078  12.9156  12.9762
    13.2964  13.5289  13.8160  18.5998  23.3892  23.6680  28.5190

          k = 0.1997 0.1997 0.3049 (   798 PWs)   bands (ev):

     8.7562   9.7078  10.0166  10.7510  11.1325  11.4654  12.5551  12.9660
    13.1641  13.2809  14.2027  15.7354  25.0846  25.3763  27.2823

          k = 0.1997 0.3994 0.0000 (   793 PWs)   bands (ev):

     8.9722   9.8835   9.9119  10.4238  10.8053  12.1745  13.1128  13.2584
    13.3052  13.8502  14.0307  17.5598  24.8255  24.8929  26.4663

          k = 0.1997 0.3994 0.1524 (   794 PWs)   bands (ev):

     9.0541   9.8142  10.1380  10.4804  10.8070  12.1467  12.8819  13.0156
    13.7789  13.8361  14.2839  18.1230  21.0943  25.2228  26.3462

          k = 0.1997 0.3994 0.3049 (   805 PWs)   bands (ev):

     8.9658   9.7784  10.2448  10.7495  11.3839  12.2931  12.5676  12.9750
    13.5682  13.6787  15.4256  17.4669  20.0530  22.3468  27.3657

          k = 0.3994 0.3994 0.0000 (   794 PWs)   bands (ev):

     8.4952   9.6976   9.7235   9.7406  12.8197  13.5664  13.7137  13.7476
    13.9007  14.1788  14.3178  17.7652  21.8223  24.9484  26.3513

          k = 0.3994 0.3994 0.1524 (   801 PWs)   bands (ev):

     8.6635   9.7191   9.7354  10.1979  12.5383  12.7475  13.4178  13.5986
    13.7095  13.8886  15.8444  18.9463  21.8398  23.5318  24.6703

          k = 0.3994 0.3994 0.3049 (   806 PWs)   bands (ev):

     9.0002   9.6199   9.8129  11.3792  12.0364  12.0855  12.7662  13.3267
    13.6808  13.7367  17.6105  20.1787  21.3908  22.5110  24.0015

     the Fermi energy is    15.6260 ev

!    total energy              =    -154.73303364 Ry
     estimated scf accuracy    <          4.9E-11 Ry
     smearing contrib. (-TS)   =      -0.00052950 Ry
     internal energy E=F+TS    =    -154.73250413 Ry

     The total energy is F=E-TS. E is the sum of the following terms:
     one-electron contribution =      -4.11232472 Ry
     hartree contribution      =      27.67158779 Ry
     xc contribution           =     -24.55186787 Ry
     ewald contribution        =    -153.73989933 Ry

     total magnetization       =     0.00 Bohr mag/cell
     absolute magnetization    =     0.00 Bohr mag/cell

     convergence has been achieved in   9 iterations

     Forces acting on atoms (cartesian axes, Ry/au):

     atom    1 type  2   force =     0.00000000    0.00000000    0.00000000
     atom    2 type  1   force =     0.00000000    0.00000000    0.00000000
     The non-local contrib.  to forces
     atom    1 type  2   force =     0.00000000    0.00000000    0.00000000
     atom    2 type  1   force =     0.00000000    0.00000000    0.00000000
     The ionic contribution  to forces
     atom    1 type  2   force =    -0.00000000   -0.00000000   -0.00000000
     atom    2 type  1   force =    -0.00000000   -0.00000000   -0.00000000
     The local contribution  to forces
     atom    1 type  2   force =     0.00000000    0.00000000    0.00000000
     atom    2 type  1   force =    -0.00000000   -0.00000000   -0.00000000
     The core correction contribution to forces
     atom    1 type  2   force =     0.00000000    0.00000000    0.00000000
     atom    2 type  1   force =     0.00000000    0.00000000    0.00000000
     The Hubbard contrib.    to forces
     atom    1 type  2   force =     0.00000000    0.00000000    0.00000000
     atom    2 type  1   force =     0.00000000    0.00000000    0.00000000
     The SCF correction term to forces
     atom    1 type  2   force =     0.00000000   -0.00000000    0.00000000
     atom    2 type  1   force =     0.00000000    0.00000000   -0.00000000

     Total force =     0.000000     Total SCF correction =     0.000000


     Computing stress (Cartesian axis) and pressure

          total   stress  (Ry/bohr**3)                   (kbar)     P=        0.61
   0.00000253   0.00000000   0.00000000            0.37        0.00        0.00
   0.00000000   0.00000253   0.00000000            0.00        0.37        0.00
   0.00000000   0.00000000   0.00000739            0.00        0.00        1.09

     Energy error            =      2.4E-07 Ry
     Gradient error          =      0.0E+00 Ry/Bohr
     Cell gradient error     =      1.1E+00 kbar

     number of scf cycles    =   4
     number of bfgs steps    =   3

     enthalpy           old  =    -154.7330333991 Ry
     enthalpy           new  =    -154.7330336358 Ry

     CASE: enthalpy          _new < enthalpy          _old

     new trust radius        =       0.0003348506 bohr
     new conv_thr            =       0.0000000010 Ry

     new unit-cell volume =    187.94031 a.u.^3 (    27.84988 Ang^3 )
     density =     15.53297 g/cm^3

CELL_PARAMETERS (angstrom)
   2.769980284   0.000000000   0.000000000
   0.000000000   2.769980284   0.000000000
   0.000000000   0.000000000   3.629693707

ATOMIC_POSITIONS (angstrom)
Cu            0.0000000000        0.0000000000        0.0000000000
Au            1.3849901422        1.3849901422        1.8148468535



     Writing config-only to output data dir /home/gridsan/epan1/labutil/lab3_samples/problem3/Lab3/CuAu_a_2.766_c_3.623_ecut_40_nk_5/pwscf.save/
     NEW-OLD atomic charge density approx. for the potential
     extrapolated charge   22.00270, renormalised to   22.00000
     Generating pointlists ...

     total cpu time spent up to now is       16.0 secs

     Self-consistent Calculation

     iteration #  1     ecut=    40.00 Ry     beta= 0.50
     Davidson diagonalization with overlap
     ethr =  1.00E-06,  avg # of iterations =  2.0

     Threshold (ethr) on eigenvalues was too large:
     Diagonalizing with lowered threshold

     Davidson diagonalization with overlap
     ethr =  1.12E-08,  avg # of iterations =  1.0

     total cpu time spent up to now is       16.6 secs

     total energy              =    -154.73303128 Ry
     estimated scf accuracy    <       0.00000253 Ry

     total magnetization       =    -0.00 Bohr mag/cell
     absolute magnetization    =     0.00 Bohr mag/cell

     iteration #  2     ecut=    40.00 Ry     beta= 0.50
     Davidson diagonalization with overlap
     ethr =  1.15E-08,  avg # of iterations =  2.1

     total cpu time spent up to now is       16.9 secs

     total energy              =    -154.73303337 Ry
     estimated scf accuracy    <       0.00000820 Ry

     total magnetization       =    -0.00 Bohr mag/cell
     absolute magnetization    =     0.00 Bohr mag/cell

     iteration #  3     ecut=    40.00 Ry     beta= 0.50
     Davidson diagonalization with overlap
     ethr =  1.15E-08,  avg # of iterations =  2.0

     total cpu time spent up to now is       17.3 secs

     total energy              =    -154.73303389 Ry
     estimated scf accuracy    <       0.00000091 Ry

     total magnetization       =    -0.00 Bohr mag/cell
     absolute magnetization    =     0.00 Bohr mag/cell

     iteration #  4     ecut=    40.00 Ry     beta= 0.50
     Davidson diagonalization with overlap
     ethr =  4.13E-09,  avg # of iterations =  1.0

     total cpu time spent up to now is       17.5 secs

     total energy              =    -154.73303377 Ry
     estimated scf accuracy    <       0.00000045 Ry

     total magnetization       =    -0.00 Bohr mag/cell
     absolute magnetization    =     0.00 Bohr mag/cell

     iteration #  5     ecut=    40.00 Ry     beta= 0.50
     Davidson diagonalization with overlap
     ethr =  2.03E-09,  avg # of iterations =  1.2

     total cpu time spent up to now is       17.8 secs

     total energy              =    -154.73303379 Ry
     estimated scf accuracy    <       0.00000004 Ry

     total magnetization       =    -0.00 Bohr mag/cell
     absolute magnetization    =     0.00 Bohr mag/cell

     iteration #  6     ecut=    40.00 Ry     beta= 0.50
     Davidson diagonalization with overlap
     ethr =  1.67E-10,  avg # of iterations =  2.0

     total cpu time spent up to now is       18.1 secs

     total energy              =    -154.73303380 Ry
     estimated scf accuracy    <          6.4E-09 Ry

     total magnetization       =    -0.00 Bohr mag/cell
     absolute magnetization    =     0.00 Bohr mag/cell

     iteration #  7     ecut=    40.00 Ry     beta= 0.50
     Davidson diagonalization with overlap
     ethr =  2.92E-11,  avg # of iterations =  1.0

     total cpu time spent up to now is       18.4 secs

     total energy              =    -154.73303380 Ry
     estimated scf accuracy    <          7.9E-09 Ry

     total magnetization       =    -0.00 Bohr mag/cell
     absolute magnetization    =     0.00 Bohr mag/cell

     iteration #  8     ecut=    40.00 Ry     beta= 0.50
     Davidson diagonalization with overlap
     ethr =  2.92E-11,  avg # of iterations =  1.1

     total cpu time spent up to now is       18.6 secs

     total energy              =    -154.73303380 Ry
     estimated scf accuracy    <          1.0E-09 Ry

     total magnetization       =    -0.00 Bohr mag/cell
     absolute magnetization    =     0.00 Bohr mag/cell

     iteration #  9     ecut=    40.00 Ry     beta= 0.50
     Davidson diagonalization with overlap
     ethr =  4.63E-12,  avg # of iterations =  2.0

     Magnetic moment per site  (integrated on atomic sphere of radius R)
     atom   1 (R=0.398)  charge= 10.0323  magn= -0.0000
     atom   2 (R=0.398)  charge=  8.8262  magn=  0.0000

     total cpu time spent up to now is       18.9 secs

     End of self-consistent calculation

 ------ SPIN UP ------------


          k = 0.0000 0.0000 0.0000 (   821 PWs)   bands (ev):

     5.5057   8.7435   8.8874  11.4180  11.4180  12.5728  12.5798  13.3351
    13.8410  14.0892  14.0892  17.8470  24.1152  26.2137  26.2137

          k = 0.0000 0.0000 0.1524 (   802 PWs)   bands (ev):

     5.9950   8.8379   9.0713  11.5337  11.5337  12.4447  12.6636  13.1901
    13.7411  13.7744  13.7744  15.5294  27.1588  27.1588  27.1979

          k = 0.0000 0.0000 0.3048 (   810 PWs)   bands (ev):

     7.0910   9.0065   9.4915  11.8034  11.8034  12.2103  12.3524  12.8642
    13.2095  13.2095  13.2153  13.5258  29.6123  29.6123  31.2340

          k = 0.0000 0.1997 0.0000 (   799 PWs)   bands (ev):

     6.4292   9.1044   9.5404  10.9033  11.6531  12.2077  12.6790  13.1098
    13.3542  13.4726  13.8819  20.0589  21.6116  24.5972  27.7402

          k = 0.0000 0.1997 0.1524 (   805 PWs)   bands (ev):

     6.8709   9.1822   9.7184  10.8827  11.5844  12.2880  12.6386  12.8445
    13.2569  13.2697  13.9832  17.4272  22.4443  27.9092  28.5265

          k = 0.0000 0.1997 0.3048 (   800 PWs)   bands (ev):

     7.8479   9.2825   9.8243  11.2105  11.6304  12.0439  12.2261  12.5876
    13.2833  13.4661  13.8428  14.5066  24.3848  26.9018  30.6668

          k = 0.0000 0.3994 0.0000 (   802 PWs)   bands (ev):

     8.2822   9.8333  10.0476  10.8292  11.5681  12.1962  12.4259  12.4810
    13.0756  13.3833  14.0805  16.9108  24.0034  25.2066  28.3515

          k = 0.0000 0.3994 0.1524 (   795 PWs)   bands (ev):

     8.3830   9.2858  10.3714  11.3500  11.5994  11.8886  12.5131  12.6015
    13.3210  13.7227  13.9469  17.0871  20.5303  24.7202  29.6845

          k = 0.0000 0.3994 0.3048 (   795 PWs)   bands (ev):

     8.5011   8.7374  11.1206  11.2407  11.4915  12.5826  12.6711  13.2120
    13.6496  13.7861  13.9798  15.6505  19.5253  21.9343  32.5958

          k = 0.1997 0.1997 0.0000 (   799 PWs)   bands (ev):

     7.3175   9.7020   9.8511  10.7114  11.1159  11.6821  12.8578  12.9281
    13.2333  13.4278  14.1214  21.5341  22.5512  22.7214  25.3975

          k = 0.1997 0.1997 0.1524 (   793 PWs)   bands (ev):

     7.7489   9.8919   9.9095  10.7266  10.8924  11.5059  12.9131  12.9736
    13.2939  13.5264  13.8134  18.5958  23.3868  23.6655  28.5129

          k = 0.1997 0.1997 0.3048 (   798 PWs)   bands (ev):

     8.7542   9.7058  10.0146  10.7491  11.1304  11.4633  12.5525  12.9636
    13.1616  13.2784  14.2000  15.7322  25.0819  25.3733  27.2791

          k = 0.1997 0.3994 0.0000 (   793 PWs)   bands (ev):

     8.9706   9.8818   9.9097  10.4218  10.8032  12.1725  13.1104  13.2559
    13.3028  13.8475  14.0283  17.5577  24.8213  24.8883  26.4627

          k = 0.1997 0.3994 0.1524 (   794 PWs)   bands (ev):

     9.0523   9.8122  10.1361  10.4784  10.8050  12.1447  12.8795  13.0132
    13.7764  13.8335  14.2813  18.1206  21.0901  25.2188  26.3436

          k = 0.1997 0.3994 0.3048 (   805 PWs)   bands (ev):

     8.9640   9.7764  10.2429  10.7478  11.3814  12.2911  12.5652  12.9725
    13.5658  13.6762  15.4227  17.4638  20.0500  22.3433  27.3630

          k = 0.3994 0.3994 0.0000 (   794 PWs)   bands (ev):

     8.4934   9.6956   9.7219   9.7385  12.8177  13.5640  13.7113  13.7451
    13.8980  14.1760  14.3159  17.7633  21.8197  24.9457  26.3469

          k = 0.3994 0.3994 0.1524 (   801 PWs)   bands (ev):

     8.6618   9.7171   9.7334  10.1961  12.5362  12.7453  13.4153  13.5962
    13.7071  13.8860  15.8418  18.9439  21.8369  23.5281  24.6674

          k = 0.3994 0.3994 0.3048 (   806 PWs)   bands (ev):

     8.9983   9.6181   9.8111  11.3769  12.0344  12.0834  12.7637  13.3242
    13.6784  13.7343  17.6076  20.1753  21.3879  22.5083  23.9987

 ------ SPIN DOWN ----------


          k = 0.0000 0.0000 0.0000 (   821 PWs)   bands (ev):

     5.5057   8.7435   8.8874  11.4180  11.4180  12.5728  12.5798  13.3351
    13.8410  14.0892  14.0892  17.8470  24.1152  26.2137  26.2137

          k = 0.0000 0.0000 0.1524 (   802 PWs)   bands (ev):

     5.9950   8.8379   9.0713  11.5337  11.5337  12.4447  12.6636  13.1901
    13.7411  13.7744  13.7744  15.5294  27.1588  27.1588  27.1979

          k = 0.0000 0.0000 0.3048 (   810 PWs)   bands (ev):

     7.0910   9.0065   9.4915  11.8034  11.8034  12.2103  12.3524  12.8642
    13.2095  13.2095  13.2153  13.5258  29.6123  29.6123  31.2340

          k = 0.0000 0.1997 0.0000 (   799 PWs)   bands (ev):

     6.4292   9.1044   9.5404  10.9033  11.6531  12.2077  12.6790  13.1098
    13.3542  13.4726  13.8819  20.0589  21.6116  24.5972  27.7402

          k = 0.0000 0.1997 0.1524 (   805 PWs)   bands (ev):

     6.8709   9.1822   9.7184  10.8827  11.5844  12.2880  12.6386  12.8445
    13.2569  13.2697  13.9832  17.4272  22.4443  27.9092  28.5265

          k = 0.0000 0.1997 0.3048 (   800 PWs)   bands (ev):

     7.8479   9.2825   9.8243  11.2105  11.6304  12.0439  12.2261  12.5876
    13.2833  13.4661  13.8428  14.5066  24.3848  26.9018  30.6668

          k = 0.0000 0.3994 0.0000 (   802 PWs)   bands (ev):

     8.2822   9.8333  10.0476  10.8292  11.5681  12.1962  12.4259  12.4810
    13.0756  13.3833  14.0805  16.9108  24.0034  25.2066  28.3515

          k = 0.0000 0.3994 0.1524 (   795 PWs)   bands (ev):

     8.3830   9.2858  10.3714  11.3500  11.5994  11.8886  12.5131  12.6015
    13.3210  13.7227  13.9469  17.0871  20.5303  24.7202  29.6845

          k = 0.0000 0.3994 0.3048 (   795 PWs)   bands (ev):

     8.5011   8.7374  11.1206  11.2407  11.4915  12.5826  12.6711  13.2120
    13.6496  13.7861  13.9798  15.6505  19.5253  21.9343  32.5958

          k = 0.1997 0.1997 0.0000 (   799 PWs)   bands (ev):

     7.3175   9.7020   9.8511  10.7114  11.1159  11.6821  12.8578  12.9281
    13.2333  13.4278  14.1214  21.5341  22.5512  22.7214  25.3975

          k = 0.1997 0.1997 0.1524 (   793 PWs)   bands (ev):

     7.7489   9.8919   9.9095  10.7266  10.8924  11.5059  12.9131  12.9736
    13.2939  13.5264  13.8134  18.5958  23.3868  23.6655  28.5129

          k = 0.1997 0.1997 0.3048 (   798 PWs)   bands (ev):

     8.7542   9.7058  10.0146  10.7491  11.1304  11.4633  12.5525  12.9636
    13.1616  13.2784  14.2000  15.7322  25.0819  25.3733  27.2791

          k = 0.1997 0.3994 0.0000 (   793 PWs)   bands (ev):

     8.9706   9.8818   9.9097  10.4218  10.8032  12.1725  13.1104  13.2559
    13.3028  13.8475  14.0283  17.5577  24.8213  24.8883  26.4627

          k = 0.1997 0.3994 0.1524 (   794 PWs)   bands (ev):

     9.0523   9.8122  10.1361  10.4784  10.8050  12.1447  12.8795  13.0132
    13.7764  13.8335  14.2813  18.1206  21.0901  25.2188  26.3436

          k = 0.1997 0.3994 0.3048 (   805 PWs)   bands (ev):

     8.9640   9.7764  10.2429  10.7478  11.3814  12.2911  12.5652  12.9725
    13.5658  13.6762  15.4227  17.4638  20.0500  22.3433  27.3630

          k = 0.3994 0.3994 0.0000 (   794 PWs)   bands (ev):

     8.4934   9.6956   9.7219   9.7385  12.8177  13.5640  13.7113  13.7451
    13.8980  14.1760  14.3159  17.7633  21.8197  24.9457  26.3469

          k = 0.3994 0.3994 0.1524 (   801 PWs)   bands (ev):

     8.6618   9.7171   9.7334  10.1961  12.5362  12.7453  13.4153  13.5962
    13.7071  13.8860  15.8418  18.9439  21.8369  23.5281  24.6674

          k = 0.3994 0.3994 0.3048 (   806 PWs)   bands (ev):

     8.9983   9.6181   9.8111  11.3769  12.0344  12.0834  12.7637  13.3242
    13.6784  13.7343  17.6076  20.1753  21.3879  22.5083  23.9987

     the Fermi energy is    15.6230 ev

!    total energy              =    -154.73303380 Ry
     estimated scf accuracy    <          4.1E-12 Ry
     smearing contrib. (-TS)   =      -0.00052906 Ry
     internal energy E=F+TS    =    -154.73250474 Ry

     The total energy is F=E-TS. E is the sum of the following terms:
     one-electron contribution =      -4.12147342 Ry
     hartree contribution      =      27.67429640 Ry
     xc contribution           =     -24.55170086 Ry
     ewald contribution        =    -153.73362685 Ry

     total magnetization       =     0.00 Bohr mag/cell
     absolute magnetization    =     0.00 Bohr mag/cell

[...]
   0.000000000   0.000000000   3.635095890

ATOMIC_POSITIONS (angstrom)
Cu            0.0000000000        0.0000000000        0.0000000000
Au            1.3848265319        1.3848265319        1.8175479452



     Writing config-only to output data dir /home/gridsan/epan1/labutil/lab3_samples/problem3/Lab3/CuAu_a_2.766_c_3.623_ecut_40_nk_5/pwscf.save/

     lsda relaxation :  a final configuration with zero
                        absolute magnetization has been found

     the program is checking if it is really the minimum energy structure
     by performing a new scf iteration without any "electronic" history

     Initial potential from superposition of free atoms

     starting charge      21.9996, renormalised to      22.0000

     total cpu time spent up to now is       36.3 secs

     Self-consistent Calculation

     iteration #  1     ecut=    40.00 Ry     beta= 0.50
     Davidson diagonalization with overlap
     ethr =  1.00E-06,  avg # of iterations =  7.4

     total cpu time spent up to now is       37.1 secs

     WARNING: integrated charge=    22.00586879, expected=    22.00000000

     total energy              =    -154.50102645 Ry
     estimated scf accuracy    <       0.75770529 Ry

     total magnetization       =     1.41 Bohr mag/cell
     absolute magnetization    =     1.58 Bohr mag/cell

     iteration #  2     ecut=    40.00 Ry     beta= 0.50
     Davidson diagonalization with overlap
     ethr =  3.44E-03,  avg # of iterations =  2.0

     total cpu time spent up to now is       37.7 secs

     WARNING: integrated charge=    22.00782216, expected=    22.00000000

     total energy              =    -154.84817659 Ry
     estimated scf accuracy    <       0.47762914 Ry

     total magnetization       =     0.32 Bohr mag/cell
     absolute magnetization    =     0.51 Bohr mag/cell

     iteration #  3     ecut=    40.00 Ry     beta= 0.50
     Davidson diagonalization with overlap
     ethr =  2.17E-03,  avg # of iterations =  1.3

     total cpu time spent up to now is       37.9 secs

     WARNING: integrated charge=    22.00975859, expected=    22.00000000

     total energy              =    -154.98273396 Ry
     estimated scf accuracy    <       0.09621134 Ry

     total magnetization       =     0.33 Bohr mag/cell
     absolute magnetization    =     0.47 Bohr mag/cell

     iteration #  4     ecut=    40.00 Ry     beta= 0.50
     Davidson diagonalization with overlap
     ethr =  4.37E-04,  avg # of iterations =  1.7

     total cpu time spent up to now is       38.2 secs

     WARNING: integrated charge=    22.01308571, expected=    22.00000000

     total energy              =    -155.03730797 Ry
     estimated scf accuracy    <       0.03737043 Ry

     total magnetization       =     0.30 Bohr mag/cell
     absolute magnetization    =     0.34 Bohr mag/cell

     iteration #  5     ecut=    40.00 Ry     beta= 0.50
     Davidson diagonalization with overlap
     ethr =  1.70E-04,  avg # of iterations =  1.6

     total cpu time spent up to now is       38.5 secs

     WARNING: integrated charge=    22.01286817, expected=    22.00000000

     total energy              =    -155.04966784 Ry
     estimated scf accuracy    <       0.00645980 Ry

     total magnetization       =    -0.01 Bohr mag/cell
     absolute magnetization    =     0.05 Bohr mag/cell

     iteration #  6     ecut=    40.00 Ry     beta= 0.50
     Davidson diagonalization with overlap
     ethr =  2.94E-05,  avg # of iterations =  1.9

     total cpu time spent up to now is       38.8 secs

     WARNING: integrated charge=    22.01248164, expected=    22.00000000

     total energy              =    -155.05069262 Ry
     estimated scf accuracy    <       0.00023150 Ry

     total magnetization       =    -0.02 Bohr mag/cell
     absolute magnetization    =     0.03 Bohr mag/cell

     iteration #  7     ecut=    40.00 Ry     beta= 0.50
     Davidson diagonalization with overlap
     ethr =  1.05E-06,  avg # of iterations =  2.6

     total cpu time spent up to now is       39.1 secs

     WARNING: integrated charge=    22.01244438, expected=    22.00000000

     total energy              =    -155.05080391 Ry
     estimated scf accuracy    <       0.00016481 Ry

     total magnetization       =     0.00 Bohr mag/cell
     absolute magnetization    =     0.01 Bohr mag/cell

     iteration #  8     ecut=    40.00 Ry     beta= 0.50
     Davidson diagonalization with overlap
     ethr =  7.49E-07,  avg # of iterations =  1.2

     total cpu time spent up to now is       39.4 secs

     WARNING: integrated charge=    22.01247434, expected=    22.00000000

     total energy              =    -155.05081554 Ry
     estimated scf accuracy    <       0.00001761 Ry

     total magnetization       =     0.00 Bohr mag/cell
     absolute magnetization    =     0.00 Bohr mag/cell

     iteration #  9     ecut=    40.00 Ry     beta= 0.50
     Davidson diagonalization with overlap
     ethr =  8.01E-08,  avg # of iterations =  1.5

     total cpu time spent up to now is       39.7 secs

     WARNING: integrated charge=    22.01247815, expected=    22.00000000

     total energy              =    -155.05081856 Ry
     estimated scf accuracy    <       0.00000022 Ry

     total magnetization       =    -0.00 Bohr mag/cell
     absolute magnetization    =     0.00 Bohr mag/cell

     iteration # 10     ecut=    40.00 Ry     beta= 0.50
     Davidson diagonalization with overlap
     ethr =  1.02E-09,  avg # of iterations =  2.0

     total cpu time spent up to now is       40.0 secs

     WARNING: integrated charge=    22.01248406, expected=    22.00000000

     total energy              =    -155.05081860 Ry
     estimated scf accuracy    <       0.00000005 Ry

     total magnetization       =    -0.00 Bohr mag/cell
     absolute magnetization    =     0.00 Bohr mag/cell

     iteration # 11     ecut=    40.00 Ry     beta= 0.50
     Davidson diagonalization with overlap
     ethr =  2.22E-10,  avg # of iterations =  2.0

     Magnetic moment per site  (integrated on atomic sphere of radius R)
     atom   1 (R=0.398)  charge= 10.0388  magn=  0.0000
     atom   2 (R=0.398)  charge=  8.8306  magn=  0.0000

     total cpu time spent up to now is       40.3 secs

     End of self-consistent calculation

 ------ SPIN UP ------------


          k = 0.0000 0.0000 0.0000 (   821 PWs)   bands (ev):

     5.5076   8.7464   8.8919  11.4234  11.4234  12.5785  12.5899  13.3449
    13.8508  14.0987  14.0987  17.8450  24.1103  26.2158  26.2158

          k = 0.0000 0.0000 0.1524 (   802 PWs)   bands (ev):

     5.9965   8.8405   9.0756  11.5389  11.5389  12.4550  12.6690  13.1997
    13.7512  13.7843  13.7843  15.5286  27.1607  27.1607  27.1924

          k = 0.0000 0.0000 0.3048 (   810 PWs)   bands (ev):

     7.0919   9.0086   9.4947  11.8074  11.8074  12.2210  12.3545  12.8680
    13.2205  13.2205  13.2240  13.5374  29.6136  29.6136  31.2418

          k = 0.0000 0.1997 0.0000 (   799 PWs)   bands (ev):

     6.4312   9.1078   9.5446  10.9071  11.6584  12.2119  12.6891  13.1192
    13.3642  13.4836  13.8916  20.0584  21.6124  24.5952  27.7424

          k = 0.0000 0.1997 0.1524 (   805 PWs)   bands (ev):

     6.8726   9.1853   9.7223  10.8863  11.5899  12.2912  12.6487  12.8537
    13.2670  13.2816  13.9927  17.4284  22.4458  27.9056  28.5283

          k = 0.0000 0.1997 0.3048 (   800 PWs)   bands (ev):

     7.8492   9.2854   9.8267  11.2145  11.6357  12.0486  12.2330  12.5978
    13.2933  13.4767  13.8526  14.5122  24.3862  26.9030  30.6678

          k = 0.0000 0.3994 0.0000 (   802 PWs)   bands (ev):

     8.2844   9.8370  10.0502  10.8338  11.5711  12.2004  12.4359  12.4915
    13.0873  13.3941  14.0897  16.9140  24.0036  25.2041  28.3491

          k = 0.0000 0.3994 0.1524 (   795 PWs)   bands (ev):

     8.3852   9.2888  10.3752  11.3542  11.6032  11.8938  12.5228  12.6117
    13.3319  13.7326  13.9562  17.0904  20.5304  24.7200  29.6810

          k = 0.0000 0.3994 0.3048 (   795 PWs)   bands (ev):

     8.5038   8.7403  11.1253  11.2446  11.4976  12.5876  12.6798  13.2188
    13.6600  13.7960  13.9893  15.6546  19.5266  21.9342  32.5956

          k = 0.1997 0.1997 0.0000 (   799 PWs)   bands (ev):

     7.3197   9.7067   9.8542  10.7164  11.1186  11.6855  12.8686  12.9384
    13.2444  13.4380  14.1311  21.5334  22.5549  22.7188  25.3990

          k = 0.1997 0.1997 0.1524 (   793 PWs)   bands (ev):

     7.7508   9.8961   9.9125  10.7315  10.8959  11.5102  12.9234  12.9830
    13.3046  13.5367  13.8233  18.5963  23.3903  23.6658  28.5107

          k = 0.1997 0.1997 0.3048 (   798 PWs)   bands (ev):

     8.7560   9.7085  10.0173  10.7538  11.1353  11.4676  12.5600  12.9740
    13.1727  13.2888  14.2087  15.7368  25.0822  25.3765  27.2789

          k = 0.1997 0.3994 0.0000 (   793 PWs)   bands (ev):

     8.9737   9.8864   9.9131  10.4247  10.8081  12.1788  13.1199  13.2658
    13.3133  13.8571  14.0371  17.5609  24.8186  24.8875  26.4660

          k = 0.1997 0.3994 0.1524 (   794 PWs)   bands (ev):

     9.0553   9.8153  10.1401  10.4824  10.8094  12.1518  12.8894  13.0238
    13.7870  13.8425  14.2886  18.1240  21.0894  25.2182  26.3459

          k = 0.1997 0.3994 0.3048 (   805 PWs)   bands (ev):

     8.9673   9.7794  10.2465  10.7520  11.3857  12.2984  12.5745  12.9835
    13.5739  13.6874  15.4286  17.4674  20.0511  22.3432  27.3650

          k = 0.3994 0.3994 0.0000 (   794 PWs)   bands (ev):

     8.4967   9.7001   9.7281   9.7428  12.8221  13.5730  13.7219  13.7552
    13.9077  14.1857  14.3194  17.7668  21.8207  24.9463  26.3442

          k = 0.3994 0.3994 0.1524 (   801 PWs)   bands (ev):

     8.6648   9.7210   9.7377  10.2023  12.5420  12.7535  13.4236  13.6068
    13.7170  13.8951  15.8467  18.9474  21.8358  23.5303  24.6664

          k = 0.3994 0.3994 0.3048 (   806 PWs)   bands (ev):

     9.0011   9.6215   9.8149  11.3838  12.0421  12.0925  12.7696  13.3356
    13.6839  13.7463  17.6111  20.1763  21.3907  22.5098  23.9973

 ------ SPIN DOWN ----------


          k = 0.0000 0.0000 0.0000 (   821 PWs)   bands (ev):

     5.5076   8.7465   8.8919  11.4235  11.4235  12.5786  12.5899  13.3450
    13.8508  14.0988  14.0988  17.8450  24.1103  26.2157  26.2157

          k = 0.0000 0.0000 0.1524 (   802 PWs)   bands (ev):

     5.9965   8.8406   9.0756  11.5390  11.5390  12.4551  12.6691  13.1997
    13.7513  13.7843  13.7843  15.5286  27.1606  27.1606  27.1924

          k = 0.0000 0.0000 0.3048 (   810 PWs)   bands (ev):

     7.0919   9.0087   9.4947  11.8074  11.8074  12.2210  12.3545  12.8681
    13.2206  13.2206  13.2240  13.5375  29.6136  29.6136  31.2417

          k = 0.0000 0.1997 0.0000 (   799 PWs)   bands (ev):

     6.4311   9.1079   9.5446  10.9071  11.6584  12.2120  12.6892  13.1193
    13.3643  13.4836  13.8916  20.0584  21.6124  24.5951  27.7424

          k = 0.0000 0.1997 0.1524 (   805 PWs)   bands (ev):

     6.8726   9.1854   9.7223  10.8863  11.5899  12.2913  12.6488  12.8537
    13.2670  13.2817  13.9928  17.4283  22.4457  27.9056  28.5283

          k = 0.0000 0.1997 0.3048 (   800 PWs)   bands (ev):

     7.8492   9.2854   9.8268  11.2145  11.6357  12.0487  12.2330  12.5979
    13.2934  13.4767  13.8527  14.5123  24.3862  26.9029  30.6677

          k = 0.0000 0.3994 0.0000 (   802 PWs)   bands (ev):

     8.2844   9.8370  10.0502  10.8338  11.5712  12.2004  12.4359  12.4915
    13.0874  13.3941  14.0898  16.9140  24.0036  25.2041  28.3490

          k = 0.0000 0.3994 0.1524 (   795 PWs)   bands (ev):

     8.3852   9.2889  10.3752  11.3542  11.6032  11.8938  12.5228  12.6117
    13.3319  13.7326  13.9563  17.0904  20.5304  24.7200  29.6809

          k = 0.0000 0.3994 0.3048 (   795 PWs)   bands (ev):

     8.5039   8.7403  11.1254  11.2446  11.4976  12.5877  12.6798  13.2188
    13.6600  13.7961  13.9894  15.6546  19.5266  21.9342  32.5956

          k = 0.1997 0.1997 0.0000 (   799 PWs)   bands (ev):

     7.3197   9.7067   9.8543  10.7165  11.1186  11.6855  12.8687  12.9384
    13.2445  13.4380  14.1312  21.5334  22.5548  22.7188  25.3989

          k = 0.1997 0.1997 0.1524 (   793 PWs)   bands (ev):

     7.7508   9.8961   9.9126  10.7316  10.8959  11.5103  12.9235  12.9831
    13.3046  13.5367  13.8233  18.5963  23.3903  23.6658  28.5106

          k = 0.1997 0.1997 0.3048 (   798 PWs)   bands (ev):

     8.7559   9.7085  10.0174  10.7538  11.1354  11.4676  12.5601  12.9741
    13.1727  13.2888  14.2088  15.7368  25.0822  25.3764  27.2788

          k = 0.1997 0.3994 0.0000 (   793 PWs)   bands (ev):

     8.9737   9.8864   9.9132  10.4247  10.8081  12.1788  13.1200  13.2659
    13.3133  13.8572  14.0372  17.5609  24.8185  24.8874  26.4660

          k = 0.1997 0.3994 0.1524 (   794 PWs)   bands (ev):

     9.0553   9.8154  10.1402  10.4825  10.8095  12.1518  12.8894  13.0238
    13.7870  13.8425  14.2886  18.1240  21.0894  25.2182  26.3458

          k = 0.1997 0.3994 0.3048 (   805 PWs)   bands (ev):

     8.9673   9.7795  10.2466  10.7521  11.3857  12.2985  12.5745  12.9835
    13.5739  13.6875  15.4286  17.4674  20.0511  22.3432  27.3649

          k = 0.3994 0.3994 0.0000 (   794 PWs)   bands (ev):

     8.4967   9.7002   9.7281   9.7428  12.8222  13.5730  13.7220  13.7553
    13.9078  14.1858  14.3194  17.7668  21.8207  24.9462  26.3441

          k = 0.3994 0.3994 0.1524 (   801 PWs)   bands (ev):

     8.6649   9.7210   9.7378  10.2023  12.5421  12.7535  13.4237  13.6068
    13.7171  13.8952  15.8467  18.9474  21.8358  23.5303  24.6663

          k = 0.3994 0.3994 0.3048 (   806 PWs)   bands (ev):

     9.0011   9.6216   9.8149  11.3838  12.0422  12.0926  12.7697  13.3356
    13.6840  13.7464  17.6111  20.1763  21.3907  22.5098  23.9973

     the Fermi energy is    15.6275 ev

     WARNING: integrated charge=    22.01248399, expected=    22.00000000

!    total energy              =    -155.05081862 Ry
     estimated scf accuracy    <          2.0E-10 Ry
     smearing contrib. (-TS)   =      -0.00053169 Ry
     internal energy E=F+TS    =    -155.05028692 Ry

     The total energy is F=E-TS. E is the sum of the following terms:
     one-electron contribution =      -4.11767127 Ry
     hartree contribution      =      27.68460409 Ry
     xc contribution           =     -24.56229371 Ry
     ewald contribution        =    -154.05492604 Ry

     total magnetization       =     0.00 Bohr mag/cell
     absolute magnetization    =     0.00 Bohr mag/cell

     convergence has been achieved in  11 iterations

     Forces acting on atoms (cartesian axes, Ry/au):

     atom    1 type  2   force =     0.00000000    0.00000000    0.00000000
     atom    2 type  1   force =     0.00000000    0.00000000    0.00000000
     The non-local contrib.  to forces
     atom    1 type  2   force =     0.00000000    0.00000000    0.00000000
     atom    2 type  1   force =     0.00000000    0.00000000    0.00000000
     The ionic contribution  to forces
     atom    1 type  2   force =    -0.00000000   -0.00000000   -0.00000000
     atom    2 type  1   force =    -0.04843213   -0.04843213    0.76536908
     The local contribution  to forces
     atom    1 type  2   force =     0.00000000    0.00000000    0.00000000
     atom    2 type  1   force =    -0.00071868   -0.00071868    0.01215489
     The core correction contribution to forces
     atom    1 type  2   force =     0.00000000    0.00000000    0.00000000
     atom    2 type  1   force =     0.00000000    0.00000000    0.00000000
     The Hubbard contrib.    to forces
     atom    1 type  2   force =     0.00000000    0.00000000    0.00000000
     atom    2 type  1   force =     0.00000000    0.00000000    0.00000000
     The SCF correction term to forces
     atom    1 type  2   force =     0.00000000   -0.00000000   -0.00000000
     atom    2 type  1   force =     0.00000001    0.00000001   -0.00000002

     Total force =     0.000000     Total SCF correction =     0.000000


     Computing stress (Cartesian axis) and pressure

          total   stress  (Ry/bohr**3)                   (kbar)     P=       23.76
   0.00016082   0.00000000   0.00000000           23.66        0.00        0.00
   0.00000000   0.00016082   0.00000000            0.00       23.66        0.00
   0.00000000   0.00000000   0.00016281            0.00        0.00       23.95

     Energy error            =      1.7E-01 Ry
     Gradient error          =      0.0E+00 Ry/Bohr
     Cell gradient error     =      2.4E+01 kbar

     number of scf cycles    =   9
     number of bfgs steps    =   8

     enthalpy           old  =    -154.8853462755 Ry
     enthalpy           new  =    -155.0508186189 Ry

     CASE: enthalpy          _new < enthalpy          _old


     WARNING: bfgs curvature condition failed, Theta= 0.097
     new trust radius        =       0.0025404270 bohr
     new conv_thr            =       0.0000000010 Ry

     new unit-cell volume =    188.33888 a.u.^3 (    27.90894 Ang^3 )
     density =     15.50010 g/cm^3

CELL_PARAMETERS (angstrom)
   2.769572730   0.000000000   0.000000000
   0.000000000   2.769572730   0.000000000
   0.000000000   0.000000000   3.638461866

ATOMIC_POSITIONS (angstrom)
Cu            0.0000000000        0.0000000000        0.0000000000
Au            1.3847863649        1.3847863649        1.8192309331



     Writing config-only to output data dir /home/gridsan/epan1/labutil/lab3_samples/problem3/Lab3/CuAu_a_2.766_c_3.623_ecut_40_nk_5/pwscf.save/

     lsda relaxation :  a final configuration with zero
                        absolute magnetization has been found

     the program is checking if it is really the minimum energy structure
     by performing a new scf iteration without any "electronic" history

     Initial potential from superposition of free atoms

     starting charge      21.9996, renormalised to      22.0000

     total cpu time spent up to now is       40.9 secs

     Self-consistent Calculation

     iteration #  1     ecut=    40.00 Ry     beta= 0.50
     Davidson diagonalization with overlap
     ethr =  1.00E-06,  avg # of iterations =  7.4

     total cpu time spent up to now is       41.5 secs

     WARNING: integrated charge=    22.01056061, expected=    22.00000000

     total energy              =    -154.75425614 Ry
     estimated scf accuracy    <       0.75263848 Ry

     total magnetization       =     1.42 Bohr mag/cell
     absolute magnetization    =     1.59 Bohr mag/cell

     iteration #  2     ecut=    40.00 Ry     beta= 0.50
     Davidson diagonalization with overlap
     ethr =  3.42E-03,  avg # of iterations =  2.0

     total cpu time spent up to now is       41.8 secs

     WARNING: integrated charge=    22.01402358, expected=    22.00000000

     total energy              =    -155.09801391 Ry
     estimated scf accuracy    <       0.49056739 Ry

     total magnetization       =     0.32 Bohr mag/cell
     absolute magnetization    =     0.51 Bohr mag/cell

     iteration #  3     ecut=    40.00 Ry     beta= 0.50
     Davidson diagonalization with overlap
     ethr =  2.23E-03,  avg # of iterations =  1.2

     total cpu time spent up to now is       42.1 secs

     WARNING: integrated charge=    22.01751149, expected=    22.00000000

     total energy              =    -155.23528235 Ry
     estimated scf accuracy    <       0.09723889 Ry

     total magnetization       =     0.33 Bohr mag/cell
     absolute magnetization    =     0.47 Bohr mag/cell

     iteration #  4     ecut=    40.00 Ry     beta= 0.50
     Davidson diagonalization with overlap
     ethr =  4.42E-04,  avg # of iterations =  1.7

     total cpu time spent up to now is       42.4 secs

     WARNING: integrated charge=    22.02353290, expected=    22.00000000

 %%%%%%%%%%%%%%%%%%%%%%%%%%%%%%%%%%%%%%%%%%%%%%%%%%%%%%%%%%%%%%%%%%%%%%%%%%%%%%
     Error in routine electrons (1):
     charge is wrong
 %%%%%%%%%%%%%%%%%%%%%%%%%%%%%%%%%%%%%%%%%%%%%%%%%%%%%%%%%%%%%%%%%%%%%%%%%%%%%%

     stopping ...
