Header of the LAMMPS data file 

4 atoms 
1 atom types

0.0 3.82020202020202  xlo xhi
0.0 3.82020202020202  ylo yhi
0.0 3.82020202020202  zlo zhi

Masses 

1  107.8682

Atoms # atomic 

1 1 0.00000 0.00000 0.00000 
2 1 0.00000 1.91010 1.91010 
3 1 1.91010 0.00000 1.91010 
4 1 1.91010 1.91010 0.00000 
