
     Program PWSCF v.7.2 starts on 18Oct2023 at  5:31: 2 

     This program is part of the open-source Quantum ESPRESSO suite
     for quantum simulation of materials; please cite
         "P. Giannozzi et al., J. Phys.:Condens. Matter 21 395502 (2009);
         "P. Giannozzi et al., J. Phys.:Condens. Matter 29 465901 (2017);
         "P. Giannozzi et al., J. Chem. Phys. 152 154105 (2020);
          URL http://www.quantum-espresso.org", 
     in publications or presentations arising from this work. More details at
     http://www.quantum-espresso.org/quote

     Parallel version (MPI), running on     1 processors

     MPI processes distributed on     1 nodes
     42971 MiB available memory on the printing compute node when the environment starts

     Waiting for input...
     Reading input from standard input

     Current dimensions of program PWSCF are:
     Max number of different atomic species (ntypx) = 10
     Max number of k-points (npk) =  40000
     Max angular momentum in pseudopotentials (lmaxx) =  4
     file Ge.pz-dn-rrkjus_psl.0.2.2.UPF: wavefunction(s)  3D renormalized
     Message from routine find_sym:
     Not a group! Trying with lower acceptance parameter...
     Message from routine find_sym:
     Still not a group! symmetry disabled

     Subspace diagonalization in iterative solution of the eigenvalue problem:
     a serial algorithm will be used


     G-vector sticks info
     --------------------
     sticks:   dense  smooth     PW     G-vecs:    dense   smooth      PW
     Sum         559     559    163                 8609     8609    1459

     Using Slab Decomposition



     bravais-lattice index     =            0
     lattice parameter (alat)  =       7.5660  a.u.
     unit-cell volume          =     306.2604 (a.u.)^3
     number of atoms/cell      =            2
     number of atomic types    =            1
     number of electrons       =        28.00
     number of Kohn-Sham states=           14
     kinetic-energy cutoff     =      35.0000  Ry
     charge density cutoff     =     140.0000  Ry
     scf convergence threshold =      1.0E-07
     mixing beta               =       0.5000
     number of iterations used =            8  plain     mixing
     energy convergence thresh.=      1.0E-04
     force convergence thresh. =      1.0E-03
     press convergence thresh. =      5.0E-01
     Exchange-correlation= LDA
                           (   1   1   0   0   0   0   0)
     nstep                     =           50


     celldm(1)=   7.566040  celldm(2)=   0.000000  celldm(3)=   0.000000
     celldm(4)=   0.000000  celldm(5)=   0.000000  celldm(6)=   0.000000

     crystal axes: (cart. coord. in units of alat)
               a(1) = (   0.000000   0.707107   0.707107 )  
               a(2) = (   0.707107   0.000000   0.707107 )  
               a(3) = (   0.707107   0.707107   0.000000 )  

     reciprocal axes: (cart. coord. in units 2 pi/alat)
               b(1) = ( -0.707107  0.707107  0.707107 )  
               b(2) = (  0.707107 -0.707107  0.707107 )  
               b(3) = (  0.707107  0.707107 -0.707107 )  


     PseudoPot. # 1 for Ge read from file:
     ../Ge.pz-dn-rrkjus_psl.0.2.2.UPF
     MD5 check sum: 9948ad5293734715c8cf6021b6c26e6d
     Pseudo is Ultrasoft + core correction, Zval = 14.0
     Generated using "atomic" code by A. Dal Corso  v.5.0.2 svn rev. 9415
     Using radial grid of 1207 points,  6 beta functions with: 
                l(1) =   0
                l(2) =   0
                l(3) =   1
                l(4) =   1
                l(5) =   2
                l(6) =   2
     Q(r) pseudized with 0 coefficients 


     atomic species   valence    mass     pseudopotential
        Ge            14.00    72.63000     Ge( 1.00)

     No symmetry found



   Cartesian axes

     site n.     atom                  positions (alat units)
         1           Ge  tau(   1) = (   0.0000000   0.0000000   0.0000000  )
         2           Ge  tau(   2) = (   0.3535538   0.3535538   0.3535538  )

     number of k points=    63
                       cart. coord. in units 2pi/alat
        k(    1) = (   0.0000000   0.0000000   0.0000000), wk =   0.0160000
        k(    2) = (   0.1414214   0.1414214  -0.1414214), wk =   0.0320000
        k(    3) = (   0.2828427   0.2828427  -0.2828427), wk =   0.0320000
        k(    4) = (   0.2828427   0.0000000   0.0000000), wk =   0.0320000
        k(    5) = (   0.4242641   0.1414214  -0.1414214), wk =   0.0320000
        k(    6) = (  -0.1414214  -0.4242641   0.4242641), wk =   0.0320000
        k(    7) = (   0.0000000  -0.2828427   0.2828427), wk =   0.0320000
        k(    8) = (   0.5656854   0.0000000   0.0000000), wk =   0.0320000
        k(    9) = (   0.0000000  -0.5656854   0.5656854), wk =   0.0320000
        k(   10) = (  -0.1414214  -0.4242641   0.7071068), wk =   0.0320000
        k(   11) = (  -0.1414214  -0.1414214  -0.1414214), wk =   0.0320000
        k(   12) = (  -0.1414214   0.1414214   0.1414214), wk =   0.0320000
        k(   13) = (   0.1414214  -0.1414214   0.1414214), wk =   0.0320000
        k(   14) = (  -0.2828427  -0.2828427  -0.2828427), wk =   0.0320000
        k(   15) = (  -0.2828427   0.2828427   0.2828427), wk =   0.0320000
        k(   16) = (   0.2828427  -0.2828427   0.2828427), wk =   0.0320000
        k(   17) = (   0.0000000  -0.2828427   0.0000000), wk =   0.0320000
        k(   18) = (   0.0000000   0.0000000  -0.2828427), wk =   0.0320000
        k(   19) = (  -0.4242641  -0.1414214  -0.1414214), wk =   0.0320000
        k(   20) = (  -0.4242641   0.1414214   0.1414214), wk =   0.0320000
        k(   21) = (   0.4242641  -0.1414214   0.1414214), wk =   0.0320000
        k(   22) = (  -0.1414214  -0.4242641   0.1414214), wk =   0.0320000
        k(   23) = (   0.1414214  -0.1414214  -0.4242641), wk =   0.0320000
        k(   24) = (   0.1414214  -0.1414214   0.4242641), wk =   0.0320000
        k(   25) = (  -0.1414214  -0.1414214  -0.4242641), wk =   0.0320000
        k(   26) = (   0.1414214   0.1414214  -0.4242641), wk =   0.0320000
        k(   27) = (  -0.1414214   0.4242641   0.1414214), wk =   0.0320000
        k(   28) = (  -0.1414214  -0.4242641  -0.1414214), wk =   0.0320000
        k(   29) = (   0.1414214  -0.4242641   0.1414214), wk =   0.0320000
        k(   30) = (   0.1414214   0.4242641   0.4242641), wk =   0.0320000
        k(   31) = (   0.1414214  -0.4242641  -0.4242641), wk =   0.0320000
        k(   32) = (  -0.1414214   0.4242641  -0.4242641), wk =   0.0320000
        k(   33) = (   0.4242641   0.1414214  -0.4242641), wk =   0.0320000
        k(   34) = (  -0.4242641   0.4242641   0.1414214), wk =   0.0320000
        k(   35) = (  -0.4242641   0.4242641  -0.1414214), wk =   0.0320000
        k(   36) = (   0.4242641   0.4242641   0.1414214), wk =   0.0320000
        k(   37) = (  -0.4242641  -0.4242641   0.1414214), wk =   0.0320000
        k(   38) = (   0.4242641  -0.1414214  -0.4242641), wk =   0.0320000
        k(   39) = (   0.4242641   0.1414214   0.4242641), wk =   0.0320000
        k(   40) = (  -0.4242641   0.1414214  -0.4242641), wk =   0.0320000
        k(   41) = (  -0.0000000   0.2828427   0.2828427), wk =   0.0320000
        k(   42) = (   0.2828427  -0.0000000  -0.2828427), wk =   0.0320000
        k(   43) = (  -0.2828427   0.2828427  -0.0000000), wk =   0.0320000
        k(   44) = (   0.2828427   0.2828427  -0.0000000), wk =   0.0320000
        k(   45) = (   0.2828427  -0.0000000   0.2828427), wk =   0.0320000
        k(   46) = (   0.0000000  -0.5656854   0.0000000), wk =   0.0320000
        k(   47) = (   0.0000000   0.0000000  -0.5656854), wk =   0.0320000
        k(   48) = (   0.0000000   0.5656854   0.5656854), wk =   0.0320000
        k(   49) = (   0.5656854   0.0000000  -0.5656854), wk =   0.0320000
        k(   50) = (  -0.5656854   0.5656854   0.0000000), wk =   0.0320000
        k(   51) = (   0.5656854   0.5656854   0.0000000), wk =   0.0320000
        k(   52) = (   0.5656854   0.0000000   0.5656854), wk =   0.0320000
        k(   53) = (   0.1414214  -0.4242641  -0.7071068), wk =   0.0320000
        k(   54) = (   0.4242641   0.1414214  -0.7071068), wk =   0.0320000
        k(   55) = (  -0.7071068   0.4242641   0.1414214), wk =   0.0320000
        k(   56) = (   0.1414214  -0.7071068   0.4242641), wk =   0.0320000
        k(   57) = (  -0.4242641   0.7071068  -0.1414214), wk =   0.0320000
        k(   58) = (  -0.4242641  -0.7071068   0.1414214), wk =   0.0320000
        k(   59) = (   0.7071068  -0.1414214  -0.4242641), wk =   0.0320000
        k(   60) = (  -0.7071068   0.1414214  -0.4242641), wk =   0.0320000
        k(   61) = (   0.4242641  -0.1414214  -0.7071068), wk =   0.0320000
        k(   62) = (  -0.7071068  -0.4242641   0.1414214), wk =   0.0320000
        k(   63) = (  -0.1414214  -0.7071068   0.4242641), wk =   0.0320000

     Dense  grid:     8609 G-vectors     FFT dimensions: (  32,  32,  32)

     Estimated max dynamical RAM per process >      49.37 MB

     Check: negative core charge=   -0.000153

     Initial potential from superposition of free atoms

     starting charge      27.9988, renormalised to      28.0000
     Starting wfcs are   18 randomized atomic wfcs

     total cpu time spent up to now is        2.9 secs

     Self-consistent Calculation

     iteration #  1     ecut=    35.00 Ry     beta= 0.50
     Davidson diagonalization with overlap
     ethr =  1.00E-02,  avg # of iterations =  1.9

     Threshold (ethr) on eigenvalues was too large:
     Diagonalizing with lowered threshold

     Davidson diagonalization with overlap
     ethr =  1.18E-04,  avg # of iterations =  2.1

     total cpu time spent up to now is        8.7 secs

     total energy              =    -421.78501621 Ry
     estimated scf accuracy    <       0.03612703 Ry

     iteration #  2     ecut=    35.00 Ry     beta= 0.50
     Davidson diagonalization with overlap
     ethr =  1.29E-04,  avg # of iterations =  1.0

     total cpu time spent up to now is       11.3 secs

     total energy              =    -421.78358905 Ry
     estimated scf accuracy    <       0.00660691 Ry

     iteration #  3     ecut=    35.00 Ry     beta= 0.50
     Davidson diagonalization with overlap
     ethr =  2.36E-05,  avg # of iterations =  2.0

     total cpu time spent up to now is       14.2 secs

     total energy              =    -421.78410880 Ry
     estimated scf accuracy    <       0.00007788 Ry

     iteration #  4     ecut=    35.00 Ry     beta= 0.50
     Davidson diagonalization with overlap
     ethr =  2.78E-07,  avg # of iterations =  3.9

     total cpu time spent up to now is       17.9 secs

     total energy              =    -421.78413015 Ry
     estimated scf accuracy    <       0.00002935 Ry

     iteration #  5     ecut=    35.00 Ry     beta= 0.50
     Davidson diagonalization with overlap
     ethr =  1.05E-07,  avg # of iterations =  2.0

     total cpu time spent up to now is       20.9 secs

     total energy              =    -421.78413001 Ry
     estimated scf accuracy    <       0.00000518 Ry

     iteration #  6     ecut=    35.00 Ry     beta= 0.50
     Davidson diagonalization with overlap
     ethr =  1.85E-08,  avg # of iterations =  3.4

     total cpu time spent up to now is       24.1 secs

     total energy              =    -421.78414941 Ry
     estimated scf accuracy    <       0.00003728 Ry

     iteration #  7     ecut=    35.00 Ry     beta= 0.50
     Davidson diagonalization with overlap
     ethr =  1.85E-08,  avg # of iterations =  1.0

     total cpu time spent up to now is       26.6 secs

     total energy              =    -421.78414941 Ry
     estimated scf accuracy    <       0.00003803 Ry

     iteration #  8     ecut=    35.00 Ry     beta= 0.50
     Davidson diagonalization with overlap
     ethr =  1.85E-08,  avg # of iterations =  1.0

     total cpu time spent up to now is       29.2 secs

     total energy              =    -421.78414354 Ry
     estimated scf accuracy    <       0.00003776 Ry

     iteration #  9     ecut=    35.00 Ry     beta= 0.50
     Davidson diagonalization with overlap
     ethr =  1.85E-08,  avg # of iterations =  2.0

     total cpu time spent up to now is       32.2 secs

     total energy              =    -421.78413562 Ry
     estimated scf accuracy    <       0.00002555 Ry

     iteration # 10     ecut=    35.00 Ry     beta= 0.50
     Davidson diagonalization with overlap
     ethr =  1.85E-08,  avg # of iterations =  2.3

     total cpu time spent up to now is       35.3 secs

     total energy              =    -421.78413267 Ry
     estimated scf accuracy    <       0.00000977 Ry

     iteration # 11     ecut=    35.00 Ry     beta= 0.50
     Davidson diagonalization with overlap
     ethr =  1.85E-08,  avg # of iterations =  2.1

     total cpu time spent up to now is       38.3 secs

     total energy              =    -421.78413265 Ry
     estimated scf accuracy    <       0.00000277 Ry

     iteration # 12     ecut=    35.00 Ry     beta= 0.50
     Davidson diagonalization with overlap
     ethr =  9.90E-09,  avg # of iterations =  1.8

     total cpu time spent up to now is       41.0 secs

     total energy              =    -421.78414515 Ry
     estimated scf accuracy    <       0.00002579 Ry

     iteration # 13     ecut=    35.00 Ry     beta= 0.50
     Davidson diagonalization with overlap
     ethr =  9.90E-09,  avg # of iterations =  1.0

     total cpu time spent up to now is       43.7 secs

     total energy              =    -421.78414839 Ry
     estimated scf accuracy    <       0.00003022 Ry

     iteration # 14     ecut=    35.00 Ry     beta= 0.50
     Davidson diagonalization with overlap
     c_bands:  1 eigenvalues not converged
     ethr =  9.90E-09,  avg # of iterations =  2.6

     total cpu time spent up to now is       46.8 secs

     total energy              =    -421.78415092 Ry
     estimated scf accuracy    <       0.00004006 Ry

     iteration # 15     ecut=    35.00 Ry     beta= 0.50
     Davidson diagonalization with overlap
     ethr =  9.90E-09,  avg # of iterations =  1.2

     total cpu time spent up to now is       49.4 secs

     total energy              =    -421.78415131 Ry
     estimated scf accuracy    <       0.00004353 Ry

     iteration # 16     ecut=    35.00 Ry     beta= 0.50
     Davidson diagonalization with overlap
     ethr =  9.90E-09,  avg # of iterations =  1.0

     total cpu time spent up to now is       52.0 secs

     total energy              =    -421.78414879 Ry
     estimated scf accuracy    <       0.00004352 Ry

     iteration # 17     ecut=    35.00 Ry     beta= 0.50
     Davidson diagonalization with overlap
     ethr =  9.90E-09,  avg # of iterations =  1.0

     total cpu time spent up to now is       54.6 secs

     total energy              =    -421.78414092 Ry
     estimated scf accuracy    <       0.00003815 Ry

     iteration # 18     ecut=    35.00 Ry     beta= 0.50
     Davidson diagonalization with overlap
     c_bands:  1 eigenvalues not converged
     ethr =  9.90E-09,  avg # of iterations =  2.3

     total cpu time spent up to now is       57.6 secs

     total energy              =    -421.78414429 Ry
     estimated scf accuracy    <       0.00002259 Ry

     iteration # 19     ecut=    35.00 Ry     beta= 0.50
     Davidson diagonalization with overlap
     ethr =  9.90E-09,  avg # of iterations =  1.0

     total cpu time spent up to now is       60.2 secs

     total energy              =    -421.78414356 Ry
     estimated scf accuracy    <       0.00002719 Ry

     iteration # 20     ecut=    35.00 Ry     beta= 0.50
     Davidson diagonalization with overlap
     ethr =  9.90E-09,  avg # of iterations =  1.0

     total cpu time spent up to now is       62.8 secs

     total energy              =    -421.78413161 Ry
     estimated scf accuracy    <       0.00002570 Ry

     iteration # 21     ecut=    35.00 Ry     beta= 0.50
     Davidson diagonalization with overlap
     c_bands:  2 eigenvalues not converged
     ethr =  9.90E-09,  avg # of iterations =  4.7

     total cpu time spent up to now is       67.0 secs

     total energy              =    -421.78414351 Ry
     estimated scf accuracy    <       0.00003813 Ry

     iteration # 22     ecut=    35.00 Ry     beta= 0.50
     Davidson diagonalization with overlap
     c_bands:  1 eigenvalues not converged
     ethr =  9.90E-09,  avg # of iterations =  2.3

     total cpu time spent up to now is       69.9 secs

     total energy              =    -421.78415311 Ry
     estimated scf accuracy    <       0.00002739 Ry

     iteration # 23     ecut=    35.00 Ry     beta= 0.50
     Davidson diagonalization with overlap
     c_bands:  2 eigenvalues not converged
     ethr =  9.90E-09,  avg # of iterations =  2.5

     total cpu time spent up to now is       72.9 secs

     total energy              =    -421.78415994 Ry
     estimated scf accuracy    <       0.00004727 Ry

     iteration # 24     ecut=    35.00 Ry     beta= 0.50
     Davidson diagonalization with overlap
     c_bands:  1 eigenvalues not converged
     ethr =  9.90E-09,  avg # of iterations =  2.3

     total cpu time spent up to now is       75.9 secs

     total energy              =    -421.78415723 Ry
     estimated scf accuracy    <       0.00006105 Ry

     iteration # 25     ecut=    35.00 Ry     beta= 0.50
     Davidson diagonalization with overlap
     ethr =  9.90E-09,  avg # of iterations =  1.2

     total cpu time spent up to now is       78.1 secs

     total energy              =    -421.78414205 Ry
     estimated scf accuracy    <       0.00005808 Ry

     iteration # 26     ecut=    35.00 Ry     beta= 0.50
     Davidson diagonalization with overlap
     ethr =  9.90E-09,  avg # of iterations =  3.2

     total cpu time spent up to now is       81.5 secs

     total energy              =    -421.78413411 Ry
     estimated scf accuracy    <       0.00002514 Ry

     iteration # 27     ecut=    35.00 Ry     beta= 0.50
     Davidson diagonalization with overlap
     c_bands:  2 eigenvalues not converged
     ethr =  9.90E-09,  avg # of iterations =  3.7

     total cpu time spent up to now is       84.8 secs

     total energy              =    -421.78413418 Ry
     estimated scf accuracy    <       0.00001086 Ry

     iteration # 28     ecut=    35.00 Ry     beta= 0.50
     Davidson diagonalization with overlap
     c_bands:  2 eigenvalues not converged
     ethr =  9.90E-09,  avg # of iterations =  2.7

     total cpu time spent up to now is       87.9 secs

     total energy              =    -421.78414656 Ry
     estimated scf accuracy    <       0.00002882 Ry

     iteration # 29     ecut=    35.00 Ry     beta= 0.50
     Davidson diagonalization with overlap
     c_bands:  2 eigenvalues not converged
     ethr =  9.90E-09,  avg # of iterations =  2.4

     total cpu time spent up to now is       91.0 secs

     total energy              =    -421.78414603 Ry
     estimated scf accuracy    <       0.00004397 Ry

     iteration # 30     ecut=    35.00 Ry     beta= 0.50
     Davidson diagonalization with overlap
     c_bands:  1 eigenvalues not converged
     ethr =  9.90E-09,  avg # of iterations =  2.3

     total cpu time spent up to now is       94.0 secs

     total energy              =    -421.78414791 Ry
     estimated scf accuracy    <       0.00003497 Ry

     iteration # 31     ecut=    35.00 Ry     beta= 0.50
     Davidson diagonalization with overlap
     ethr =  9.90E-09,  avg # of iterations =  1.2

     total cpu time spent up to now is       96.6 secs

     total energy              =    -421.78414759 Ry
     estimated scf accuracy    <       0.00003791 Ry

     iteration # 32     ecut=    35.00 Ry     beta= 0.50
     Davidson diagonalization with overlap
     ethr =  9.90E-09,  avg # of iterations =  2.2

     total cpu time spent up to now is       99.6 secs

     total energy              =    -421.78414973 Ry
     estimated scf accuracy    <       0.00003994 Ry

     iteration # 33     ecut=    35.00 Ry     beta= 0.50
     Davidson diagonalization with overlap
     c_bands:  1 eigenvalues not converged
     ethr =  9.90E-09,  avg # of iterations =  3.2

     total cpu time spent up to now is      102.8 secs

     total energy              =    -421.78413837 Ry
     estimated scf accuracy    <       0.00004676 Ry

     iteration # 34     ecut=    35.00 Ry     beta= 0.50
     Davidson diagonalization with overlap
     c_bands:  2 eigenvalues not converged
     ethr =  9.90E-09,  avg # of iterations =  4.0

     total cpu time spent up to now is      107.0 secs

     total energy              =    -421.78415054 Ry
     estimated scf accuracy    <       0.00002976 Ry

     iteration # 35     ecut=    35.00 Ry     beta= 0.50
     Davidson diagonalization with overlap
     c_bands:  1 eigenvalues not converged
     ethr =  9.90E-09,  avg # of iterations =  3.7

     total cpu time spent up to now is      110.4 secs

     total energy              =    -421.78415690 Ry
     estimated scf accuracy    <       0.00004859 Ry

     iteration # 36     ecut=    35.00 Ry     beta= 0.50
     Davidson diagonalization with overlap
     ethr =  9.90E-09,  avg # of iterations =  1.4

     total cpu time spent up to now is      113.1 secs

     total energy              =    -421.78417391 Ry
     estimated scf accuracy    <       0.00005593 Ry

     iteration # 37     ecut=    35.00 Ry     beta= 0.50
     Davidson diagonalization with overlap
     c_bands:  1 eigenvalues not converged
     ethr =  9.90E-09,  avg # of iterations =  3.8

     total cpu time spent up to now is      116.9 secs

     total energy              =    -421.78413255 Ry
     estimated scf accuracy    <       0.00009717 Ry

     iteration # 38     ecut=    35.00 Ry     beta= 0.50
     Davidson diagonalization with overlap
     c_bands:  1 eigenvalues not converged
     ethr =  9.90E-09,  avg # of iterations =  4.9

     total cpu time spent up to now is      121.3 secs

     total energy              =    -421.78412995 Ry
     estimated scf accuracy    <       0.00002425 Ry

     iteration # 39     ecut=    35.00 Ry     beta= 0.50
     Davidson diagonalization with overlap
     c_bands:  2 eigenvalues not converged
     ethr =  9.90E-09,  avg # of iterations =  5.0

     total cpu time spent up to now is      125.6 secs

     total energy              =    -421.78414533 Ry
     estimated scf accuracy    <       0.00006878 Ry

     iteration # 40     ecut=    35.00 Ry     beta= 0.50
     Davidson diagonalization with overlap
     ethr =  9.90E-09,  avg # of iterations =  3.3

     total cpu time spent up to now is      128.9 secs

     total energy              =    -421.78412892 Ry
     estimated scf accuracy    <       0.00003465 Ry

     iteration # 41     ecut=    35.00 Ry     beta= 0.50
     Davidson diagonalization with overlap
     c_bands:  2 eigenvalues not converged
     ethr =  9.90E-09,  avg # of iterations =  4.7

     total cpu time spent up to now is      133.0 secs

     total energy              =    -421.78412961 Ry
     estimated scf accuracy    <       0.00003558 Ry

     iteration # 42     ecut=    35.00 Ry     beta= 0.50
     Davidson diagonalization with overlap
     ethr =  9.90E-09,  avg # of iterations =  4.0

     total cpu time spent up to now is      136.9 secs

     total energy              =    -421.78413173 Ry
     estimated scf accuracy    <       0.00000211 Ry

     iteration # 43     ecut=    35.00 Ry     beta= 0.50
     Davidson diagonalization with overlap
     c_bands:  1 eigenvalues not converged
     ethr =  7.54E-09,  avg # of iterations =  2.8

     total cpu time spent up to now is      139.8 secs

     total energy              =    -421.78414824 Ry
     estimated scf accuracy    <       0.00004139 Ry

     iteration # 44     ecut=    35.00 Ry     beta= 0.50
     Davidson diagonalization with overlap
     ethr =  7.54E-09,  avg # of iterations =  1.3

     total cpu time spent up to now is      142.3 secs

     total energy              =    -421.78414852 Ry
     estimated scf accuracy    <       0.00003709 Ry

     iteration # 45     ecut=    35.00 Ry     beta= 0.50
     Davidson diagonalization with overlap
     ethr =  7.54E-09,  avg # of iterations =  1.0

     total cpu time spent up to now is      144.9 secs

     total energy              =    -421.78414809 Ry
     estimated scf accuracy    <       0.00003727 Ry

     iteration # 46     ecut=    35.00 Ry     beta= 0.50
     Davidson diagonalization with overlap
     ethr =  7.54E-09,  avg # of iterations =  1.0

     total cpu time spent up to now is      147.4 secs

     total energy              =    -421.78414632 Ry
     estimated scf accuracy    <       0.00003634 Ry

     iteration # 47     ecut=    35.00 Ry     beta= 0.50
     Davidson diagonalization with overlap
     ethr =  7.54E-09,  avg # of iterations =  1.2

     total cpu time spent up to now is      150.1 secs

     total energy              =    -421.78414164 Ry
     estimated scf accuracy    <       0.00003222 Ry

     iteration # 48     ecut=    35.00 Ry     beta= 0.50
     Davidson diagonalization with overlap
     ethr =  7.54E-09,  avg # of iterations =  2.0

     total cpu time spent up to now is      153.1 secs

     total energy              =    -421.78413952 Ry
     estimated scf accuracy    <       0.00002218 Ry

     iteration # 49     ecut=    35.00 Ry     beta= 0.50
     Davidson diagonalization with overlap
     ethr =  7.54E-09,  avg # of iterations =  1.7

     total cpu time spent up to now is      155.9 secs

     total energy              =    -421.78413696 Ry
     estimated scf accuracy    <       0.00001721 Ry

     iteration # 50     ecut=    35.00 Ry     beta= 0.50
     Davidson diagonalization with overlap
     ethr =  7.54E-09,  avg # of iterations =  2.2

     total cpu time spent up to now is      158.9 secs

     total energy              =    -421.78413954 Ry
     estimated scf accuracy    <       0.00001640 Ry

     iteration # 51     ecut=    35.00 Ry     beta= 0.50
     Davidson diagonalization with overlap
     ethr =  7.54E-09,  avg # of iterations =  2.2

     total cpu time spent up to now is      162.0 secs

     total energy              =    -421.78413131 Ry
     estimated scf accuracy    <       0.00001870 Ry

     iteration # 52     ecut=    35.00 Ry     beta= 0.50
     Davidson diagonalization with overlap
     c_bands:  2 eigenvalues not converged
     ethr =  7.54E-09,  avg # of iterations =  4.7

     total cpu time spent up to now is      166.3 secs

     total energy              =    -421.78414062 Ry
     estimated scf accuracy    <       0.00004488 Ry

     iteration # 53     ecut=    35.00 Ry     beta= 0.50
     Davidson diagonalization with overlap
     ethr =  7.54E-09,  avg # of iterations =  3.2

     total cpu time spent up to now is      169.6 secs

     total energy              =    -421.78414015 Ry
     estimated scf accuracy    <       0.00002148 Ry

     iteration # 54     ecut=    35.00 Ry     beta= 0.50
     Davidson diagonalization with overlap
     ethr =  7.54E-09,  avg # of iterations =  1.0

     total cpu time spent up to now is      172.2 secs

     total energy              =    -421.78413548 Ry
     estimated scf accuracy    <       0.00001885 Ry

     iteration # 55     ecut=    35.00 Ry     beta= 0.50
     Davidson diagonalization with overlap
     ethr =  7.54E-09,  avg # of iterations =  2.5

     total cpu time spent up to now is      175.2 secs

     total energy              =    -421.78414309 Ry
     estimated scf accuracy    <       0.00002486 Ry

     iteration # 56     ecut=    35.00 Ry     beta= 0.50
     Davidson diagonalization with overlap
     ethr =  7.54E-09,  avg # of iterations =  1.0

     total cpu time spent up to now is      177.8 secs

     total energy              =    -421.78414132 Ry
     estimated scf accuracy    <       0.00002707 Ry

     iteration # 57     ecut=    35.00 Ry     beta= 0.50
     Davidson diagonalization with overlap
     ethr =  7.54E-09,  avg # of iterations =  1.0

     total cpu time spent up to now is      180.3 secs

     total energy              =    -421.78414249 Ry
     estimated scf accuracy    <       0.00002321 Ry

     iteration # 58     ecut=    35.00 Ry     beta= 0.50
     Davidson diagonalization with overlap
     ethr =  7.54E-09,  avg # of iterations =  1.0

     total cpu time spent up to now is      182.9 secs

     total energy              =    -421.78414191 Ry
     estimated scf accuracy    <       0.00002563 Ry

     iteration # 59     ecut=    35.00 Ry     beta= 0.50
     Davidson diagonalization with overlap
     ethr =  7.54E-09,  avg # of iterations =  1.0

     total cpu time spent up to now is      185.4 secs

     total energy              =    -421.78416848 Ry
     estimated scf accuracy    <       0.00002444 Ry

     iteration # 60     ecut=    35.00 Ry     beta= 0.50
     Davidson diagonalization with overlap
     c_bands:  2 eigenvalues not converged
     ethr =  7.54E-09,  avg # of iterations =  5.1

     total cpu time spent up to now is      189.9 secs

     total energy              =    -421.78416653 Ry
     estimated scf accuracy    <       0.00010277 Ry

     iteration # 61     ecut=    35.00 Ry     beta= 0.50
     Davidson diagonalization with overlap
     c_bands:  2 eigenvalues not converged
     ethr =  7.54E-09,  avg # of iterations =  2.3

     total cpu time spent up to now is      192.9 secs

     total energy              =    -421.78416913 Ry
     estimated scf accuracy    <       0.00008338 Ry

     iteration # 62     ecut=    35.00 Ry     beta= 0.50
     Davidson diagonalization with overlap
     ethr =  7.54E-09,  avg # of iterations =  1.4

     total cpu time spent up to now is      195.6 secs

     total energy              =    -421.78417255 Ry
     estimated scf accuracy    <       0.00008628 Ry

     iteration # 63     ecut=    35.00 Ry     beta= 0.50
     Davidson diagonalization with overlap
     ethr =  7.54E-09,  avg # of iterations =  2.2

     total cpu time spent up to now is      198.5 secs

     total energy              =    -421.78411880 Ry
     estimated scf accuracy    <       0.00009435 Ry

     iteration # 64     ecut=    35.00 Ry     beta= 0.50
     Davidson diagonalization with overlap
     c_bands:  2 eigenvalues not converged
     ethr =  7.54E-09,  avg # of iterations =  5.7

     total cpu time spent up to now is      203.3 secs

     total energy              =    -421.78413205 Ry
     estimated scf accuracy    <       0.00000137 Ry

     iteration # 65     ecut=    35.00 Ry     beta= 0.50
     Davidson diagonalization with overlap
     ethr =  4.88E-09,  avg # of iterations =  2.2

     total cpu time spent up to now is      206.3 secs

     total energy              =    -421.78413716 Ry
     estimated scf accuracy    <       0.00003410 Ry

     iteration # 66     ecut=    35.00 Ry     beta= 0.50
     Davidson diagonalization with overlap
     ethr =  4.88E-09,  avg # of iterations =  3.6

     total cpu time spent up to now is      209.8 secs

     total energy              =    -421.78413564 Ry
     estimated scf accuracy    <       0.00002161 Ry

     iteration # 67     ecut=    35.00 Ry     beta= 0.50
     Davidson diagonalization with overlap
     ethr =  4.88E-09,  avg # of iterations =  3.1

     total cpu time spent up to now is      212.9 secs

     total energy              =    -421.78413381 Ry
     estimated scf accuracy    <       0.00000916 Ry

     iteration # 68     ecut=    35.00 Ry     beta= 0.50
     Davidson diagonalization with overlap
     ethr =  4.88E-09,  avg # of iterations =  2.2

     total cpu time spent up to now is      215.8 secs

     total energy              =    -421.78413169 Ry
     estimated scf accuracy    <       0.00000461 Ry

     iteration # 69     ecut=    35.00 Ry     beta= 0.50
     Davidson diagonalization with overlap
     ethr =  4.88E-09,  avg # of iterations =  3.6

     total cpu time spent up to now is      219.1 secs

     total energy              =    -421.78413213 Ry
     estimated scf accuracy    <       0.00000044 Ry

     iteration # 70     ecut=    35.00 Ry     beta= 0.50
     Davidson diagonalization with overlap
     ethr =  1.58E-09,  avg # of iterations =  2.5

     total cpu time spent up to now is      222.2 secs

     total energy              =    -421.78413231 Ry
     estimated scf accuracy    <       0.00000042 Ry

     iteration # 71     ecut=    35.00 Ry     beta= 0.50
     Davidson diagonalization with overlap
     ethr =  1.48E-09,  avg # of iterations =  1.3

     total cpu time spent up to now is      224.8 secs

     total energy              =    -421.78413234 Ry
     estimated scf accuracy    <       0.00000061 Ry

     iteration # 72     ecut=    35.00 Ry     beta= 0.50
     Davidson diagonalization with overlap
     ethr =  1.48E-09,  avg # of iterations =  1.0

     total cpu time spent up to now is      227.4 secs

     total energy              =    -421.78413221 Ry
     estimated scf accuracy    <       0.00000066 Ry

     iteration # 73     ecut=    35.00 Ry     beta= 0.50
     Davidson diagonalization with overlap
     ethr =  1.48E-09,  avg # of iterations =  1.0

     total cpu time spent up to now is      230.0 secs

     total energy              =    -421.78413212 Ry
     estimated scf accuracy    <       0.00000038 Ry

     iteration # 74     ecut=    35.00 Ry     beta= 0.50
     Davidson diagonalization with overlap
     ethr =  1.35E-09,  avg # of iterations =  1.1

     total cpu time spent up to now is      232.7 secs

     total energy              =    -421.78413201 Ry
     estimated scf accuracy    <       0.00000018 Ry

     iteration # 75     ecut=    35.00 Ry     beta= 0.50
     Davidson diagonalization with overlap
     ethr =  6.60E-10,  avg # of iterations =  2.6

     total cpu time spent up to now is      235.8 secs

     total energy              =    -421.78414751 Ry
     estimated scf accuracy    <       0.00003587 Ry

     iteration # 76     ecut=    35.00 Ry     beta= 0.50
     Davidson diagonalization with overlap
     ethr =  6.60E-10,  avg # of iterations =  1.0

     total cpu time spent up to now is      238.4 secs

     total energy              =    -421.78414811 Ry
     estimated scf accuracy    <       0.00003454 Ry

     iteration # 77     ecut=    35.00 Ry     beta= 0.50
     Davidson diagonalization with overlap
     ethr =  6.60E-10,  avg # of iterations =  1.0

     total cpu time spent up to now is      241.0 secs

     total energy              =    -421.78414838 Ry
     estimated scf accuracy    <       0.00003573 Ry

     iteration # 78     ecut=    35.00 Ry     beta= 0.50
     Davidson diagonalization with overlap
     ethr =  6.60E-10,  avg # of iterations =  1.0

     total cpu time spent up to now is      243.6 secs

     total energy              =    -421.78414484 Ry
     estimated scf accuracy    <       0.00003636 Ry

     iteration # 79     ecut=    35.00 Ry     beta= 0.50
     Davidson diagonalization with overlap
     ethr =  6.60E-10,  avg # of iterations =  3.2

     total cpu time spent up to now is      246.8 secs

     total energy              =    -421.78414002 Ry
     estimated scf accuracy    <       0.00002875 Ry

     iteration # 80     ecut=    35.00 Ry     beta= 0.50
     Davidson diagonalization with overlap
     ethr =  6.60E-10,  avg # of iterations =  4.0

     total cpu time spent up to now is      250.9 secs

     total energy              =    -421.78413620 Ry
     estimated scf accuracy    <       0.00001818 Ry

     iteration # 81     ecut=    35.00 Ry     beta= 0.50
     Davidson diagonalization with overlap
     ethr =  6.60E-10,  avg # of iterations =  4.1

     total cpu time spent up to now is      255.0 secs

     total energy              =    -421.78413370 Ry
     estimated scf accuracy    <       0.00000969 Ry

     iteration # 82     ecut=    35.00 Ry     beta= 0.50
     Davidson diagonalization with overlap
     ethr =  6.60E-10,  avg # of iterations =  4.1

     total cpu time spent up to now is      259.1 secs

     total energy              =    -421.78413174 Ry
     estimated scf accuracy    <       0.00000408 Ry

     iteration # 83     ecut=    35.00 Ry     beta= 0.50
     Davidson diagonalization with overlap
     ethr =  6.60E-10,  avg # of iterations =  4.8

     total cpu time spent up to now is      263.4 secs

     total energy              =    -421.78413205 Ry
     estimated scf accuracy    <       0.00000016 Ry

     iteration # 84     ecut=    35.00 Ry     beta= 0.50
     Davidson diagonalization with overlap
     ethr =  5.85E-10,  avg # of iterations =  2.0

     total cpu time spent up to now is      266.2 secs

     End of self-consistent calculation

          k = 0.0000 0.0000 0.0000 (  1067 PWs)   bands (ev):

   -16.7277 -16.7269 -16.7243 -16.6908 -16.6896 -16.4824 -16.4818 -16.4795
   -16.4673 -16.4660  -4.6377   7.9611   8.1673   8.1732

          k = 0.1414 0.1414-0.1414 (  1065 PWs)   bands (ev):

   -16.7419 -16.7392 -16.7217 -16.6681 -16.6670 -16.5010 -16.5009 -16.4889
   -16.4511 -16.4497  -4.1582   4.2918   7.4938   7.5013

          k = 0.2828 0.2828-0.2828 (  1065 PWs)   bands (ev):

   -16.7514 -16.7483 -16.7113 -16.6502 -16.6486 -16.5142 -16.5129 -16.5000
   -16.4425 -16.4398  -2.9306   1.1408   6.8498   6.8572

          k = 0.2828 0.0000 0.0000 (  1054 PWs)   bands (ev):

   -16.7397 -16.7396 -16.7342 -16.6672 -16.6408 -16.5451 -16.4866 -16.4613
   -16.4608 -16.4510  -3.9913   4.2829   6.5622   6.5625

          k = 0.4243 0.1414-0.1414 (  1078 PWs)   bands (ev):

   -16.7626 -16.7515 -16.7074 -16.6412 -16.6139 -16.5708 -16.5144 -16.4889
   -16.4424 -16.4279  -2.9421   1.8006   5.2543   5.9963

          k =-0.1414-0.4243 0.4243 (  1073 PWs)   bands (ev):

   -16.7707 -16.7586 -16.6824 -16.6300 -16.6207 -16.5474 -16.5401 -16.5159
   -16.4310 -16.4194  -2.1796   0.5727   4.4493   6.2629

          k = 0.0000-0.2828 0.2828 (  1073 PWs)   bands (ev):

   -16.7570 -16.7545 -16.6996 -16.6578 -16.6343 -16.5346 -16.5162 -16.4958
   -16.4406 -16.4332  -3.3925   2.6039   5.0174   7.1704

          k = 0.5657 0.0000 0.0000 (  1082 PWs)   bands (ev):

   -16.7580 -16.7578 -16.7063 -16.6346 -16.6103 -16.5591 -16.5413 -16.4855
   -16.4319 -16.4317  -2.1116   0.7801   5.2673   5.2674

          k = 0.0000-0.5657 0.5657 (  1073 PWs)   bands (ev):

   -16.7747 -16.7611 -16.6728 -16.6317 -16.5831 -16.5710 -16.5582 -16.5193
   -16.4264 -16.4141  -1.0509  -0.3934   4.0359   5.3823

          k =-0.1414-0.4243 0.7071 (  1068 PWs)   bands (ev):

   -16.7742 -16.7660 -16.6667 -16.6127 -16.6026 -16.5802 -16.5489 -16.5247
   -16.4197 -16.4179  -1.7426   0.4079   4.0892   5.0688

          k =-0.1414-0.1414-0.1414 (  1065 PWs)   bands (ev):

   -16.7419 -16.7392 -16.7217 -16.6681 -16.6670 -16.5010 -16.5009 -16.4888
   -16.4511 -16.4497  -4.1582   4.2919   7.4937   7.5013

          k =-0.1414 0.1414 0.1414 (  1065 PWs)   bands (ev):

   -16.7422 -16.7404 -16.7194 -16.6685 -16.6676 -16.5020 -16.5010 -16.4870
   -16.4515 -16.4499  -4.1586   4.2980   7.4901   7.4989

          k = 0.1414-0.1414 0.1414 (  1065 PWs)   bands (ev):

   -16.7422 -16.7404 -16.7193 -16.6685 -16.6676 -16.5020 -16.5010 -16.4870
   -16.4515 -16.4499  -4.1586   4.2980   7.4901   7.4989

          k =-0.2828-0.2828-0.2828 (  1065 PWs)   bands (ev):

   -16.7514 -16.7483 -16.7113 -16.6502 -16.6486 -16.5142 -16.5129 -16.5000
   -16.4426 -16.4398  -2.9307   1.1409   6.8497   6.8572

          k =-0.2828 0.2828 0.2828 (  1065 PWs)   bands (ev):

   -16.7515 -16.7494 -16.7090 -16.6505 -16.6499 -16.5145 -16.5137 -16.4982
   -16.4424 -16.4404  -2.9331   1.1488   6.8469   6.8555

          k = 0.2828-0.2828 0.2828 (  1065 PWs)   bands (ev):

   -16.7515 -16.7494 -16.7090 -16.6505 -16.6499 -16.5145 -16.5137 -16.4982
   -16.4424 -16.4404  -2.9331   1.1489   6.8469   6.8555

          k = 0.0000-0.2828 0.0000 (  1054 PWs)   bands (ev):

   -16.7397 -16.7395 -16.7342 -16.6672 -16.6408 -16.5451 -16.4866 -16.4613
   -16.4608 -16.4510  -3.9913   4.2829   6.5622   6.5625

          k = 0.0000 0.0000-0.2828 (  1054 PWs)   bands (ev):

   -16.7406 -16.7373 -16.7350 -16.6682 -16.6405 -16.5452 -16.4875 -16.4620
   -16.4591 -16.4510  -3.9913   4.2832   6.5576   6.5662

          k =-0.4243-0.1414-0.1414 (  1078 PWs)   bands (ev):

   -16.7625 -16.7515 -16.7074 -16.6412 -16.6139 -16.5708 -16.5144 -16.4889
   -16.4424 -16.4279  -2.9421   1.8007   5.2543   5.9962

          k =-0.4243 0.1414 0.1414 (  1078 PWs)   bands (ev):

   -16.7637 -16.7511 -16.7054 -16.6418 -16.6147 -16.5715 -16.5148 -16.4871
   -16.4418 -16.4290  -2.9436   1.8076   5.2480   5.9969

          k = 0.4243-0.1414 0.1414 (  1078 PWs)   bands (ev):

   -16.7638 -16.7511 -16.7053 -16.6418 -16.6147 -16.5715 -16.5148 -16.4871
   -16.4417 -16.4291  -2.9436   1.8076   5.2479   5.9970

          k =-0.1414-0.4243 0.1414 (  1078 PWs)   bands (ev):

   -16.7626 -16.7515 -16.7074 -16.6412 -16.6139 -16.5708 -16.5144 -16.4889
   -16.4424 -16.4279  -2.9421   1.8006   5.2543   5.9963

          k = 0.1414-0.1414-0.4243 (  1078 PWs)   bands (ev):

   -16.7615 -16.7526 -16.7065 -16.6425 -16.6138 -16.5704 -16.5155 -16.4880
   -16.4431 -16.4270  -2.9432   1.8058   5.2541   5.9921

          k = 0.1414-0.1414 0.4243 (  1078 PWs)   bands (ev):

   -16.7615 -16.7526 -16.7065 -16.6425 -16.6138 -16.5704 -16.5155 -16.4880
   -16.4431 -16.4270  -2.9432   1.8058   5.2541   5.9921

          k =-0.1414-0.1414-0.4243 (  1078 PWs)   bands (ev):

   -16.7644 -16.7492 -16.7065 -16.6424 -16.6139 -16.5716 -16.5155 -16.4875
   -16.4402 -16.4296  -2.9424   1.8026   5.2480   6.0002

          k = 0.1414 0.1414-0.4243 (  1078 PWs)   bands (ev):

   -16.7644 -16.7493 -16.7065 -16.6424 -16.6139 -16.5716 -16.5155 -16.4875
   -16.4402 -16.4296  -2.9424   1.8025   5.2481   6.0002

          k =-0.1414 0.4243 0.1414 (  1078 PWs)   bands (ev):

   -16.7638 -16.7511 -16.7053 -16.6418 -16.6147 -16.5715 -16.5148 -16.4871
   -16.4417 -16.4290  -2.9436   1.8076   5.2479   5.9970

          k =-0.1414-0.4243-0.1414 (  1078 PWs)   bands (ev):

   -16.7625 -16.7515 -16.7074 -16.6412 -16.6139 -16.5708 -16.5144 -16.4889
   -16.4424 -16.4278  -2.9421   1.8007   5.2543   5.9962

          k = 0.1414-0.4243 0.1414 (  1078 PWs)   bands (ev):

   -16.7637 -16.7511 -16.7054 -16.6418 -16.6147 -16.5715 -16.5148 -16.4871
   -16.4418 -16.4290  -2.9436   1.8076   5.2480   5.9969

          k = 0.1414 0.4243 0.4243 (  1073 PWs)   bands (ev):

   -16.7707 -16.7586 -16.6824 -16.6300 -16.6207 -16.5474 -16.5401 -16.5160
   -16.4311 -16.4194  -2.1796   0.5728   4.4492   6.2629

          k = 0.1414-0.4243-0.4243 (  1073 PWs)   bands (ev):

   -16.7713 -16.7583 -16.6812 -16.6306 -16.6214 -16.5477 -16.5405 -16.5149
   -16.4306 -16.4200  -2.1827   0.5804   4.4446   6.2636

          k =-0.1414 0.4243-0.4243 (  1073 PWs)   bands (ev):

   -16.7713 -16.7583 -16.6811 -16.6306 -16.6214 -16.5477 -16.5405 -16.5149
   -16.4306 -16.4200  -2.1827   0.5804   4.4445   6.2637

          k = 0.4243 0.1414-0.4243 (  1073 PWs)   bands (ev):

   -16.7707 -16.7586 -16.6824 -16.6300 -16.6207 -16.5474 -16.5401 -16.5159
   -16.4310 -16.4194  -2.1796   0.5727   4.4492   6.2629

          k =-0.4243 0.4243 0.1414 (  1073 PWs)   bands (ev):

   -16.7697 -16.7598 -16.6821 -16.6290 -16.6221 -16.5457 -16.5413 -16.5163
   -16.4317 -16.4186  -2.1835   0.5816   4.4486   6.2584

          k =-0.4243 0.4243-0.1414 (  1073 PWs)   bands (ev):

   -16.7697 -16.7598 -16.6821 -16.6290 -16.6221 -16.5457 -16.5413 -16.5163
   -16.4317 -16.4186  -2.1835   0.5816   4.4486   6.2584

          k = 0.4243 0.4243 0.1414 (  1073 PWs)   bands (ev):

   -16.7724 -16.7566 -16.6819 -16.6298 -16.6218 -16.5487 -16.5411 -16.5139
   -16.4291 -16.4212  -2.1789   0.5716   4.4453   6.2673

          k =-0.4243-0.4243 0.1414 (  1073 PWs)   bands (ev):

   -16.7724 -16.7566 -16.6819 -16.6298 -16.6218 -16.5487 -16.5411 -16.5139
   -16.4291 -16.4212  -2.1788   0.5715   4.4454   6.2673

          k = 0.4243-0.1414-0.4243 (  1073 PWs)   bands (ev):

   -16.7713 -16.7583 -16.6811 -16.6306 -16.6214 -16.5477 -16.5405 -16.5149
   -16.4306 -16.4200  -2.1827   0.5804   4.4445   6.2637

          k = 0.4243 0.1414 0.4243 (  1073 PWs)   bands (ev):

   -16.7707 -16.7586 -16.6824 -16.6300 -16.6207 -16.5474 -16.5401 -16.5160
   -16.4311 -16.4194  -2.1796   0.5728   4.4492   6.2629

          k =-0.4243 0.1414-0.4243 (  1073 PWs)   bands (ev):

   -16.7713 -16.7583 -16.6812 -16.6306 -16.6214 -16.5477 -16.5405 -16.5149
   -16.4306 -16.4200  -2.1827   0.5804   4.4446   6.2636

          k =-0.0000 0.2828 0.2828 (  1073 PWs)   bands (ev):

   -16.7570 -16.7545 -16.6996 -16.6578 -16.6343 -16.5346 -16.5162 -16.4958
   -16.4406 -16.4332  -3.3925   2.6040   5.0174   7.1703

          k = 0.2828-0.0000-0.2828 (  1073 PWs)   bands (ev):

   -16.7570 -16.7545 -16.6996 -16.6578 -16.6343 -16.5346 -16.5162 -16.4958
   -16.4406 -16.4332  -3.3925   2.6039   5.0174   7.1704

          k =-0.2828 0.2828-0.0000 (  1073 PWs)   bands (ev):

   -16.7573 -16.7550 -16.6980 -16.6577 -16.6353 -16.5355 -16.5163 -16.4941
   -16.4399 -16.4343  -3.3933   2.6092   5.0174   7.1644

          k = 0.2828 0.2828-0.0000 (  1073 PWs)   bands (ev):

   -16.7568 -16.7544 -16.7011 -16.6561 -16.6348 -16.5348 -16.5159 -16.4957
   -16.4418 -16.4322  -3.3917   2.5987   5.0177   7.1753

          k = 0.2828-0.0000 0.2828 (  1073 PWs)   bands (ev):

   -16.7570 -16.7545 -16.6996 -16.6578 -16.6343 -16.5346 -16.5162 -16.4958
   -16.4406 -16.4332  -3.3925   2.6040   5.0174   7.1703

          k = 0.0000-0.5657 0.0000 (  1082 PWs)   bands (ev):

   -16.7580 -16.7578 -16.7063 -16.6346 -16.6103 -16.5590 -16.5414 -16.4855
   -16.4319 -16.4317  -2.1116   0.7801   5.2673   5.2674

          k = 0.0000 0.0000-0.5657 (  1082 PWs)   bands (ev):

   -16.7591 -16.7557 -16.7066 -16.6347 -16.6113 -16.5589 -16.5423 -16.4853
   -16.4328 -16.4299  -2.1116   0.7802   5.2633   5.2705

          k = 0.0000 0.5657 0.5657 (  1073 PWs)   bands (ev):

   -16.7747 -16.7611 -16.6728 -16.6317 -16.5831 -16.5710 -16.5582 -16.5193
   -16.4264 -16.4141  -1.0510  -0.3933   4.0359   5.3823

          k = 0.5657 0.0000-0.5657 (  1073 PWs)   bands (ev):

   -16.7747 -16.7611 -16.6728 -16.6317 -16.5831 -16.5710 -16.5582 -16.5193
   -16.4264 -16.4141  -1.0509  -0.3934   4.0359   5.3823

          k =-0.5657 0.5657 0.0000 (  1073 PWs)   bands (ev):

   -16.7729 -16.7624 -16.6744 -16.6300 -16.5841 -16.5719 -16.5562 -16.5207
   -16.4274 -16.4125  -1.0556  -0.3879   4.0390   5.3782

          k = 0.5657 0.5657 0.0000 (  1073 PWs)   bands (ev):

   -16.7760 -16.7591 -16.6715 -16.6332 -16.5840 -16.5719 -16.5594 -16.5174
   -16.4245 -16.4154  -1.0462  -0.3987   4.0326   5.3856

          k = 0.5657 0.0000 0.5657 (  1073 PWs)   bands (ev):

   -16.7747 -16.7611 -16.6728 -16.6317 -16.5831 -16.5710 -16.5582 -16.5193
   -16.4264 -16.4141  -1.0510  -0.3933   4.0360   5.3823

          k = 0.1414-0.4243-0.7071 (  1068 PWs)   bands (ev):

   -16.7717 -16.7689 -16.6658 -16.6132 -16.6030 -16.5803 -16.5480 -16.5250
   -16.4223 -16.4155  -1.7471   0.4167   4.0919   5.0612

          k = 0.4243 0.1414-0.7071 (  1068 PWs)   bands (ev):

   -16.7742 -16.7660 -16.6667 -16.6127 -16.6026 -16.5802 -16.5489 -16.5247
   -16.4197 -16.4179  -1.7426   0.4079   4.0892   5.0688

          k =-0.7071 0.4243 0.1414 (  1068 PWs)   bands (ev):

   -16.7731 -16.7671 -16.6661 -16.6139 -16.6025 -16.5798 -16.5492 -16.5246
   -16.4214 -16.4161  -1.7448   0.4124   4.0904   5.0650

          k = 0.1414-0.7071 0.4243 (  1068 PWs)   bands (ev):

   -16.7730 -16.7678 -16.6657 -16.6139 -16.6023 -16.5795 -16.5495 -16.5241
   -16.4214 -16.4166  -1.7448   0.4123   4.0906   5.0652

          k =-0.4243 0.7071-0.1414 (  1068 PWs)   bands (ev):

   -16.7731 -16.7671 -16.6661 -16.6139 -16.6025 -16.5798 -16.5492 -16.5246
   -16.4214 -16.4161  -1.7448   0.4124   4.0904   5.0650

          k =-0.4243-0.7071 0.1414 (  1068 PWs)   bands (ev):

   -16.7731 -16.7671 -16.6661 -16.6139 -16.6025 -16.5798 -16.5492 -16.5246
   -16.4214 -16.4161  -1.7448   0.4123   4.0904   5.0650

          k = 0.7071-0.1414-0.4243 (  1068 PWs)   bands (ev):

   -16.7729 -16.7678 -16.6657 -16.6139 -16.6023 -16.5795 -16.5495 -16.5241
   -16.4214 -16.4166  -1.7448   0.4123   4.0906   5.0652

          k =-0.7071 0.1414-0.4243 (  1068 PWs)   bands (ev):

   -16.7730 -16.7678 -16.6657 -16.6139 -16.6023 -16.5795 -16.5495 -16.5241
   -16.4214 -16.4166  -1.7448   0.4122   4.0906   5.0652

          k = 0.4243-0.1414-0.7071 (  1068 PWs)   bands (ev):

   -16.7717 -16.7689 -16.6658 -16.6132 -16.6030 -16.5803 -16.5480 -16.5250
   -16.4223 -16.4155  -1.7471   0.4167   4.0919   5.0612

          k =-0.7071-0.4243 0.1414 (  1068 PWs)   bands (ev):

   -16.7731 -16.7671 -16.6661 -16.6139 -16.6025 -16.5798 -16.5492 -16.5246
   -16.4214 -16.4161  -1.7448   0.4123   4.0904   5.0650

          k =-0.1414-0.7071 0.4243 (  1068 PWs)   bands (ev):

   -16.7730 -16.7678 -16.6657 -16.6139 -16.6023 -16.5795 -16.5495 -16.5241
   -16.4214 -16.4167  -1.7448   0.4122   4.0906   5.0652

     highest occupied level (ev):     8.1732

!    total energy              =    -421.78413206 Ry
     estimated scf accuracy    <          4.5E-09 Ry

     The total energy is the sum of the following terms:
     one-electron contribution =    -275.51547383 Ry
     hartree contribution      =     162.78015887 Ry
     xc contribution           =    -111.70062316 Ry
     ewald contribution        =    -197.34819394 Ry

     convergence has been achieved in  84 iterations

     Forces acting on atoms (cartesian axes, Ry/au):

     atom    1 type  1   force =    -0.00000687    0.00000496   -0.00264947
     atom    2 type  1   force =     0.00000687   -0.00000496    0.00264947
     The non-local contrib.  to forces
     atom    1 type  1   force =    -0.00006309   -0.00005325    0.00685097
     atom    2 type  1   force =     0.00006160    0.00005293   -0.00685496
     The ionic contribution  to forces
     atom    1 type  1   force =     0.00001545    0.00001545    0.00001545
     atom    2 type  1   force =    -0.00001545   -0.00001545   -0.00001545
     The local contribution  to forces
     atom    1 type  1   force =     0.00007580    0.00006079   -0.00969901
     atom    2 type  1   force =    -0.00007375   -0.00006040    0.00970522
     The core correction contribution to forces
     atom    1 type  1   force =     0.00000192    0.00000165   -0.00020409
     atom    2 type  1   force =    -0.00000183   -0.00000162    0.00020429
     The Hubbard contrib.    to forces
     atom    1 type  1   force =     0.00000000    0.00000000    0.00000000
     atom    2 type  1   force =     0.00000000    0.00000000    0.00000000
     The SCF correction term to forces
     atom    1 type  1   force =    -0.00003956   -0.00002059    0.00038040
     atom    2 type  1   force =     0.00003370    0.00001866   -0.00039643

     Total force =     0.003747     Total SCF correction =     0.000553
     SCF correction compared to forces is large: reduce conv_thr to get better values


     Computing stress (Cartesian axis) and pressure

          total   stress  (Ry/bohr**3)                   (kbar)     P=      -19.39
  -0.00013682  -0.00000265   0.00000002          -20.13       -0.39        0.00
  -0.00000265  -0.00013669   0.00000000           -0.39      -20.11        0.00
   0.00000002   0.00000000  -0.00012200            0.00        0.00      -17.95


     BFGS Geometry Optimization
     Energy error            =      0.0E+00 Ry
     Gradient error          =      2.6E-03 Ry/Bohr
     Cell gradient error     =      2.0E+01 kbar

     number of scf cycles    =   1
     number of bfgs steps    =   0

     enthalpy           new  =    -421.7841320626 Ry

     new trust radius        =       0.0119738158 bohr
     new conv_thr            =       0.0000001000 Ry

     new unit-cell volume =    303.24217 a.u.^3 (    44.93585 Ang^3 )
     density =      5.36787 g/cm^3

CELL_PARAMETERS (angstrom)
  -0.000186007   2.821422431   2.822462420
   2.821414882  -0.000187345   2.822463759
   2.821226090   2.821234978   0.000001447

ATOMIC_POSITIONS (angstrom)
Ge           -0.0000036244        0.0000026154       -0.0013977655
Ge            1.4106188855        1.4106164203        1.4126311923



     Writing config-only to output data dir /home/gridsan/epan1/labutil/lab2_samples/problem7/Lab2/Problem1/5.6621939/pwscf.save/
     NEW-OLD atomic charge density approx. for the potential

     Check: negative core charge=   -0.000148
     extrapolated charge   27.72132, renormalised to   28.00000

     total cpu time spent up to now is      272.0 secs

     Self-consistent Calculation

     iteration #  1     ecut=    35.00 Ry     beta= 0.50
     Davidson diagonalization with overlap
     ethr =  1.00E-06,  avg # of iterations =  6.3

     total cpu time spent up to now is      278.5 secs

     total energy              =    -421.75925639 Ry
     estimated scf accuracy    <       0.01511760 Ry

     iteration #  2     ecut=    35.00 Ry     beta= 0.50
     Davidson diagonalization with overlap
     ethr =  5.40E-05,  avg # of iterations =  3.3

     total cpu time spent up to now is      282.8 secs

     total energy              =    -421.78545866 Ry
     estimated scf accuracy    <       0.01362745 Ry

     iteration #  3     ecut=    35.00 Ry     beta= 0.50
     Davidson diagonalization with overlap
     ethr =  4.87E-05,  avg # of iterations =  1.0

     total cpu time spent up to now is      285.4 secs

     total energy              =    -421.78518720 Ry
     estimated scf accuracy    <       0.00391092 Ry

     iteration #  4     ecut=    35.00 Ry     beta= 0.50
     Davidson diagonalization with overlap
     ethr =  1.40E-05,  avg # of iterations =  1.0

     total cpu time spent up to now is      288.0 secs

     total energy              =    -421.78462099 Ry
     estimated scf accuracy    <       0.00185775 Ry

     iteration #  5     ecut=    35.00 Ry     beta= 0.50
     Davidson diagonalization with overlap
     ethr =  6.63E-06,  avg # of iterations =  1.1

     total cpu time spent up to now is      290.7 secs

     total energy              =    -421.78435068 Ry
     estimated scf accuracy    <       0.00058090 Ry

     iteration #  6     ecut=    35.00 Ry     beta= 0.50
     Davidson diagonalization with overlap
     ethr =  2.07E-06,  avg # of iterations =  2.3

     total cpu time spent up to now is      294.3 secs

     total energy              =    -421.78444366 Ry
     estimated scf accuracy    <       0.00002208 Ry

     iteration #  7     ecut=    35.00 Ry     beta= 0.50
     Davidson diagonalization with overlap
     ethr =  7.88E-08,  avg # of iterations =  2.4

     total cpu time spent up to now is      298.0 secs

     total energy              =    -421.78445820 Ry
     estimated scf accuracy    <       0.00000058 Ry

     iteration #  8     ecut=    35.00 Ry     beta= 0.50
     Davidson diagonalization with overlap
     ethr =  2.07E-09,  avg # of iterations =  3.6

     total cpu time spent up to now is      302.7 secs

     total energy              =    -421.78444893 Ry
     estimated scf accuracy    <       0.00002287 Ry

     iteration #  9     ecut=    35.00 Ry     beta= 0.50
     Davidson diagonalization with overlap
     ethr =  2.07E-09,  avg # of iterations =  4.3

     total cpu time spent up to now is      307.4 secs

     End of self-consistent calculation

          k = 0.0000 0.0000 0.0000 (  1067 PWs)   bands (ev):

   -16.6078 -16.6076 -16.6057 -16.5706 -16.5694 -16.3568 -16.3562 -16.3535
   -16.3409 -16.3396  -4.5824   8.1823   8.2917   8.2962

          k = 0.1419 0.1419-0.1419 (  1065 PWs)   bands (ev):

   -16.6225 -16.6208 -16.6017 -16.5476 -16.5464 -16.3755 -16.3754 -16.3637
   -16.3246 -16.3229  -4.0985   4.4264   7.6154   7.6200

          k = 0.2838 0.2838-0.2837 (  1065 PWs)   bands (ev):

   -16.6320 -16.6300 -16.5907 -16.5293 -16.5275 -16.3888 -16.3877 -16.3755
   -16.3160 -16.3128  -2.8584   1.2412   6.9668   6.9701

          k = 0.2838 0.0000-0.0000 (  1054 PWs)   bands (ev):

   -16.6206 -16.6202 -16.6156 -16.5465 -16.5193 -16.4211 -16.3608 -16.3351
   -16.3345 -16.3242  -3.9296   4.4274   6.6721   6.6731

          k = 0.4257 0.1419-0.1419 (  1078 PWs)   bands (ev):

   -16.6442 -16.6325 -16.5870 -16.5198 -16.4917 -16.4475 -16.3891 -16.3636
   -16.3157 -16.3004  -2.8705   1.9195   5.3502   6.1018

          k =-0.1419-0.4257 0.4256 (  1073 PWs)   bands (ev):

   -16.6525 -16.6399 -16.5614 -16.5083 -16.4987 -16.4237 -16.4157 -16.3912
   -16.3039 -16.2918  -2.0992   0.6750   4.5392   6.3720

          k =-0.0000-0.2838 0.2837 (  1073 PWs)   bands (ev):

   -16.6379 -16.6364 -16.5796 -16.5368 -16.5125 -16.4101 -16.3915 -16.3701
   -16.3137 -16.3058  -3.3248   2.7249   5.1121   7.2892

          k = 0.5676 0.0000-0.0000 (  1082 PWs)   bands (ev):

   -16.6392 -16.6390 -16.5867 -16.5131 -16.4878 -16.4353 -16.4169 -16.3597
   -16.3047 -16.3044  -2.0312   0.8902   5.3641   5.3644

          k =-0.0000-0.5676 0.5674 (  1073 PWs)   bands (ev):

   -16.6564 -16.6425 -16.5523 -16.5100 -16.4599 -16.4475 -16.4344 -16.3945
   -16.2990 -16.2864  -0.9572  -0.2963   4.1172   5.4806

          k =-0.1419-0.4257 0.7093 (  1068 PWs)   bands (ev):

   -16.6553 -16.6483 -16.5452 -16.4904 -16.4804 -16.4571 -16.4250 -16.4001
   -16.2919 -16.2907  -1.6604   0.5207   4.1725   5.1571

          k =-0.1419-0.1419-0.1419 (  1065 PWs)   bands (ev):

   -16.6225 -16.6208 -16.6016 -16.5476 -16.5464 -16.3755 -16.3754 -16.3636
   -16.3246 -16.3229  -4.0985   4.4265   7.6154   7.6199

          k =-0.1419 0.1419 0.1419 (  1065 PWs)   bands (ev):

   -16.6228 -16.6218 -16.6005 -16.5476 -16.5467 -16.3770 -16.3757 -16.3611
   -16.3248 -16.3229  -4.0983   4.4217   7.6153   7.6235

          k = 0.1419-0.1419 0.1419 (  1065 PWs)   bands (ev):

   -16.6228 -16.6218 -16.6005 -16.5476 -16.5467 -16.3770 -16.3757 -16.3611
   -16.3248 -16.3229  -4.0983   4.4217   7.6153   7.6235

          k =-0.2838-0.2838-0.2837 (  1065 PWs)   bands (ev):

   -16.6321 -16.6300 -16.5907 -16.5293 -16.5275 -16.3888 -16.3877 -16.3755
   -16.3160 -16.3127  -2.8585   1.2414   6.9668   6.9700

          k =-0.2838 0.2838 0.2837 (  1065 PWs)   bands (ev):

   -16.6323 -16.6311 -16.5903 -16.5290 -16.5286 -16.3896 -16.3886 -16.3723
   -16.3155 -16.3132  -2.8571   1.2357   6.9645   6.9731

          k = 0.2838-0.2838 0.2837 (  1065 PWs)   bands (ev):

   -16.6323 -16.6311 -16.5903 -16.5290 -16.5285 -16.3896 -16.3886 -16.3723
   -16.3155 -16.3132  -2.8571   1.2356   6.9646   6.9731

          k =-0.0000-0.2838 0.0000 (  1054 PWs)   bands (ev):

   -16.6206 -16.6202 -16.6156 -16.5465 -16.5193 -16.4211 -16.3608 -16.3351
   -16.3345 -16.3242  -3.9296   4.4274   6.6721   6.6731

          k = 0.0000 0.0000-0.2837 (  1054 PWs)   bands (ev):

   -16.6211 -16.6189 -16.6161 -16.5474 -16.5189 -16.4214 -16.3617 -16.3359
   -16.3326 -16.3241  -3.9300   4.4257   6.6718   6.6762

          k =-0.4257-0.1419-0.1419 (  1078 PWs)   bands (ev):

   -16.6442 -16.6325 -16.5869 -16.5198 -16.4917 -16.4475 -16.3891 -16.3636
   -16.3157 -16.3004  -2.8705   1.9196   5.3502   6.1017

          k =-0.4257 0.1419 0.1419 (  1078 PWs)   bands (ev):

   -16.6451 -16.6325 -16.5863 -16.5202 -16.4923 -16.4480 -16.3897 -16.3611
   -16.3147 -16.3017  -2.8697   1.9145   5.3553   6.1008

          k = 0.4257-0.1419 0.1419 (  1078 PWs)   bands (ev):

   -16.6451 -16.6324 -16.5862 -16.5202 -16.4923 -16.4480 -16.3897 -16.3611
   -16.3147 -16.3017  -2.8697   1.9145   5.3552   6.1009

          k =-0.1419-0.4257 0.1419 (  1078 PWs)   bands (ev):

   -16.6442 -16.6325 -16.5870 -16.5198 -16.4917 -16.4475 -16.3891 -16.3636
   -16.3157 -16.3004  -2.8705   1.9195   5.3502   6.1018

          k = 0.1419-0.1419-0.4256 (  1078 PWs)   bands (ev):

   -16.6437 -16.6332 -16.5870 -16.5209 -16.4914 -16.4471 -16.3905 -16.3621
   -16.3162 -16.2993  -2.8705   1.9152   5.3510   6.1051

          k = 0.1419-0.1419 0.4256 (  1078 PWs)   bands (ev):

   -16.6437 -16.6332 -16.5870 -16.5209 -16.4914 -16.4471 -16.3905 -16.3621
   -16.3162 -16.2993  -2.8705   1.9152   5.3510   6.1051

          k =-0.1419-0.1419-0.4256 (  1078 PWs)   bands (ev):

   -16.6454 -16.6310 -16.5866 -16.5210 -16.4916 -16.4484 -16.3903 -16.3618
   -16.3131 -16.3026  -2.8710   1.9179   5.3531   6.1014

          k = 0.1419 0.1419-0.4256 (  1078 PWs)   bands (ev):

   -16.6453 -16.6310 -16.5866 -16.5210 -16.4916 -16.4484 -16.3902 -16.3618
   -16.3131 -16.3026  -2.8710   1.9178   5.3532   6.1014

          k =-0.1419 0.4257 0.1419 (  1078 PWs)   bands (ev):

   -16.6451 -16.6324 -16.5862 -16.5202 -16.4923 -16.4480 -16.3897 -16.3611
   -16.3147 -16.3017  -2.8697   1.9145   5.3552   6.1009

          k =-0.1419-0.4257-0.1419 (  1078 PWs)   bands (ev):

   -16.6442 -16.6325 -16.5869 -16.5198 -16.4917 -16.4475 -16.3891 -16.3636
   -16.3157 -16.3004  -2.8705   1.9196   5.3501   6.1018

          k = 0.1419-0.4257 0.1419 (  1078 PWs)   bands (ev):

   -16.6451 -16.6324 -16.5863 -16.5202 -16.4923 -16.4480 -16.3897 -16.3611
   -16.3147 -16.3017  -2.8697   1.9144   5.3553   6.1008

          k = 0.1419 0.4257 0.4256 (  1073 PWs)   bands (ev):

   -16.6525 -16.6400 -16.5614 -16.5083 -16.4987 -16.4237 -16.4157 -16.3912
   -16.3040 -16.2918  -2.0993   0.6752   4.5392   6.3719

          k = 0.1419-0.4257-0.4256 (  1073 PWs)   bands (ev):

   -16.6530 -16.6399 -16.5612 -16.5088 -16.4993 -16.4233 -16.4161 -16.3898
   -16.3033 -16.2923  -2.0975   0.6699   4.5428   6.3709

          k =-0.1419 0.4257-0.4256 (  1073 PWs)   bands (ev):

   -16.6530 -16.6399 -16.5612 -16.5088 -16.4993 -16.4234 -16.4161 -16.3898
   -16.3032 -16.2923  -2.0974   0.6698   4.5427   6.3710

          k = 0.4257 0.1419-0.4256 (  1073 PWs)   bands (ev):

   -16.6525 -16.6399 -16.5614 -16.5082 -16.4987 -16.4237 -16.4157 -16.3912
   -16.3039 -16.2918  -2.0992   0.6750   4.5392   6.3720

          k =-0.4257 0.4257 0.1419 (  1073 PWs)   bands (ev):

   -16.6522 -16.6408 -16.5623 -16.5074 -16.4997 -16.4212 -16.4173 -16.3911
   -16.3045 -16.2906  -2.0970   0.6682   4.5389   6.3760

          k =-0.4257 0.4257-0.1419 (  1073 PWs)   bands (ev):

   -16.6522 -16.6408 -16.5623 -16.5074 -16.4997 -16.4212 -16.4173 -16.3911
   -16.3045 -16.2906  -2.0969   0.6682   4.5389   6.3760

          k = 0.4257 0.4257 0.1419 (  1073 PWs)   bands (ev):

   -16.6534 -16.6386 -16.5608 -16.5077 -16.5001 -16.4253 -16.4163 -16.3889
   -16.3017 -16.2942  -2.0997   0.6756   4.5393   6.3715

          k =-0.4257-0.4257 0.1419 (  1073 PWs)   bands (ev):

   -16.6534 -16.6386 -16.5608 -16.5077 -16.5001 -16.4253 -16.4163 -16.3890
   -16.3017 -16.2941  -2.0997   0.6754   4.5394   6.3715

          k = 0.4257-0.1419-0.4256 (  1073 PWs)   bands (ev):

   -16.6530 -16.6399 -16.5612 -16.5088 -16.4993 -16.4234 -16.4161 -16.3898
   -16.3032 -16.2923  -2.0975   0.6699   4.5427   6.3710

          k = 0.4257 0.1419 0.4256 (  1073 PWs)   bands (ev):

   -16.6525 -16.6400 -16.5614 -16.5082 -16.4987 -16.4237 -16.4157 -16.3912
   -16.3040 -16.2918  -2.0993   0.6752   4.5391   6.3720

          k =-0.4257 0.1419-0.4256 (  1073 PWs)   bands (ev):

   -16.6530 -16.6399 -16.5612 -16.5088 -16.4993 -16.4233 -16.4161 -16.3898
   -16.3032 -16.2923  -2.0975   0.6698   4.5428   6.3709

          k = 0.0000 0.2838 0.2837 (  1073 PWs)   bands (ev):

   -16.6379 -16.6364 -16.5796 -16.5368 -16.5125 -16.4101 -16.3915 -16.3701
   -16.3137 -16.3058  -3.3248   2.7250   5.1121   7.2891

          k = 0.2838 0.0000-0.2837 (  1073 PWs)   bands (ev):

   -16.6379 -16.6364 -16.5796 -16.5368 -16.5125 -16.4101 -16.3915 -16.3701
   -16.3137 -16.3058  -3.3248   2.7249   5.1121   7.2892

          k =-0.2838 0.2838 0.0000 (  1073 PWs)   bands (ev):

   -16.6383 -16.6368 -16.5790 -16.5366 -16.5131 -16.4115 -16.3912 -16.3681
   -16.3127 -16.3070  -3.3241   2.7203   5.1112   7.2950

          k = 0.2838 0.2838-0.0000 (  1073 PWs)   bands (ev):

   -16.6376 -16.6363 -16.5799 -16.5354 -16.5135 -16.4099 -16.3915 -16.3704
   -16.3152 -16.3049  -3.3249   2.7286   5.1093   7.2877

          k = 0.2838 0.0000 0.2837 (  1073 PWs)   bands (ev):

   -16.6379 -16.6364 -16.5796 -16.5368 -16.5125 -16.4101 -16.3915 -16.3701
   -16.3137 -16.3058  -3.3248   2.7250   5.1121   7.2892

          k =-0.0000-0.5676 0.0000 (  1082 PWs)   bands (ev):

   -16.6392 -16.6390 -16.5867 -16.5131 -16.4878 -16.4353 -16.4169 -16.3597
   -16.3047 -16.3044  -2.0312   0.8902   5.3641   5.3644

          k = 0.0000 0.0000-0.5674 (  1082 PWs)   bands (ev):

   -16.6399 -16.6377 -16.5870 -16.5133 -16.4888 -16.4349 -16.4179 -16.3594
   -16.3057 -16.3024  -2.0324   0.8882   5.3651   5.3677

          k = 0.0000 0.5676 0.5674 (  1073 PWs)   bands (ev):

   -16.6564 -16.6426 -16.5523 -16.5100 -16.4599 -16.4475 -16.4344 -16.3945
   -16.2990 -16.2864  -0.9573  -0.2962   4.1173   5.4805

          k = 0.5676 0.0000-0.5674 (  1073 PWs)   bands (ev):

   -16.6564 -16.6425 -16.5523 -16.5100 -16.4599 -16.4475 -16.4344 -16.3945
   -16.2990 -16.2864  -0.9572  -0.2963   4.1173   5.4806

          k =-0.5676 0.5676 0.0000 (  1073 PWs)   bands (ev):

   -16.6554 -16.6433 -16.5543 -16.5079 -16.4602 -16.4492 -16.4328 -16.3955
   -16.3000 -16.2844  -0.9550  -0.3018   4.1165   5.4843

          k = 0.5677 0.5677-0.0000 (  1073 PWs)   bands (ev):

   -16.6572 -16.6412 -16.5508 -16.5121 -16.4615 -16.4477 -16.4349 -16.3929
   -16.2969 -16.2880  -0.9613  -0.2939   4.1189   5.4814

          k = 0.5676 0.0000 0.5674 (  1073 PWs)   bands (ev):

   -16.6564 -16.6426 -16.5523 -16.5100 -16.4599 -16.4475 -16.4344 -16.3945
   -16.2990 -16.2864  -0.9573  -0.2962   4.1173   5.4806

          k = 0.1419-0.4257-0.7093 (  1068 PWs)   bands (ev):

   -16.6541 -16.6501 -16.5456 -16.4910 -16.4804 -16.4569 -16.4239 -16.4002
   -16.2950 -16.2874  -1.6576   0.5144   4.1729   5.1604

          k = 0.4257 0.1419-0.7093 (  1068 PWs)   bands (ev):

   -16.6553 -16.6483 -16.5452 -16.4904 -16.4804 -16.4571 -16.4250 -16.4001
   -16.2919 -16.2907  -1.6604   0.5207   4.1725   5.1571

          k =-0.7095 0.4257 0.1419 (  1068 PWs)   bands (ev):

   -16.6547 -16.6491 -16.5454 -16.4916 -16.4801 -16.4564 -16.4251 -16.3998
   -16.2940 -16.2882  -1.6598   0.5175   4.1744   5.1579

          k = 0.1419-0.7095 0.4256 (  1068 PWs)   bands (ev):

   -16.6547 -16.6495 -16.5449 -16.4917 -16.4798 -16.4563 -16.4254 -16.3995
   -16.2939 -16.2889  -1.6590   0.5183   4.1738   5.1584

          k =-0.4257 0.7095-0.1419 (  1068 PWs)   bands (ev):

   -16.6547 -16.6491 -16.5454 -16.4916 -16.4801 -16.4564 -16.4251 -16.3998
   -16.2940 -16.2882  -1.6598   0.5175   4.1744   5.1579

          k =-0.4258-0.7096 0.1419 (  1068 PWs)   bands (ev):

   -16.6547 -16.6491 -16.5454 -16.4916 -16.4801 -16.4564 -16.4251 -16.3998
   -16.2940 -16.2882  -1.6597   0.5174   4.1743   5.1579

          k = 0.7095-0.1419-0.4256 (  1068 PWs)   bands (ev):

   -16.6547 -16.6495 -16.5449 -16.4917 -16.4798 -16.4563 -16.4254 -16.3995
   -16.2939 -16.2889  -1.6590   0.5183   4.1738   5.1583

          k =-0.7095 0.1419-0.4256 (  1068 PWs)   bands (ev):

   -16.6547 -16.6494 -16.5449 -16.4917 -16.4798 -16.4563 -16.4254 -16.3995
   -16.2939 -16.2890  -1.6589   0.5182   4.1738   5.1584

          k = 0.4257-0.1419-0.7093 (  1068 PWs)   bands (ev):

   -16.6541 -16.6501 -16.5456 -16.4910 -16.4804 -16.4569 -16.4239 -16.4002
   -16.2950 -16.2874  -1.6576   0.5144   4.1729   5.1604

          k =-0.7096-0.4258 0.1419 (  1068 PWs)   bands (ev):

   -16.6547 -16.6491 -16.5454 -16.4916 -16.4801 -16.4564 -16.4251 -16.3998
   -16.2940 -16.2882  -1.6597   0.5174   4.1743   5.1580

          k =-0.1420-0.7095 0.4256 (  1068 PWs)   bands (ev):

   -16.6547 -16.6494 -16.5449 -16.4916 -16.4798 -16.4563 -16.4254 -16.3995
   -16.2939 -16.2890  -1.6589   0.5182   4.1738   5.1584

     highest occupied level (ev):     8.2962

!    total energy              =    -421.78445360 Ry
     estimated scf accuracy    <       0.00000007 Ry

     The total energy is the sum of the following terms:
     one-electron contribution =    -274.43449475 Ry
     hartree contribution      =     162.36317573 Ry
     xc contribution           =    -111.71240425 Ry
     ewald contribution        =    -198.00073032 Ry

     convergence has been achieved in   9 iterations

     Forces acting on atoms (cartesian axes, Ry/au):

     atom    1 type  1   force =     0.00002438    0.00001956   -0.00170881
     atom    2 type  1   force =    -0.00002438   -0.00001956    0.00170881
     The non-local contrib.  to forces
     atom    1 type  1   force =    -0.00004986   -0.00004418    0.00534975
     atom    2 type  1   force =     0.00004967    0.00004398   -0.00534974
     The ionic contribution  to forces
     atom    1 type  1   force =     0.00009128   -0.00000453    0.02404570
     atom    2 type  1   force =    -0.00009128    0.00000453   -0.02404570
     The local contribution  to forces
     atom    1 type  1   force =    -0.00001866    0.00006645   -0.03084490
     atom    2 type  1   force =     0.00001885   -0.00006626    0.03084489
     The core correction contribution to forces
     atom    1 type  1   force =     0.00000114    0.00000141   -0.00026394
     atom    2 type  1   force =    -0.00000114   -0.00000140    0.00026394
     The Hubbard contrib.    to forces
     atom    1 type  1   force =     0.00000000    0.00000000    0.00000000
     atom    2 type  1   force =     0.00000000    0.00000000    0.00000000
     The SCF correction term to forces
     atom    1 type  1   force =     0.00000049    0.00000042    0.00000459
     atom    2 type  1   force =    -0.00000047   -0.00000041   -0.00000458

     Total force =     0.002417     Total SCF correction =     0.000007


     Computing stress (Cartesian axis) and pressure

          total   stress  (Ry/bohr**3)                   (kbar)     P=      -16.74
  -0.00011805  -0.00000775   0.00000002          -17.37       -1.14        0.00
  -0.00000775  -0.00011795   0.00000000           -1.14      -17.35        0.00
   0.00000002   0.00000000  -0.00010542            0.00        0.00      -15.51

     Energy error            =      3.2E-04 Ry
     Gradient error          =      1.7E-03 Ry/Bohr
     Cell gradient error     =      1.7E+01 kbar

     number of scf cycles    =   2
     number of bfgs steps    =   1

     enthalpy           old  =    -421.7841320626 Ry
     enthalpy           new  =    -421.7844536002 Ry

     CASE: enthalpy          _new < enthalpy          _old


     WARNING: bfgs curvature condition failed, Theta= 0.940
     new trust radius        =       0.0179333879 bohr
     new conv_thr            =       0.0000000017 Ry

     new unit-cell volume =    298.75832 a.u.^3 (    44.27142 Ang^3 )
     density =      5.44843 g/cm^3

CELL_PARAMETERS (angstrom)
  -0.001080188   2.806935638   2.809520447
   2.806917527  -0.001083734   2.809523992
   2.805829035   2.805850689   0.000004759

ATOMIC_POSITIONS (angstrom)
Ge            0.0000163501        0.0000192971       -0.0029971981
Ge            1.4029017549        1.4029078626        1.4077610112



     Writing config-only to output data dir /home/gridsan/epan1/labutil/lab2_samples/problem7/Lab2/Problem1/5.6621939/pwscf.save/
     NEW-OLD atomic charge density approx. for the potential

     Check: negative core charge=   -0.000140
     extrapolated charge   27.57979, renormalised to   28.00000

     total cpu time spent up to now is      313.8 secs

     Self-consistent Calculation

     iteration #  1     ecut=    35.00 Ry     beta= 0.50
     Davidson diagonalization with overlap
     ethr =  1.00E-06,  avg # of iterations =  7.0

     total cpu time spent up to now is      320.9 secs

     total energy              =    -421.72865904 Ry
     estimated scf accuracy    <       0.03357045 Ry

     iteration #  2     ecut=    35.00 Ry     beta= 0.50
     Davidson diagonalization with overlap
     ethr =  1.20E-04,  avg # of iterations =  3.3

     total cpu time spent up to now is      325.2 secs

     total energy              =    -421.78673939 Ry
     estimated scf accuracy    <       0.03020254 Ry

     iteration #  3     ecut=    35.00 Ry     beta= 0.50
     Davidson diagonalization with overlap
     ethr =  1.08E-04,  avg # of iterations =  1.0

     total cpu time spent up to now is      327.9 secs

     total energy              =    -421.78621371 Ry
     estimated scf accuracy    <       0.00858455 Ry

     iteration #  4     ecut=    35.00 Ry     beta= 0.50
     Davidson diagonalization with overlap
     ethr =  3.07E-05,  avg # of iterations =  1.0

     total cpu time spent up to now is      330.7 secs

     total energy              =    -421.78499294 Ry
     estimated scf accuracy    <       0.00411151 Ry

     iteration #  5     ecut=    35.00 Ry     beta= 0.50
     Davidson diagonalization with overlap
     ethr =  1.47E-05,  avg # of iterations =  1.1

     total cpu time spent up to now is      333.4 secs

     total energy              =    -421.78435070 Ry
     estimated scf accuracy    <       0.00133644 Ry

     iteration #  6     ecut=    35.00 Ry     beta= 0.50
     Davidson diagonalization with overlap
     ethr =  4.77E-06,  avg # of iterations =  2.3

     total cpu time spent up to now is      337.1 secs

     total energy              =    -421.78455571 Ry
     estimated scf accuracy    <       0.00004827 Ry

     iteration #  7     ecut=    35.00 Ry     beta= 0.50
     Davidson diagonalization with overlap
     ethr =  1.72E-07,  avg # of iterations =  3.2

     total cpu time spent up to now is      341.3 secs

     total energy              =    -421.78457034 Ry
     estimated scf accuracy    <       0.00004340 Ry

     iteration #  8     ecut=    35.00 Ry     beta= 0.50
     Davidson diagonalization with overlap
     ethr =  1.55E-07,  avg # of iterations =  2.1

     total cpu time spent up to now is      344.9 secs

     total energy              =    -421.78458526 Ry
     estimated scf accuracy    <       0.00002407 Ry

     iteration #  9     ecut=    35.00 Ry     beta= 0.50
     Davidson diagonalization with overlap
     ethr =  8.60E-08,  avg # of iterations =  2.0

     total cpu time spent up to now is      348.5 secs

     total energy              =    -421.78458806 Ry
     estimated scf accuracy    <       0.00000077 Ry

     iteration # 10     ecut=    35.00 Ry     beta= 0.50
     Davidson diagonalization with overlap
     ethr =  2.73E-09,  avg # of iterations =  2.1

     total cpu time spent up to now is      352.2 secs

     total energy              =    -421.78458837 Ry
     estimated scf accuracy    <       0.00000003 Ry

     iteration # 11     ecut=    35.00 Ry     beta= 0.50
     Davidson diagonalization with overlap
     ethr =  9.92E-11,  avg # of iterations =  2.4

     total cpu time spent up to now is      355.4 secs

     total energy              =    -421.78458837 Ry
     estimated scf accuracy    <          7.1E-09 Ry

     iteration # 12     ecut=    35.00 Ry     beta= 0.50
     Davidson diagonalization with overlap
     ethr =  2.52E-11,  avg # of iterations =  2.1

     total cpu time spent up to now is      358.4 secs

     End of self-consistent calculation

          k = 0.0000 0.0000 0.0000 (  1067 PWs)   bands (ev):

   -16.4317 -16.4316 -16.4304 -16.3934 -16.3923 -16.1710 -16.1706 -16.1677
   -16.1542 -16.1527  -4.4989   8.4757   8.4919   8.5176

          k = 0.1427 0.1427-0.1425 (  1065 PWs)   bands (ev):

   -16.4468 -16.4460 -16.4250 -16.3697 -16.3685 -16.1904 -16.1901 -16.1785
   -16.1375 -16.1358  -4.0080   4.6281   7.7909   7.8091

          k = 0.2854 0.2854-0.2850 (  1065 PWs)   bands (ev):

   -16.4563 -16.4555 -16.4133 -16.3508 -16.3489 -16.2038 -16.2030 -16.1913
   -16.1289 -16.1253  -2.7475   1.3900   7.1350   7.1495

          k = 0.2853 0.0001-0.0000 (  1054 PWs)   bands (ev):

   -16.4451 -16.4447 -16.4406 -16.3684 -16.3400 -16.2381 -16.1749 -16.1488
   -16.1480 -16.1368  -3.8366   4.6455   6.8385   6.8414

          k = 0.4280 0.1428-0.1425 (  1078 PWs)   bands (ev):

   -16.4699 -16.4572 -16.4097 -16.3406 -16.3114 -16.2657 -16.2042 -16.1783
   -16.1284 -16.1122  -2.7613   2.0962   5.4983   6.2611

          k =-0.1428-0.4280 0.4275 (  1073 PWs)   bands (ev):

   -16.4783 -16.4650 -16.3832 -16.3287 -16.3186 -16.2410 -16.2321 -16.2069
   -16.1161 -16.1033  -1.9758   0.8264   4.6769   6.5367

          k =-0.0001-0.2853 0.2850 (  1073 PWs)   bands (ev):

   -16.4628 -16.4620 -16.4027 -16.3583 -16.3330 -16.2263 -16.2073 -16.1846
   -16.1261 -16.1177  -3.2225   2.9076   5.2560   7.4696

          k = 0.5706 0.0002-0.0000 (  1082 PWs)   bands (ev):

   -16.4642 -16.4641 -16.4104 -16.3339 -16.3071 -16.2526 -16.2332 -16.1739
   -16.1168 -16.1164  -1.9096   1.0567   5.5110   5.5118

          k =-0.0002-0.5706 0.5700 (  1073 PWs)   bands (ev):

   -16.4823 -16.4678 -16.3746 -16.3305 -16.2780 -16.2652 -16.2516 -16.2103
   -16.1108 -16.0976  -0.8157  -0.1495   4.2408   5.6298

          k =-0.1428-0.4280 0.7125 (  1068 PWs)   bands (ev):

   -16.4804 -16.4747 -16.3664 -16.3098 -16.3000 -16.2754 -16.2421 -16.2160
   -16.1033 -16.1025  -1.5330   0.6867   4.2984   5.2931

          k =-0.1427-0.1427-0.1425 (  1065 PWs)   bands (ev):

   -16.4469 -16.4460 -16.4250 -16.3697 -16.3685 -16.1904 -16.1902 -16.1785
   -16.1375 -16.1357  -4.0080   4.6279   7.7908   7.8093

          k =-0.1426 0.1426 0.1425 (  1065 PWs)   bands (ev):

   -16.4473 -16.4469 -16.4250 -16.3693 -16.3686 -16.1920 -16.1907 -16.1756
   -16.1374 -16.1355  -4.0077   4.6088   7.7942   7.8236

          k = 0.1426-0.1426 0.1425 (  1065 PWs)   bands (ev):

   -16.4473 -16.4469 -16.4250 -16.3693 -16.3686 -16.1920 -16.1907 -16.1756
   -16.1374 -16.1355  -4.0077   4.6088   7.7942   7.8236

          k =-0.2854-0.2854-0.2850 (  1065 PWs)   bands (ev):

   -16.4563 -16.4555 -16.4134 -16.3508 -16.3489 -16.2038 -16.2030 -16.1913
   -16.1289 -16.1252  -2.7475   1.3898   7.1349   7.1496

          k =-0.2852 0.2852 0.2850 (  1065 PWs)   bands (ev):

   -16.4569 -16.4566 -16.4149 -16.3500 -16.3498 -16.2052 -16.2037 -16.1868
   -16.1277 -16.1254  -2.7441   1.3690   7.1332   7.1628

          k = 0.2852-0.2852 0.2850 (  1065 PWs)   bands (ev):

   -16.4569 -16.4566 -16.4149 -16.3500 -16.3498 -16.2052 -16.2037 -16.1868
   -16.1277 -16.1254  -2.7441   1.3690   7.1332   7.1629

          k =-0.0001-0.2853 0.0000 (  1054 PWs)   bands (ev):

   -16.4451 -16.4447 -16.4406 -16.3684 -16.3400 -16.2381 -16.1749 -16.1488
   -16.1480 -16.1368  -3.8366   4.6455   6.8385   6.8415

          k = 0.0000 0.0000-0.2850 (  1054 PWs)   bands (ev):

   -16.4452 -16.4441 -16.4410 -16.3693 -16.3395 -16.2385 -16.1759 -16.1493
   -16.1460 -16.1367  -3.8376   4.6409   6.8323   6.8558

          k =-0.4280-0.1428-0.1425 (  1078 PWs)   bands (ev):

   -16.4699 -16.4572 -16.4097 -16.3406 -16.3114 -16.2656 -16.2042 -16.1783
   -16.1284 -16.1122  -2.7612   2.0961   5.4984   6.2611

          k =-0.4279 0.1425 0.1425 (  1078 PWs)   bands (ev):

   -16.4704 -16.4575 -16.4104 -16.3410 -16.3119 -16.2657 -16.2048 -16.1751
   -16.1271 -16.1135  -2.7594   2.0783   5.5159   6.2595

          k = 0.4279-0.1425 0.1425 (  1078 PWs)   bands (ev):

   -16.4704 -16.4575 -16.4104 -16.3410 -16.3119 -16.2657 -16.2048 -16.1751
   -16.1270 -16.1136  -2.7594   2.0782   5.5160   6.2594

          k =-0.1428-0.4280 0.1425 (  1078 PWs)   bands (ev):

   -16.4699 -16.4572 -16.4097 -16.3407 -16.3114 -16.2657 -16.2042 -16.1783
   -16.1284 -16.1122  -2.7613   2.0962   5.4983   6.2611

          k = 0.1426-0.1426-0.4275 (  1078 PWs)   bands (ev):

   -16.4699 -16.4577 -16.4108 -16.3416 -16.3109 -16.2652 -16.2057 -16.1762
   -16.1285 -16.1109  -2.7613   2.0807   5.5000   6.2764

          k = 0.1426-0.1426 0.4275 (  1078 PWs)   bands (ev):

   -16.4699 -16.4577 -16.4108 -16.3416 -16.3109 -16.2652 -16.2057 -16.1762
[...]

     total energy              =    -421.78424296 Ry
     estimated scf accuracy    <       0.00000074 Ry

     iteration # 10     ecut=    35.00 Ry     beta= 0.50
     Davidson diagonalization with overlap
     ethr =  2.66E-09,  avg # of iterations =  1.4

     total cpu time spent up to now is      781.0 secs

     total energy              =    -421.78424284 Ry
     estimated scf accuracy    <       0.00000028 Ry

     iteration # 11     ecut=    35.00 Ry     beta= 0.50
     Davidson diagonalization with overlap
     ethr =  1.00E-09,  avg # of iterations =  2.4

     total cpu time spent up to now is      786.4 secs

     total energy              =    -421.78424288 Ry
     estimated scf accuracy    <          1.5E-09 Ry

     iteration # 12     ecut=    35.00 Ry     beta= 0.50
     Davidson diagonalization with overlap
     c_bands:  2 eigenvalues not converged
     ethr =  5.21E-12,  avg # of iterations =  5.5

     total cpu time spent up to now is      795.0 secs

     total energy              =    -421.78424288 Ry
     estimated scf accuracy    <          3.0E-09 Ry

     iteration # 13     ecut=    35.00 Ry     beta= 0.50
     Davidson diagonalization with overlap
     ethr =  5.21E-12,  avg # of iterations =  1.2

     total cpu time spent up to now is      799.5 secs

     total energy              =    -421.78424288 Ry
     estimated scf accuracy    <          2.6E-09 Ry

     iteration # 14     ecut=    35.00 Ry     beta= 0.50
     Davidson diagonalization with overlap
     ethr =  5.21E-12,  avg # of iterations =  2.1

     total cpu time spent up to now is      805.9 secs

     total energy              =    -421.78424288 Ry
     estimated scf accuracy    <          1.5E-09 Ry

     iteration # 15     ecut=    35.00 Ry     beta= 0.50
     Davidson diagonalization with overlap
     ethr =  5.21E-12,  avg # of iterations =  2.1

     total cpu time spent up to now is      810.9 secs

     total energy              =    -421.78424288 Ry
     estimated scf accuracy    <          1.5E-09 Ry

     iteration # 16     ecut=    35.00 Ry     beta= 0.50
     Davidson diagonalization with overlap
     ethr =  5.21E-12,  avg # of iterations =  2.1

     total cpu time spent up to now is      816.0 secs

     total energy              =    -421.78424288 Ry
     estimated scf accuracy    <          3.1E-09 Ry

     iteration # 17     ecut=    35.00 Ry     beta= 0.50
     Davidson diagonalization with overlap
     ethr =  5.21E-12,  avg # of iterations =  1.2

     total cpu time spent up to now is      820.6 secs

     total energy              =    -421.78424288 Ry
     estimated scf accuracy    <          1.7E-09 Ry

     iteration # 18     ecut=    35.00 Ry     beta= 0.50
     Davidson diagonalization with overlap
     c_bands:  1 eigenvalues not converged
     ethr =  5.21E-12,  avg # of iterations =  2.3

     total cpu time spent up to now is      825.8 secs

     End of self-consistent calculation

          k = 0.0000 0.0000 0.0000 (  1055 PWs)   bands (ev):

   -16.4624 -16.4613 -16.4595 -16.4226 -16.4221 -16.2021 -16.2010 -16.2000
   -16.1859 -16.1841  -4.5117   8.4330   8.4544   8.4655

          k = 0.1428 0.1428-0.1423 (  1037 PWs)   bands (ev):

   -16.4763 -16.4750 -16.4548 -16.3994 -16.3984 -16.2215 -16.2213 -16.2091
   -16.1689 -16.1677  -4.0208   4.6088   7.7518   7.7776

          k = 0.2857 0.2857-0.2846 (  1038 PWs)   bands (ev):

   -16.4854 -16.4845 -16.4429 -16.3807 -16.3783 -16.2348 -16.2345 -16.2224
   -16.1605 -16.1574  -2.7603   1.3744   7.0997   7.1152

          k = 0.2852 0.0005-0.0000 (  1036 PWs)   bands (ev):

   -16.4746 -16.4746 -16.4699 -16.3983 -16.3699 -16.2685 -16.2062 -16.1805
   -16.1793 -16.1683  -3.8503   4.6144   6.8083   6.8159

          k = 0.4280 0.1433-0.1423 (  1045 PWs)   bands (ev):

   -16.4987 -16.4863 -16.4390 -16.3705 -16.3415 -16.2962 -16.2353 -16.2096
   -16.1602 -16.1442  -2.7742   2.0737   5.4721   6.2315

          k =-0.1434-0.4280 0.4268 (  1057 PWs)   bands (ev):

   -16.5074 -16.4942 -16.4126 -16.3589 -16.3485 -16.2720 -16.2633 -16.2380
   -16.1479 -16.1354  -1.9910   0.8076   4.6508   6.5057

          k =-0.0005-0.2852 0.2846 (  1055 PWs)   bands (ev):

   -16.4923 -16.4914 -16.4327 -16.3882 -16.3631 -16.2573 -16.2385 -16.2157
   -16.1575 -16.1494  -3.2385   2.8805   5.2366   7.4382

          k = 0.5704 0.0010-0.0000 (  1040 PWs)   bands (ev):

   -16.4934 -16.4934 -16.4396 -16.3635 -16.3372 -16.2830 -16.2639 -16.2050
   -16.1487 -16.1482  -1.9265   1.0339   5.4847   5.4868

          k =-0.0010-0.5704 0.5691 (  1038 PWs)   bands (ev):

   -16.5112 -16.4970 -16.4041 -16.3604 -16.3083 -16.2958 -16.2823 -16.2414
   -16.1424 -16.1296  -0.8362  -0.1697   4.2214   5.6032

          k =-0.1434-0.4280 0.7114 (  1050 PWs)   bands (ev):

   -16.5095 -16.5040 -16.3962 -16.3393 -16.3308 -16.3058 -16.2737 -16.2471
   -16.1353 -16.1342  -1.5458   0.6591   4.2764   5.2680

          k =-0.1428-0.1428-0.1423 (  1037 PWs)   bands (ev):

   -16.4764 -16.4750 -16.4548 -16.3994 -16.3984 -16.2215 -16.2214 -16.2090
   -16.1689 -16.1677  -4.0208   4.6076   7.7518   7.7788

          k =-0.1423 0.1423 0.1423 (  1035 PWs)   bands (ev):

   -16.4776 -16.4762 -16.4541 -16.3992 -16.3986 -16.2225 -16.2216 -16.2070
   -16.1682 -16.1671  -4.0226   4.5691   7.7595   7.8145

          k = 0.1423-0.1423 0.1423 (  1035 PWs)   bands (ev):

   -16.4776 -16.4762 -16.4541 -16.3992 -16.3986 -16.2225 -16.2216 -16.2070
   -16.1682 -16.1671  -4.0226   4.5691   7.7595   7.8145

          k =-0.2857-0.2857-0.2845 (  1038 PWs)   bands (ev):

   -16.4855 -16.4845 -16.4430 -16.3807 -16.3782 -16.2348 -16.2346 -16.2222
   -16.1605 -16.1573  -2.7603   1.3734   7.0997   7.1163

          k =-0.2847 0.2847 0.2846 (  1038 PWs)   bands (ev):

   -16.4872 -16.4860 -16.4448 -16.3801 -16.3796 -16.2362 -16.2341 -16.2177
   -16.1583 -16.1572  -2.7655   1.3419   7.1013   7.1557

          k = 0.2847-0.2847 0.2846 (  1038 PWs)   bands (ev):

   -16.4872 -16.4860 -16.4448 -16.3801 -16.3796 -16.2362 -16.2341 -16.2177
   -16.1583 -16.1572  -2.7655   1.3419   7.1014   7.1557

          k =-0.0005-0.2852 0.0000 (  1036 PWs)   bands (ev):

   -16.4746 -16.4746 -16.4699 -16.3983 -16.3699 -16.2685 -16.2062 -16.1805
   -16.1793 -16.1683  -3.8503   4.6144   6.8083   6.8160

          k = 0.0000 0.0000-0.2846 (  1044 PWs)   bands (ev):

   -16.4759 -16.4733 -16.4706 -16.3989 -16.3694 -16.2696 -16.2074 -16.1797
   -16.1783 -16.1680  -3.8526   4.6028   6.7938   6.8515

          k =-0.4280-0.1433-0.1423 (  1045 PWs)   bands (ev):

   -16.4987 -16.4864 -16.4390 -16.3705 -16.3415 -16.2961 -16.2353 -16.2095
   -16.1603 -16.1442  -2.7742   2.0729   5.4723   6.2323

          k =-0.4275 0.1418 0.1423 (  1045 PWs)   bands (ev):

   -16.4999 -16.4870 -16.4401 -16.3712 -16.3422 -16.2958 -16.2354 -16.2063
   -16.1587 -16.1448  -2.7783   2.0504   5.4959   6.2347

          k = 0.4275-0.1418 0.1423 (  1045 PWs)   bands (ev):

   -16.4999 -16.4870 -16.4401 -16.3712 -16.3422 -16.2958 -16.2354 -16.2062
   -16.1586 -16.1450  -2.7783   2.0503   5.4966   6.2339

          k =-0.1433-0.4280 0.1423 (  1045 PWs)   bands (ev):

   -16.4987 -16.4863 -16.4390 -16.3705 -16.3415 -16.2962 -16.2353 -16.2096
   -16.1602 -16.1442  -2.7742   2.0737   5.4721   6.2315

          k = 0.1424-0.1423-0.4268 (  1044 PWs)   bands (ev):

   -16.4989 -16.4881 -16.4406 -16.3715 -16.3412 -16.2956 -16.2367 -16.2069
   -16.1591 -16.1429  -2.7810   2.0475   5.4730   6.2742

          k = 0.1423-0.1424 0.4268 (  1044 PWs)   bands (ev):

   -16.4989 -16.4881 -16.4406 -16.3715 -16.3412 -16.2956 -16.2367 -16.2069
   -16.1591 -16.1429  -2.7810   2.0475   5.4730   6.2742

          k =-0.1428-0.1428-0.4268 (  1046 PWs)   bands (ev):

   -16.4998 -16.4856 -16.4399 -16.3719 -16.3405 -16.2976 -16.2362 -16.2067
   -16.1577 -16.1458  -2.7795   2.0694   5.4879   6.2193

          k = 0.1429 0.1429-0.4268 (  1046 PWs)   bands (ev):

   -16.4997 -16.4855 -16.4399 -16.3719 -16.3405 -16.2976 -16.2362 -16.2069
   -16.1577 -16.1457  -2.7794   2.0703   5.4871   6.2193

          k =-0.1418 0.4275 0.1423 (  1045 PWs)   bands (ev):

   -16.4999 -16.4870 -16.4401 -16.3713 -16.3422 -16.2958 -16.2354 -16.2062
   -16.1586 -16.1450  -2.7783   2.0503   5.4966   6.2340

          k =-0.1433-0.4280-0.1423 (  1045 PWs)   bands (ev):

   -16.4987 -16.4864 -16.4390 -16.3705 -16.3415 -16.2961 -16.2353 -16.2095
   -16.1603 -16.1442  -2.7742   2.0729   5.4723   6.2323

          k = 0.1418-0.4275 0.1423 (  1045 PWs)   bands (ev):

   -16.4999 -16.4870 -16.4401 -16.3712 -16.3422 -16.2958 -16.2354 -16.2063
   -16.1587 -16.1448  -2.7783   2.0504   5.4959   6.2347

          k = 0.1433 0.4280 0.4268 (  1057 PWs)   bands (ev):

   -16.5075 -16.4942 -16.4127 -16.3589 -16.3485 -16.2719 -16.2633 -16.2380
   -16.1479 -16.1353  -1.9909   0.8066   4.6511   6.5065

          k = 0.1419-0.4275-0.4268 (  1057 PWs)   bands (ev):

   -16.5084 -16.4948 -16.4144 -16.3595 -16.3498 -16.2704 -16.2627 -16.2361
   -16.1468 -16.1352  -1.9938   0.7841   4.6778   6.5085

          k =-0.1418 0.4275-0.4268 (  1057 PWs)   bands (ev):

   -16.5084 -16.4947 -16.4144 -16.3595 -16.3499 -16.2705 -16.2627 -16.2361
   -16.1467 -16.1354  -1.9938   0.7843   4.6783   6.5077

          k = 0.4280 0.1434-0.4268 (  1057 PWs)   bands (ev):

   -16.5074 -16.4942 -16.4126 -16.3589 -16.3485 -16.2720 -16.2633 -16.2380
   -16.1479 -16.1354  -1.9910   0.8076   4.6508   6.5057

          k =-0.4270 0.4270 0.1423 (  1055 PWs)   bands (ev):

   -16.5082 -16.4957 -16.4156 -16.3589 -16.3493 -16.2686 -16.2646 -16.2363
   -16.1470 -16.1337  -1.9950   0.7772   4.6508   6.5496

          k =-0.4270 0.4270-0.1423 (  1055 PWs)   bands (ev):

   -16.5082 -16.4957 -16.4156 -16.3589 -16.3493 -16.2686 -16.2646 -16.2363
   -16.1470 -16.1337  -1.9950   0.7772   4.6508   6.5496

          k = 0.4285 0.4285 0.1423 (  1061 PWs)   bands (ev):

   -16.5075 -16.4937 -16.4127 -16.3569 -16.3506 -16.2746 -16.2632 -16.2359
   -16.1458 -16.1380  -1.9893   0.8059   4.6553   6.4967

          k =-0.4285-0.4285 0.1423 (  1061 PWs)   bands (ev):

   -16.5075 -16.4936 -16.4127 -16.3569 -16.3506 -16.2746 -16.2632 -16.2360
   -16.1458 -16.1380  -1.9894   0.8068   4.6544   6.4968

          k = 0.4275-0.1418-0.4268 (  1057 PWs)   bands (ev):

   -16.5084 -16.4947 -16.4144 -16.3595 -16.3499 -16.2705 -16.2627 -16.2361
   -16.1467 -16.1354  -1.9938   0.7843   4.6783   6.5078

          k = 0.4280 0.1433 0.4268 (  1057 PWs)   bands (ev):

   -16.5075 -16.4943 -16.4127 -16.3589 -16.3485 -16.2719 -16.2633 -16.2380
   -16.1479 -16.1353  -1.9909   0.8066   4.6511   6.5065

          k =-0.4275 0.1419-0.4268 (  1057 PWs)   bands (ev):

   -16.5084 -16.4948 -16.4144 -16.3595 -16.3498 -16.2704 -16.2627 -16.2361
   -16.1468 -16.1352  -1.9938   0.7841   4.6778   6.5085

          k = 0.0005 0.2852 0.2845 (  1055 PWs)   bands (ev):

   -16.4924 -16.4914 -16.4327 -16.3882 -16.3630 -16.2573 -16.2385 -16.2157
   -16.1574 -16.1495  -3.2385   2.8799   5.2366   7.4391

          k = 0.2852 0.0005-0.2846 (  1055 PWs)   bands (ev):

   -16.4923 -16.4914 -16.4327 -16.3882 -16.3631 -16.2573 -16.2385 -16.2157
   -16.1575 -16.1494  -3.2385   2.8805   5.2366   7.4383

          k =-0.2847 0.2847 0.0000 (  1055 PWs)   bands (ev):

   -16.4934 -16.4923 -16.4330 -16.3884 -16.3632 -16.2587 -16.2374 -16.2135
   -16.1566 -16.1497  -3.2397   2.8571   5.2225   7.4822

          k = 0.2857 0.2857-0.0000 (  1055 PWs)   bands (ev):

   -16.4911 -16.4909 -16.4317 -16.3869 -16.3641 -16.2571 -16.2384 -16.2169
   -16.1602 -16.1488  -3.2336   2.8967   5.2263   7.4261

          k = 0.2852 0.0005 0.2845 (  1055 PWs)   bands (ev):

   -16.4924 -16.4914 -16.4327 -16.3882 -16.3631 -16.2573 -16.2385 -16.2157
   -16.1574 -16.1495  -3.2385   2.8798   5.2366   7.4391

          k =-0.0010-0.5704 0.0000 (  1040 PWs)   bands (ev):

   -16.4934 -16.4934 -16.4396 -16.3635 -16.3372 -16.2830 -16.2639 -16.2050
   -16.1487 -16.1482  -1.9265   1.0339   5.4847   5.4868

          k = 0.0000 0.0000-0.5691 (  1042 PWs)   bands (ev):

   -16.4948 -16.4924 -16.4404 -16.3644 -16.3383 -16.2820 -16.2650 -16.2041
   -16.1483 -16.1465  -1.9346   1.0209   5.4733   5.5280

          k = 0.0010 0.5704 0.5691 (  1038 PWs)   bands (ev):

   -16.5112 -16.4971 -16.4042 -16.3603 -16.3082 -16.2959 -16.2823 -16.2414
   -16.1425 -16.1295  -0.8359  -0.1702   4.2210   5.6039

          k = 0.5704 0.0010-0.5691 (  1038 PWs)   bands (ev):

   -16.5112 -16.4970 -16.4041 -16.3604 -16.3083 -16.2958 -16.2823 -16.2414
   -16.1424 -16.1296  -0.8362  -0.1697   4.2214   5.6033

          k =-0.5694 0.5694 0.0000 (  1037 PWs)   bands (ev):

   -16.5108 -16.4984 -16.4073 -16.3581 -16.3077 -16.2982 -16.2816 -16.2404
   -16.1422 -16.1275  -0.8385  -0.1899   4.2087   5.6463

          k = 0.5714 0.5714-0.0000 (  1037 PWs)   bands (ev):

   -16.5117 -16.4961 -16.4026 -16.3641 -16.3107 -16.2952 -16.2804 -16.2403
   -16.1404 -16.1308  -0.8453  -0.1703   4.2397   5.5927

          k = 0.5704 0.0010 0.5691 (  1038 PWs)   bands (ev):

   -16.5112 -16.4971 -16.4042 -16.3603 -16.3082 -16.2959 -16.2823 -16.2414
   -16.1425 -16.1295  -0.8359  -0.1702   4.2210   5.6040

          k = 0.1419-0.4275-0.7114 (  1050 PWs)   bands (ev):

   -16.5101 -16.5050 -16.3984 -16.3416 -16.3296 -16.3053 -16.2707 -16.2467
   -16.1379 -16.1303  -1.5507   0.6435   4.2727   5.2942

          k = 0.4280 0.1434-0.7114 (  1050 PWs)   bands (ev):

   -16.5095 -16.5040 -16.3962 -16.3393 -16.3308 -16.3058 -16.2737 -16.2471
   -16.1353 -16.1342  -1.5458   0.6591   4.2764   5.2680

          k =-0.7122 0.4265 0.1423 (  1049 PWs)   bands (ev):

   -16.5100 -16.5045 -16.3976 -16.3416 -16.3302 -16.3046 -16.2726 -16.2463
   -16.1371 -16.1312  -1.5529   0.6507   4.2853   5.2763

          k = 0.1413-0.7127 0.4268 (  1050 PWs)   bands (ev):

   -16.5098 -16.5044 -16.3964 -16.3415 -16.3291 -16.3053 -16.2729 -16.2468
   -16.1375 -16.1320  -1.5479   0.6558   4.2813   5.2780

          k =-0.4265 0.7122-0.1423 (  1049 PWs)   bands (ev):

   -16.5100 -16.5045 -16.3976 -16.3416 -16.3302 -16.3046 -16.2726 -16.2463
   -16.1371 -16.1312  -1.5529   0.6507   4.2853   5.2763

          k =-0.4290-0.7137 0.1423 (  1049 PWs)   bands (ev):

   -16.5100 -16.5044 -16.3976 -16.3415 -16.3302 -16.3046 -16.2726 -16.2463
   -16.1370 -16.1313  -1.5529   0.6510   4.2853   5.2759

          k = 0.7127-0.1413-0.4268 (  1050 PWs)   bands (ev):

   -16.5098 -16.5044 -16.3964 -16.3415 -16.3291 -16.3053 -16.2729 -16.2468
   -16.1375 -16.1320  -1.5479   0.6558   4.2813   5.2780

          k =-0.7127 0.1414-0.4268 (  1050 PWs)   bands (ev):

   -16.5098 -16.5044 -16.3964 -16.3415 -16.3291 -16.3053 -16.2730 -16.2468
   -16.1374 -16.1321  -1.5480   0.6562   4.2814   5.2776

          k = 0.4275-0.1418-0.7114 (  1050 PWs)   bands (ev):

   -16.5101 -16.5050 -16.3984 -16.3416 -16.3296 -16.3053 -16.2707 -16.2466
   -16.1379 -16.1303  -1.5507   0.6435   4.2727   5.2941

          k =-0.7137-0.4290 0.1423 (  1049 PWs)   bands (ev):

   -16.5100 -16.5044 -16.3976 -16.3415 -16.3302 -16.3046 -16.2726 -16.2463
   -16.1370 -16.1313  -1.5529   0.6510   4.2854   5.2759

          k =-0.1439-0.7132 0.4268 (  1050 PWs)   bands (ev):

   -16.5098 -16.5044 -16.3964 -16.3415 -16.3291 -16.3053 -16.2730 -16.2468
   -16.1374 -16.1321  -1.5480   0.6562   4.2814   5.2776

     highest occupied level (ev):     8.4655

!    total energy              =    -421.78424288 Ry
     estimated scf accuracy    <          1.6E-10 Ry

     The total energy is the sum of the following terms:
     one-electron contribution =    -273.05290887 Ry
     hartree contribution      =     161.83305844 Ry
     xc contribution           =    -111.72763589 Ry
     ewald contribution        =    -198.83675656 Ry

     convergence has been achieved in  18 iterations

     Forces acting on atoms (cartesian axes, Ry/au):

     atom    1 type  1   force =     0.00001392    0.00001990   -0.00010567
     atom    2 type  1   force =    -0.00001392   -0.00001990    0.00010567
     The non-local contrib.  to forces
     atom    1 type  1   force =    -0.00004453   -0.00003444    0.00101537
     atom    2 type  1   force =     0.00006701    0.00007263   -0.00102379
     The ionic contribution  to forces
     atom    1 type  1   force =    -0.00015757   -0.00015165   -0.03119540
     atom    2 type  1   force =     0.00015757    0.00015165    0.03119540
     The local contribution  to forces
     atom    1 type  1   force =     0.00020279    0.00018133    0.03029357
     atom    2 type  1   force =    -0.00022454   -0.00022651   -0.03028168
     The core correction contribution to forces
     atom    1 type  1   force =     0.00000421    0.00000376   -0.00013900
     atom    2 type  1   force =    -0.00000507   -0.00000529    0.00013934
     The Hubbard contrib.    to forces
     atom    1 type  1   force =     0.00000000    0.00000000    0.00000000
     atom    2 type  1   force =     0.00000000    0.00000000    0.00000000
     The SCF correction term to forces
     atom    1 type  1   force =     0.00000898    0.00004005   -0.00009075
     atom    2 type  1   force =    -0.00000893    0.00000679    0.00006584

     Total force =     0.000153     Total SCF correction =     0.000120
     SCF correction compared to forces is large: reduce conv_thr to get better values


     Computing stress (Cartesian axis) and pressure

          total   stress  (Ry/bohr**3)                   (kbar)     P=       -3.75
  -0.00002672  -0.00000281   0.00000020           -3.93       -0.41        0.03
  -0.00000281  -0.00002674   0.00000020           -0.41       -3.93        0.03
   0.00000020   0.00000020  -0.00002296            0.03        0.03       -3.38


     init_run     :      6.35s CPU      6.87s WALL (       2 calls)
     electrons    :    840.63s CPU    748.68s WALL (       9 calls)
     update_pot   :      4.98s CPU      5.66s WALL (       7 calls)
     forces       :      7.79s CPU      8.41s WALL (       9 calls)
     stress       :     58.84s CPU     63.56s WALL (       9 calls)

     Called by init_run:
     wfcinit      :      3.43s CPU      3.68s WALL (       2 calls)
     potinit      :      0.42s CPU      0.47s WALL (       2 calls)
     hinit0       :      2.38s CPU      2.59s WALL (       2 calls)

     Called by electrons:
     c_bands      :    699.75s CPU    620.09s WALL (     187 calls)
     sum_band     :    125.89s CPU    113.54s WALL (     187 calls)
     v_of_rho     :      1.35s CPU      1.76s WALL (     193 calls)
     newd         :     12.09s CPU     11.23s WALL (     193 calls)
     mix_rho      :      1.04s CPU      1.22s WALL (     187 calls)

     Called by c_bands:
     init_us_2    :     29.90s CPU     23.55s WALL (   24822 calls)
     init_us_2:cp :     29.62s CPU     23.24s WALL (   24822 calls)
     cegterg      :    628.31s CPU    562.69s WALL (   11781 calls)

     Called by *egterg:
     cdiaghg      :     33.04s CPU     26.18s WALL (   38183 calls)
     h_psi        :    520.61s CPU    469.73s WALL (   38939 calls)
     s_psi        :     12.82s CPU     11.64s WALL (   38939 calls)
     g_psi        :      5.39s CPU      3.90s WALL (   27032 calls)

     Called by h_psi:
     h_psi:calbec :     36.30s CPU     88.58s WALL (   38939 calls)
     vloc_psi     :    466.50s CPU    362.97s WALL (   38939 calls)
     add_vuspsi   :     13.68s CPU     14.29s WALL (   38939 calls)

     General routines
     calbec       :     47.90s CPU    112.36s WALL (   53555 calls)
     fft          :      0.66s CPU      0.56s WALL (     854 calls)
     ffts         :      0.18s CPU      0.17s WALL (     187 calls)
     fftw         :    435.45s CPU    338.50s WALL ( 1028984 calls)

     Parallel routines

     PWSCF        :  15m19.64s CPU  13m55.47s WALL


   This run was terminated on:   5:44:58  18Oct2023            

=------------------------------------------------------------------------------=
   JOB DONE.
=------------------------------------------------------------------------------=
