
     Program PWSCF v.7.2 starts on  2Nov2023 at 17:43:16 

     This program is part of the open-source Quantum ESPRESSO suite
     for quantum simulation of materials; please cite
         "P. Giannozzi et al., J. Phys.:Condens. Matter 21 395502 (2009);
         "P. Giannozzi et al., J. Phys.:Condens. Matter 29 465901 (2017);
         "P. Giannozzi et al., J. Chem. Phys. 152 154105 (2020);
          URL http://www.quantum-espresso.org", 
     in publications or presentations arising from this work. More details at
     http://www.quantum-espresso.org/quote

     Parallel version (MPI), running on     2 processors

     MPI processes distributed on     2 nodes
     187202 MiB available memory on the printing compute node when the environment starts

     Waiting for input...
     Reading input from standard input
Warning: card &CELL ignored
Warning: card / ignored

     Current dimensions of program PWSCF are:
     Max number of different atomic species (ntypx) = 10
     Max number of k-points (npk) =  40000
     Max angular momentum in pseudopotentials (lmaxx) =  4
     file O.pz-rrkjus.UPF: wavefunction(s)  2S renormalized
     Message from routine setup:
     using ibrav=0 with symmetry is DISCOURAGED, use correct ibrav instead

     R & G space division:  proc/nbgrp/npool/nimage =       2
     Subspace diagonalization in iterative solution of the eigenvalue problem:
     a serial algorithm will be used


     Parallelization info
     --------------------
     sticks:   dense  smooth     PW     G-vecs:    dense   smooth      PW
     Min         523     258     80                12766     4522     751
     Max         526     259     81                12767     4523     752
     Sum        1049     517    161                25533     9045    1503

     Using Slab Decomposition



     bravais-lattice index     =            0
     lattice parameter (alat)  =       7.4077  a.u.
     unit-cell volume          =     406.4946 (a.u.)^3
     number of atoms/cell      =            5
     number of atomic types    =            3
     number of electrons       =        44.00
     number of Kohn-Sham states=           22
     kinetic-energy cutoff     =      30.0000  Ry
     charge density cutoff     =     240.0000  Ry
     scf convergence threshold =      1.0E-07
     mixing beta               =       0.7000
     number of iterations used =            8  plain     mixing
     Exchange-correlation= SLA  PZ   NOGX NOGC
                           (   1   1   0   0   0   0   0)

     celldm(1)=   7.407726  celldm(2)=   0.000000  celldm(3)=   0.000000
     celldm(4)=   0.000000  celldm(5)=   0.000000  celldm(6)=   0.000000

     crystal axes: (cart. coord. in units of alat)
               a(1) = (   1.000000   0.000000   0.000000 )  
               a(2) = (   0.000000   1.000000   0.000000 )  
               a(3) = (   0.000000   0.000000   1.000000 )  

     reciprocal axes: (cart. coord. in units 2 pi/alat)
               b(1) = (  1.000000  0.000000  0.000000 )  
               b(2) = (  0.000000  1.000000  0.000000 )  
               b(3) = (  0.000000  0.000000  1.000000 )  


     PseudoPot. # 1 for O  read from file:
     /home/gridsan/epan1/labutil/lab3_samples/pseudopotentials/O.pz-rrkjus.UPF
     MD5 check sum: 24fb942a68ef5d262e498166c462ef4a
     Pseudo is Ultrasoft, Zval =  6.0
     Generated by new atomic code, or converted to UPF format
     Using radial grid of 1269 points,  4 beta functions with: 
                l(1) =   0
                l(2) =   0
                l(3) =   1
                l(4) =   1
     Q(r) pseudized with 0 coefficients 


     PseudoPot. # 2 for Pb read from file:
     /home/gridsan/epan1/labutil/lab3_samples/pseudopotentials/Pb.pz-d-van.UPF
     MD5 check sum: 4e1e5920686a026ae26139ac417581ff
     Pseudo is Ultrasoft, Zval = 14.0
     Generated by new atomic code, or converted to UPF format
     Using radial grid of  899 points,  6 beta functions with: 
                l(1) =   0
                l(2) =   0
                l(3) =   1
                l(4) =   1
                l(5) =   2
                l(6) =   2
     Q(r) pseudized with  8 coefficients,  rinner =    1.000   1.000   1.000
                                                       1.000   1.000

     PseudoPot. # 3 for Ti read from file:
     /home/gridsan/epan1/labutil/lab3_samples/pseudopotentials/Ti.pz-sp-van_ak.UPF
     MD5 check sum: 545d0e6e05332b8871a8093f427cb0ca
     Pseudo is Ultrasoft, Zval = 12.0
     Generated by new atomic code, or converted to UPF format
     Using radial grid of  851 points,  6 beta functions with: 
                l(1) =   0
                l(2) =   0
                l(3) =   1
                l(4) =   1
                l(5) =   2
                l(6) =   2
     Q(r) pseudized with  8 coefficients,  rinner =    1.000   1.000   1.000
                                                       1.000   1.000

     atomic species   valence    mass     pseudopotential
        O              6.00    15.99900     O ( 1.00)
        Pb            14.00   207.20000     Pb( 1.00)
        Ti            12.00    47.86700     Ti( 1.00)

     48 Sym. Ops., with inversion, found



   Cartesian axes

     site n.     atom                  positions (alat units)
         1           Pb  tau(   1) = (   0.0000000   0.0000000   0.0000000  )
         2           Ti  tau(   2) = (   0.5000000   0.5000000   0.5000000  )
         3           O   tau(   3) = (   0.0000000   0.5000000   0.5000000  )
         4           O   tau(   4) = (   0.5000000   0.0000000   0.5000000  )
         5           O   tau(   5) = (   0.5000000   0.5000000   0.0000000  )

     number of k points=     4
                       cart. coord. in units 2pi/alat
        k(    1) = (   0.1250000   0.1250000   0.1250000), wk =   0.2500000
        k(    2) = (   0.1250000   0.1250000   0.3750000), wk =   0.7500000
        k(    3) = (   0.1250000   0.3750000   0.3750000), wk =   0.7500000
        k(    4) = (   0.3750000   0.3750000   0.3750000), wk =   0.2500000

     Dense  grid:    25533 G-vectors     FFT dimensions: (  40,  40,  40)

     Smooth grid:     9045 G-vectors     FFT dimensions: (  25,  25,  25)

     Estimated max dynamical RAM per process >      52.57 MB

     Estimated total dynamical RAM >     105.15 MB

     Initial potential from superposition of free atoms

     starting charge      42.9982, renormalised to      44.0000
     Starting wfcs are   31 randomized atomic wfcs

     total cpu time spent up to now is        1.0 secs

     Self-consistent Calculation

     iteration #  1     ecut=    30.00 Ry     beta= 0.70
     Davidson diagonalization with overlap
     ethr =  1.00E-02,  avg # of iterations =  2.0

     total cpu time spent up to now is        1.2 secs

     total energy              =    -332.60105921 Ry
     estimated scf accuracy    <       1.11403821 Ry

     iteration #  2     ecut=    30.00 Ry     beta= 0.70
     Davidson diagonalization with overlap
     ethr =  2.53E-03,  avg # of iterations =  7.8

     total cpu time spent up to now is        1.6 secs

     total energy              =    -332.11241165 Ry
     estimated scf accuracy    <       5.86828297 Ry

     iteration #  3     ecut=    30.00 Ry     beta= 0.70
     Davidson diagonalization with overlap
     ethr =  2.53E-03,  avg # of iterations =  6.5

     total cpu time spent up to now is        1.9 secs

     total energy              =    -333.15344146 Ry
     estimated scf accuracy    <       0.28886619 Ry

     iteration #  4     ecut=    30.00 Ry     beta= 0.70
     Davidson diagonalization with overlap
     ethr =  6.57E-04,  avg # of iterations =  2.8

     total cpu time spent up to now is        2.1 secs

     total energy              =    -333.15086892 Ry
     estimated scf accuracy    <       0.08711693 Ry

     iteration #  5     ecut=    30.00 Ry     beta= 0.70
     Davidson diagonalization with overlap
     ethr =  1.98E-04,  avg # of iterations =  5.0

     total cpu time spent up to now is        2.4 secs

     total energy              =    -333.18128257 Ry
     estimated scf accuracy    <       0.00829281 Ry

     iteration #  6     ecut=    30.00 Ry     beta= 0.70
     Davidson diagonalization with overlap
     ethr =  1.88E-05,  avg # of iterations =  3.2

     total cpu time spent up to now is        2.6 secs

     total energy              =    -333.18106230 Ry
     estimated scf accuracy    <       0.00323528 Ry

     iteration #  7     ecut=    30.00 Ry     beta= 0.70
     Davidson diagonalization with overlap
     ethr =  7.35E-06,  avg # of iterations =  4.8

     total cpu time spent up to now is        2.9 secs

     total energy              =    -333.18186413 Ry
     estimated scf accuracy    <       0.00004211 Ry

     iteration #  8     ecut=    30.00 Ry     beta= 0.70
     Davidson diagonalization with overlap
     ethr =  9.57E-08,  avg # of iterations =  4.8

     total cpu time spent up to now is        3.1 secs

     total energy              =    -333.18188393 Ry
     estimated scf accuracy    <       0.00001206 Ry

     iteration #  9     ecut=    30.00 Ry     beta= 0.70
     Davidson diagonalization with overlap
     ethr =  2.74E-08,  avg # of iterations =  4.8

     total cpu time spent up to now is        3.4 secs

     total energy              =    -333.18188631 Ry
     estimated scf accuracy    <       0.00000040 Ry

     iteration # 10     ecut=    30.00 Ry     beta= 0.70
     Davidson diagonalization with overlap
     ethr =  9.02E-10,  avg # of iterations =  5.8

     total cpu time spent up to now is        3.7 secs

     total energy              =    -333.18188656 Ry
     estimated scf accuracy    <       0.00000050 Ry

     iteration # 11     ecut=    30.00 Ry     beta= 0.70
     Davidson diagonalization with overlap
     ethr =  9.02E-10,  avg # of iterations =  1.0

     total cpu time spent up to now is        3.9 secs

     total energy              =    -333.18188648 Ry
     estimated scf accuracy    <       0.00000027 Ry

     iteration # 12     ecut=    30.00 Ry     beta= 0.70
     Davidson diagonalization with overlap
     ethr =  6.22E-10,  avg # of iterations =  3.8

     total cpu time spent up to now is        4.2 secs

     End of self-consistent calculation

          k = 0.1250 0.1250 0.1250 (  1117 PWs)   bands (ev):

   -45.3532 -21.9302 -21.9297 -21.9297  -6.7180  -5.7078  -5.7078  -4.5804
    -4.5804  -4.5681  -4.4014  -4.4014   4.1154   6.8703   6.8703   7.5363
     8.6738   8.6738   9.4222   9.4543   9.4543   9.5546

          k = 0.1250 0.1250 0.3750 (  1144 PWs)   bands (ev):

   -45.3524 -21.9788 -21.9291 -21.9287  -6.3358  -5.5928  -5.5613  -4.6343
    -4.5756  -4.5627  -4.4954  -4.3778   3.4421   6.3930   6.9407   7.3821
     7.9534   8.2875   8.8687   9.4646   9.5997  10.2465

          k = 0.1250 0.3750 0.3750 (  1121 PWs)   bands (ev):

   -45.3512 -21.9761 -21.9757 -21.9264  -6.1384  -5.4899  -5.4274  -4.6106
    -4.5710  -4.5166  -4.4356  -4.2894   3.1213   6.3461   6.4249   6.7849
     7.0843   8.1495   8.9366   9.0074   9.4537  10.2104

          k = 0.3750 0.3750 0.3750 (  1121 PWs)   bands (ev):

   -45.3503 -21.9746 -21.9738 -21.9738  -5.7792  -5.6200  -5.6200  -4.5334
    -4.5334  -4.2504  -4.1854  -4.1854   3.7246   5.6096   5.6096   6.2276
     6.5983   6.5983   7.4407  10.1638  10.1638  10.2431

     highest occupied level (ev):    10.2465

!    total energy              =    -333.18188655 Ry
     estimated scf accuracy    <          2.7E-09 Ry

     The total energy is the sum of the following terms:
     one-electron contribution =     -80.99316825 Ry
     hartree contribution      =      67.50864997 Ry
     xc contribution           =     -49.51757154 Ry
     ewald contribution        =    -270.17979674 Ry

     convergence has been achieved in  12 iterations

     Forces acting on atoms (cartesian axes, Ry/au):

     atom    1 type  2   force =     0.00000000    0.00000000    0.00000000
     atom    2 type  3   force =     0.00000000    0.00000000    0.00000000
     atom    3 type  1   force =     0.00000000    0.00000000    0.00000000
     atom    4 type  1   force =     0.00000000    0.00000000    0.00000000
     atom    5 type  1   force =     0.00000000    0.00000000    0.00000000
     The non-local contrib.  to forces
     atom    1 type  2   force =     0.00000000    0.00000000    0.00000000
     atom    2 type  3   force =     0.00000000    0.00000000    0.00000000
     atom    3 type  1   force =     0.00000000    0.00000000    0.00000000
     atom    4 type  1   force =     0.00000000    0.00000000    0.00000000
     atom    5 type  1   force =     0.00000000    0.00000000    0.00000000
     The ionic contribution  to forces
     atom    1 type  2   force =    -0.00000000   -0.00000000   -0.00000000
     atom    2 type  3   force =     0.00000000    0.00000000    0.00000000
     atom    3 type  1   force =    -0.00000000    0.00000000    0.00000000
     atom    4 type  1   force =     0.00000000   -0.00000000    0.00000000
     atom    5 type  1   force =     0.00000000    0.00000000   -0.00000000
     The local contribution  to forces
     atom    1 type  2   force =     0.00000000   -0.00000000   -0.00000000
     atom    2 type  3   force =     0.00000000    0.00000000    0.00000000
     atom    3 type  1   force =     0.00000000    0.00000000    0.00000000
     atom    4 type  1   force =     0.00000000    0.00000000    0.00000000
     atom    5 type  1   force =     0.00000000    0.00000000   -0.00000000
     The core correction contribution to forces
     atom    1 type  2   force =     0.00000000    0.00000000    0.00000000
     atom    2 type  3   force =     0.00000000    0.00000000    0.00000000
     atom    3 type  1   force =     0.00000000    0.00000000    0.00000000
     atom    4 type  1   force =     0.00000000    0.00000000    0.00000000
     atom    5 type  1   force =     0.00000000    0.00000000    0.00000000
     The Hubbard contrib.    to forces
     atom    1 type  2   force =     0.00000000    0.00000000    0.00000000
     atom    2 type  3   force =     0.00000000    0.00000000    0.00000000
     atom    3 type  1   force =     0.00000000    0.00000000    0.00000000
     atom    4 type  1   force =     0.00000000    0.00000000    0.00000000
     atom    5 type  1   force =     0.00000000    0.00000000    0.00000000
     The SCF correction term to forces
     atom    1 type  2   force =     0.00000000    0.00000000    0.00000000
     atom    2 type  3   force =     0.00000000   -0.00000000    0.00000000
     atom    3 type  1   force =     0.00000000    0.00000000    0.00000000
     atom    4 type  1   force =    -0.00000000   -0.00000000    0.00000000
     atom    5 type  1   force =     0.00000000    0.00000000    0.00000000

     Total force =     0.000000     Total SCF correction =     0.000000


     Computing stress (Cartesian axis) and pressure

          total   stress  (Ry/bohr**3)                   (kbar)     P=      -81.65
  -0.00055507   0.00000000   0.00000000          -81.65        0.00        0.00
   0.00000000  -0.00055507   0.00000000            0.00      -81.65        0.00
   0.00000000   0.00000000  -0.00055507            0.00        0.00      -81.65


     init_run     :      0.66s CPU      0.68s WALL (       1 calls)
     electrons    :      3.77s CPU      3.16s WALL (       1 calls)
     forces       :      0.14s CPU      0.10s WALL (       1 calls)
     stress       :      0.99s CPU      0.83s WALL (       1 calls)

     Called by init_run:
     wfcinit      :      0.07s CPU      0.05s WALL (       1 calls)
     potinit      :      0.04s CPU      0.04s WALL (       1 calls)
     hinit0       :      0.45s CPU      0.46s WALL (       1 calls)

     Called by electrons:
     c_bands      :      1.71s CPU      1.41s WALL (      12 calls)
     sum_band     :      1.22s CPU      1.04s WALL (      12 calls)
     v_of_rho     :      0.04s CPU      0.04s WALL (      13 calls)
     newd         :      0.79s CPU      0.69s WALL (      13 calls)
     mix_rho      :      0.03s CPU      0.03s WALL (      12 calls)

     Called by c_bands:
     init_us_2    :      0.06s CPU      0.05s WALL (     108 calls)
     init_us_2:cp :      0.06s CPU      0.05s WALL (     108 calls)
     cegterg      :      1.58s CPU      1.29s WALL (      48 calls)

     Called by *egterg:
     cdiaghg      :      0.27s CPU      0.22s WALL (     256 calls)
     h_psi        :      1.10s CPU      0.90s WALL (     260 calls)
     s_psi        :      0.05s CPU      0.04s WALL (     260 calls)
     g_psi        :      0.01s CPU      0.01s WALL (     208 calls)

     Called by h_psi:
     h_psi:calbec :      0.07s CPU      0.06s WALL (     260 calls)
     vloc_psi     :      0.98s CPU      0.80s WALL (     260 calls)
     add_vuspsi   :      0.05s CPU      0.04s WALL (     260 calls)

     General routines
     calbec       :      0.09s CPU      0.07s WALL (     328 calls)
     fft          :      0.23s CPU      0.22s WALL (      81 calls)
     ffts         :      0.04s CPU      0.04s WALL (      25 calls)
     fftw         :      0.92s CPU      0.76s WALL (    7446 calls)
     interpolate  :      0.04s CPU      0.04s WALL (      13 calls)

     Parallel routines

     PWSCF        :      5.88s CPU      5.12s WALL


   This run was terminated on:  17:43:21   2Nov2023            

=------------------------------------------------------------------------------=
   JOB DONE.
=------------------------------------------------------------------------------=
