
     Program PWSCF v.7.2 starts on  3Nov2023 at 10:53:13 

     This program is part of the open-source Quantum ESPRESSO suite
     for quantum simulation of materials; please cite
         "P. Giannozzi et al., J. Phys.:Condens. Matter 21 395502 (2009);
         "P. Giannozzi et al., J. Phys.:Condens. Matter 29 465901 (2017);
         "P. Giannozzi et al., J. Chem. Phys. 152 154105 (2020);
          URL http://www.quantum-espresso.org", 
     in publications or presentations arising from this work. More details at
     http://www.quantum-espresso.org/quote

     Parallel version (MPI), running on     8 processors

     MPI processes distributed on     8 nodes
     185900 MiB available memory on the printing compute node when the environment starts

     Waiting for input...
     Reading input from standard input

     Current dimensions of program PWSCF are:
     Max number of different atomic species (ntypx) = 10
     Max number of k-points (npk) =  40000
     Max angular momentum in pseudopotentials (lmaxx) =  4
     file Cu.pz-d-rrkjus.UPF: wavefunction(s)  3D renormalized
     Message from routine setup:
     using ibrav=0 with symmetry is DISCOURAGED, use correct ibrav instead

     R & G space division:  proc/nbgrp/npool/nimage =       8
     Subspace diagonalization in iterative solution of the eigenvalue problem:
     a serial algorithm will be used


     Parallelization info
     --------------------
     sticks:   dense  smooth     PW     G-vecs:    dense   smooth      PW
     Min          59      30     10                  858      305      65
     Max          60      31     11                  861      308      68
     Sum         475     241     85                 6879     2445     531

     Using Slab Decomposition



     bravais-lattice index     =            0
     lattice parameter (alat)  =       4.6768  a.u.
     unit-cell volume          =      72.3337 (a.u.)^3
     number of atoms/cell      =            1
     number of atomic types    =            1
     number of electrons       =        11.00
     number of Kohn-Sham states=           10
     kinetic-energy cutoff     =      40.0000  Ry
     charge density cutoff     =     320.0000  Ry
     scf convergence threshold =      1.0E-07
     mixing beta               =       0.5000
     number of iterations used =            8  plain     mixing
     energy convergence thresh.=      1.0E-04
     force convergence thresh. =      1.0E-03
     press convergence thresh. =      5.0E-01
     Exchange-correlation=  SLA  PZ   NOGX NOGC
                           (   1   1   0   0   0   0   0)
     nstep                     =           50


     celldm(1)=   4.676834  celldm(2)=   0.000000  celldm(3)=   0.000000
     celldm(4)=   0.000000  celldm(5)=   0.000000  celldm(6)=   0.000000

     crystal axes: (cart. coord. in units of alat)
               a(1) = (   0.000000   0.707107   0.707107 )  
               a(2) = (   0.707107   0.000000   0.707107 )  
               a(3) = (   0.707107   0.707107   0.000000 )  

     reciprocal axes: (cart. coord. in units 2 pi/alat)
               b(1) = ( -0.707107  0.707107  0.707107 )  
               b(2) = (  0.707107 -0.707107  0.707107 )  
               b(3) = (  0.707107  0.707107 -0.707107 )  


     PseudoPot. # 1 for Cu read from file:
     /home/gridsan/epan1/labutil/lab3_samples/pseudopotentials/Cu.pz-d-rrkjus.UPF
     MD5 check sum: fd38ae683e239c95a66f426e1f8e5fc7
     Pseudo is Ultrasoft, Zval = 11.0
     Generated by new atomic code, or converted to UPF format
     Using radial grid of  899 points,  3 beta functions with: 
                l(1) =   2
                l(2) =   2
                l(3) =   1
     Q(r) pseudized with 0 coefficients 


     atomic species   valence    mass     pseudopotential
        Cu            11.00    63.54600     Cu( 1.00)

     Starting magnetic structure 
     atomic species   magnetization
        Cu           0.700

     48 Sym. Ops., with inversion, found



   Cartesian axes

     site n.     atom                  positions (alat units)
         1           Cu  tau(   1) = (   0.0000000   0.0000000   0.0000000  )

     number of k points=    10  Methfessel-Paxton smearing, width (Ry)=  0.0200
                       cart. coord. in units 2pi/alat
        k(    1) = (   0.0000000   0.0000000   0.0000000), wk =   0.0080000
        k(    2) = (   0.1414214   0.1414214  -0.1414214), wk =   0.0640000
        k(    3) = (   0.2828427   0.2828427  -0.2828427), wk =   0.0640000
        k(    4) = (   0.2828427   0.0000000   0.0000000), wk =   0.0480000
        k(    5) = (   0.4242641   0.1414214  -0.1414214), wk =   0.1920000
        k(    6) = (  -0.1414214  -0.4242641   0.4242641), wk =   0.1920000
        k(    7) = (   0.0000000  -0.2828427   0.2828427), wk =   0.0960000
        k(    8) = (   0.5656854   0.0000000   0.0000000), wk =   0.0480000
        k(    9) = (   0.0000000  -0.5656854   0.5656854), wk =   0.0960000
        k(   10) = (  -0.1414214  -0.4242641   0.7071068), wk =   0.1920000

     Dense  grid:     6879 G-vectors     FFT dimensions: (  27,  27,  27)

     Smooth grid:     2445 G-vectors     FFT dimensions: (  20,  20,  20)

     Estimated max dynamical RAM per process >       3.48 MB

     Estimated total dynamical RAM >      27.86 MB
     Generating pointlists ...
     new r_m :   0.4125 (alat units)  1.9292 (a.u.) for type    1

     Initial potential from superposition of free atoms

     starting charge      10.9997, renormalised to      11.0000
     Starting wfcs are    6 randomized atomic wfcs +    4 random wfcs

     total cpu time spent up to now is        0.4 secs

     Self-consistent Calculation

     iteration #  1     ecut=    40.00 Ry     beta= 0.50
     Davidson diagonalization with overlap
     ethr =  1.00E-02,  avg # of iterations =  6.2

     total cpu time spent up to now is        0.5 secs

     total energy              =     -86.98492550 Ry
     estimated scf accuracy    <       1.44077560 Ry

     total magnetization       =     1.70 Bohr mag/cell
     absolute magnetization    =     1.86 Bohr mag/cell

     iteration #  2     ecut=    40.00 Ry     beta= 0.50
     Davidson diagonalization with overlap
     ethr =  1.00E-02,  avg # of iterations =  1.5

     total cpu time spent up to now is        0.5 secs

     total energy              =     -87.61367755 Ry
     estimated scf accuracy    <       0.78526498 Ry

     total magnetization       =     0.05 Bohr mag/cell
     absolute magnetization    =     0.58 Bohr mag/cell

     iteration #  3     ecut=    40.00 Ry     beta= 0.50
     Davidson diagonalization with overlap
     ethr =  7.14E-03,  avg # of iterations =  1.0

     negative rho (up, down):  0.000E+00 3.347E-07

     total cpu time spent up to now is        0.6 secs

     total energy              =     -87.80689832 Ry
     estimated scf accuracy    <       0.24299890 Ry

     total magnetization       =     0.03 Bohr mag/cell
     absolute magnetization    =     0.53 Bohr mag/cell

     iteration #  4     ecut=    40.00 Ry     beta= 0.50
     Davidson diagonalization with overlap
     ethr =  2.21E-03,  avg # of iterations =  1.8

     total cpu time spent up to now is        0.6 secs

     total energy              =     -87.82871696 Ry
     estimated scf accuracy    <       0.09176799 Ry

     total magnetization       =    -0.04 Bohr mag/cell
     absolute magnetization    =     0.04 Bohr mag/cell

     iteration #  5     ecut=    40.00 Ry     beta= 0.50
     Davidson diagonalization with overlap
     ethr =  8.34E-04,  avg # of iterations =  1.1

     total cpu time spent up to now is        0.7 secs

     total energy              =     -87.84969652 Ry
     estimated scf accuracy    <       0.00137954 Ry

     total magnetization       =    -0.04 Bohr mag/cell
     absolute magnetization    =     0.05 Bohr mag/cell

     iteration #  6     ecut=    40.00 Ry     beta= 0.50
     Davidson diagonalization with overlap
     ethr =  1.25E-05,  avg # of iterations =  1.9

     total cpu time spent up to now is        0.8 secs

     total energy              =     -87.85057328 Ry
     estimated scf accuracy    <       0.00056808 Ry

     total magnetization       =    -0.00 Bohr mag/cell
     absolute magnetization    =     0.05 Bohr mag/cell

     iteration #  7     ecut=    40.00 Ry     beta= 0.50
     Davidson diagonalization with overlap
     ethr =  5.16E-06,  avg # of iterations =  1.4

     total cpu time spent up to now is        0.8 secs

     total energy              =     -87.85069657 Ry
     estimated scf accuracy    <       0.00005396 Ry

     total magnetization       =     0.00 Bohr mag/cell
     absolute magnetization    =     0.01 Bohr mag/cell

     iteration #  8     ecut=    40.00 Ry     beta= 0.50
     Davidson diagonalization with overlap
     ethr =  4.91E-07,  avg # of iterations =  1.1

     total cpu time spent up to now is        0.9 secs

     total energy              =     -87.85070593 Ry
     estimated scf accuracy    <       0.00000467 Ry

     total magnetization       =    -0.00 Bohr mag/cell
     absolute magnetization    =     0.01 Bohr mag/cell

     iteration #  9     ecut=    40.00 Ry     beta= 0.50
     Davidson diagonalization with overlap
     ethr =  4.25E-08,  avg # of iterations =  1.6

     total cpu time spent up to now is        0.9 secs

     total energy              =     -87.85070807 Ry
     estimated scf accuracy    <       0.00000079 Ry

     total magnetization       =     0.00 Bohr mag/cell
     absolute magnetization    =     0.00 Bohr mag/cell

     iteration # 10     ecut=    40.00 Ry     beta= 0.50
     Davidson diagonalization with overlap
     ethr =  7.20E-09,  avg # of iterations =  1.1

     Magnetic moment per site  (integrated on atomic sphere of radius R)
     atom   1 (R=0.412)  charge=  9.7813  magn= -0.0000

     total cpu time spent up to now is        1.0 secs

     End of self-consistent calculation

 ------ SPIN UP ------------


          k = 0.0000 0.0000 0.0000 (   331 PWs)   bands (ev):

     5.6337  12.1122  12.1122  12.1122  13.0774  13.0774  40.4906  43.0182
    43.0182  43.0182

          k = 0.1414 0.1414-0.1414 (   311 PWs)   bands (ev):

     7.1264  11.8601  12.3006  12.3006  13.0771  13.0771  31.7467  40.5407
    40.7908  40.7908

          k = 0.2828 0.2828-0.2828 (   311 PWs)   bands (ev):

     9.6661  12.1252  12.1252  13.0746  13.6199  13.6199  22.2269  38.8813
    39.6466  39.6466

          k = 0.2828 0.0000 0.0000 (   303 PWs)   bands (ev):

     7.5975  11.5292  12.6231  12.6293  12.6293  13.2978  35.7355  35.7355
    36.9882  37.9800

          k = 0.4243 0.1414-0.1414 (   316 PWs)   bands (ev):

     9.9272  11.2828  12.0894  12.7194  13.7021  14.3491  25.9811  33.2122
    33.8245  37.3456

          k =-0.1414-0.4243 0.4243 (   307 PWs)   bands (ev):

    10.5779  11.5605  12.1351  12.5414  13.5899  17.1650  20.8415  29.8875
    35.6262  37.9419

          k = 0.0000-0.2828 0.2828 (   311 PWs)   bands (ev):

     9.2213  11.5398  12.0916  12.6793  12.7933  14.1215  28.8638  29.8922
    40.8400  40.9916

          k = 0.5657 0.0000 0.0000 (   322 PWs)   bands (ev):

     9.9939  10.6336  13.6606  13.6924  13.6924  14.9785  26.6809  30.4536
    30.4536  34.8393

          k = 0.0000-0.5657 0.5657 (   310 PWs)   bands (ev):

    10.4435  10.7817  12.7655  13.3820  13.7662  19.2848  23.3142  24.3468
    31.1603  36.2676

          k =-0.1414-0.4243 0.7071 (   305 PWs)   bands (ev):

    10.8422  11.2227  11.7466  13.1257  13.6862  18.0421  24.4615  26.2812
    28.2678  43.8679

 ------ SPIN DOWN ----------


          k = 0.0000 0.0000 0.0000 (   331 PWs)   bands (ev):

     5.6336  12.1122  12.1122  12.1122  13.0774  13.0774  40.4903  43.0181
    43.0181  43.0181

          k = 0.1414 0.1414-0.1414 (   311 PWs)   bands (ev):

     7.1263  11.8601  12.3006  12.3006  13.0771  13.0771  31.7466  40.5405
    40.7908  40.7908

          k = 0.2828 0.2828-0.2828 (   311 PWs)   bands (ev):

     9.6661  12.1252  12.1252  13.0745  13.6200  13.6200  22.2269  38.8812
    39.6466  39.6466

          k = 0.2828 0.0000 0.0000 (   303 PWs)   bands (ev):

     7.5973  11.5292  12.6231  12.6293  12.6293  13.2979  35.7355  35.7355
    36.9880  37.9800

          k = 0.4243 0.1414-0.1414 (   316 PWs)   bands (ev):

     9.9271  11.2828  12.0894  12.7194  13.7022  14.3491  25.9811  33.2121
    33.8244  37.3455

          k =-0.1414-0.4243 0.4243 (   307 PWs)   bands (ev):

    10.5778  11.5605  12.1351  12.5415  13.5899  17.1649  20.8415  29.8875
    35.6261  37.9417

          k = 0.0000-0.2828 0.2828 (   311 PWs)   bands (ev):

     9.2212  11.5398  12.0916  12.6793  12.7933  14.1215  28.8637  29.8922
    40.8399  40.9915

          k = 0.5657 0.0000 0.0000 (   322 PWs)   bands (ev):

     9.9939  10.6336  13.6607  13.6924  13.6924  14.9784  26.6808  30.4536
    30.4536  34.8391

          k = 0.0000-0.5657 0.5657 (   310 PWs)   bands (ev):

    10.4435  10.7817  12.7655  13.3820  13.7663  19.2847  23.3142  24.3468
    31.1602  36.2675

          k =-0.1414-0.4243 0.7071 (   305 PWs)   bands (ev):

    10.8422  11.2227  11.7466  13.1257  13.6863  18.0420  24.4614  26.2812
    28.2678  43.8679

     the Fermi energy is    15.0031 ev

!    total energy              =     -87.85070818 Ry
     estimated scf accuracy    <       0.00000002 Ry
     smearing contrib. (-TS)   =      -0.00022844 Ry
     internal energy E=F+TS    =     -87.85047974 Ry

     The total energy is F=E-TS. E is the sum of the following terms:
     one-electron contribution =      -8.07598222 Ry
     hartree contribution      =      18.19646148 Ry
     xc contribution           =     -14.09360257 Ry
     ewald contribution        =     -83.87735643 Ry

     total magnetization       =    -0.00 Bohr mag/cell
     absolute magnetization    =     0.00 Bohr mag/cell

     convergence has been achieved in  10 iterations

     Forces acting on atoms (cartesian axes, Ry/au):

     atom    1 type  1   force =     0.00000000    0.00000000    0.00000000
     The non-local contrib.  to forces
     atom    1 type  1   force =    -0.00000000    0.00000000   -0.00000000
     The ionic contribution  to forces
     atom    1 type  1   force =    -0.00000000   -0.00000000   -0.00000000
     The local contribution  to forces
     atom    1 type  1   force =    -0.00000000   -0.00000000   -0.00000000
     The core correction contribution to forces
     atom    1 type  1   force =     0.00000000    0.00000000    0.00000000
     The Hubbard contrib.    to forces
     atom    1 type  1   force =     0.00000000    0.00000000    0.00000000
     The SCF correction term to forces
     atom    1 type  1   force =     0.00000000    0.00000000   -0.00000000

     Total force =     0.000000     Total SCF correction =     0.000000


     Computing stress (Cartesian axis) and pressure

          total   stress  (Ry/bohr**3)                   (kbar)     P=       78.56
   0.00053405   0.00000000   0.00000000           78.56        0.00        0.00
   0.00000000   0.00053405   0.00000000            0.00       78.56        0.00
   0.00000000   0.00000000   0.00053405            0.00        0.00       78.56


     BFGS Geometry Optimization
     Energy error            =      0.0E+00 Ry
     Gradient error          =      0.0E+00 Ry/Bohr
     Cell gradient error     =      7.9E+01 kbar

     number of scf cycles    =   1
     number of bfgs steps    =   0

     enthalpy           new  =     -87.8507081773 Ry

     new trust radius        =       0.0227101826 bohr
     new conv_thr            =       0.0000001000 Ry

     new unit-cell volume =     75.26979 a.u.^3 (    11.15383 Ang^3 )
     density =      9.46048 g/cm^3

CELL_PARAMETERS (angstrom)
   0.000000000   1.773364598   1.773364598
   1.773364598   0.000000000   1.773364598
   1.773364598   1.773364598   0.000000000

ATOMIC_POSITIONS (angstrom)
Cu            0.0000000000        0.0000000000        0.0000000000



     Writing config-only to output data dir /home/gridsan/epan1/labutil/lab3_samples/problem3/Lab3/Cu_a_3.5_ecut_40_nk_5/pwscf.save/
     NEW-OLD atomic charge density approx. for the potential
     extrapolated charge   11.42907, renormalised to   11.00000
     Generating pointlists ...

     total cpu time spent up to now is        1.2 secs

     Self-consistent Calculation

     iteration #  1     ecut=    40.00 Ry     beta= 0.50
     Davidson diagonalization with overlap
     ethr =  1.00E-06,  avg # of iterations =  3.9
     Minimization algorithm failed to find Fermi energy: reverting to bisection
     Possible cause: smearing is larger than the electronic band-gap.

     total cpu time spent up to now is        1.3 secs

     total energy              =     -87.70600353 Ry
     estimated scf accuracy    <       0.13912934 Ry

     total magnetization       =     0.00 Bohr mag/cell
     absolute magnetization    =     0.00 Bohr mag/cell

     iteration #  2     ecut=    40.00 Ry     beta= 0.50
     Davidson diagonalization with overlap
     ethr =  1.26E-03,  avg # of iterations =  2.0

     total cpu time spent up to now is        1.3 secs

     total energy              =     -87.85457667 Ry
     estimated scf accuracy    <       0.20856569 Ry

     total magnetization       =    -0.00 Bohr mag/cell
     absolute magnetization    =     0.00 Bohr mag/cell

     iteration #  3     ecut=    40.00 Ry     beta= 0.50
     Davidson diagonalization with overlap
     ethr =  1.26E-03,  avg # of iterations =  1.0

     total cpu time spent up to now is        1.4 secs

     total energy              =     -87.85358684 Ry
     estimated scf accuracy    <       0.04587310 Ry

     total magnetization       =    -0.00 Bohr mag/cell
     absolute magnetization    =     0.00 Bohr mag/cell

     iteration #  4     ecut=    40.00 Ry     beta= 0.50
     Davidson diagonalization with overlap
     ethr =  4.17E-04,  avg # of iterations =  1.0

     total cpu time spent up to now is        1.4 secs

     total energy              =     -87.85086461 Ry
     estimated scf accuracy    <       0.01317536 Ry

     total magnetization       =    -0.00 Bohr mag/cell
     absolute magnetization    =     0.00 Bohr mag/cell

     iteration #  5     ecut=    40.00 Ry     beta= 0.50
     Davidson diagonalization with overlap
     ethr =  1.20E-04,  avg # of iterations =  1.0

     total cpu time spent up to now is        1.5 secs

     total energy              =     -87.85100049 Ry
     estimated scf accuracy    <       0.00165560 Ry

     total magnetization       =    -0.00 Bohr mag/cell
     absolute magnetization    =     0.00 Bohr mag/cell

     iteration #  6     ecut=    40.00 Ry     beta= 0.50
     Davidson diagonalization with overlap
     ethr =  1.51E-05,  avg # of iterations =  1.3

     total cpu time spent up to now is        1.6 secs

     total energy              =     -87.85141676 Ry
     estimated scf accuracy    <       0.00003794 Ry

     total magnetization       =    -0.00 Bohr mag/cell
     absolute magnetization    =     0.00 Bohr mag/cell

     iteration #  7     ecut=    40.00 Ry     beta= 0.50
     Davidson diagonalization with overlap
     ethr =  3.45E-07,  avg # of iterations =  1.1

     total cpu time spent up to now is        1.6 secs

     total energy              =     -87.85140509 Ry
     estimated scf accuracy    <       0.00001800 Ry

     total magnetization       =    -0.00 Bohr mag/cell
     absolute magnetization    =     0.00 Bohr mag/cell

     iteration #  8     ecut=    40.00 Ry     beta= 0.50
     Davidson diagonalization with overlap
     ethr =  1.64E-07,  avg # of iterations =  2.0

     total cpu time spent up to now is        1.7 secs

     total energy              =     -87.85141126 Ry
     estimated scf accuracy    <       0.00001552 Ry

     total magnetization       =    -0.00 Bohr mag/cell
     absolute magnetization    =     0.00 Bohr mag/cell

     iteration #  9     ecut=    40.00 Ry     beta= 0.50
     Davidson diagonalization with overlap
     ethr =  1.41E-07,  avg # of iterations =  1.0

     total cpu time spent up to now is        1.7 secs

     total energy              =     -87.85141300 Ry
     estimated scf accuracy    <       0.00000050 Ry

     total magnetization       =    -0.00 Bohr mag/cell
     absolute magnetization    =     0.00 Bohr mag/cell

     iteration # 10     ecut=    40.00 Ry     beta= 0.50
     Davidson diagonalization with overlap
     ethr =  4.57E-09,  avg # of iterations =  1.5

     Magnetic moment per site  (integrated on atomic sphere of radius R)
     atom   1 (R=0.412)  charge=  9.7397  magn= -0.0000

     total cpu time spent up to now is        1.8 secs

     End of self-consistent calculation

 ------ SPIN UP ------------


          k = 0.0000 0.0000 0.0000 (   331 PWs)   bands (ev):

     5.1406  11.4446  11.4446  11.4446  12.3519  12.3519  39.2402  41.4827
    41.4827  41.4827

          k = 0.1396 0.1396-0.1396 (   311 PWs)   bands (ev):

     6.5934  11.2095  11.6223  11.6223  12.3524  12.3524  30.5109  39.2472
    39.2838  39.2838

          k = 0.2791 0.2791-0.2791 (   311 PWs)   bands (ev):

     9.1036  11.4580  11.4580  12.3906  12.8629  12.8629  21.1803  37.6675
    38.1444  38.1444

          k = 0.2791 0.0000 0.0000 (   303 PWs)   bands (ev):

     7.0536  10.8978  11.9262  11.9318  11.9318  12.5594  34.3810  34.3810
    35.7038  36.7179

          k = 0.4187 0.1396-0.1396 (   316 PWs)   bands (ev):

     9.3481  10.6677  11.4241  12.0170  12.9399  13.5665  24.8755  31.9605
    32.5257  35.9598

          k =-0.1396-0.4187 0.4187 (   307 PWs)   bands (ev):

     9.9891  10.9333  11.4746  11.8501  12.8348  16.3207  19.8238  28.6906
    34.2680  36.5903

          k = 0.0000-0.2791 0.2791 (   311 PWs)   bands (ev):

     8.6425  10.9087  11.4288  11.9797  12.0858  13.3388  27.7052  28.6811
    39.3215  39.5982

          k = 0.5582 0.0000 0.0000 (   322 PWs)   bands (ev):

     9.4426  10.0550  12.9007  12.9314  12.9314  14.2147  25.5442  29.2676
    29.2676  33.5559

          k = 0.0000-0.5582 0.5582 (   310 PWs)   bands (ev):

     9.8771  10.1945  12.0670  12.6400  13.0005  18.4002  22.3151  23.2035
    29.9488  34.9113

          k =-0.1396-0.4187 0.6978 (   305 PWs)   bands (ev):

    10.2540  10.6101  11.1019  12.4002  12.9255  17.1506  23.4207  25.1664
    27.0721  42.3740

 ------ SPIN DOWN ----------


          k = 0.0000 0.0000 0.0000 (   331 PWs)   bands (ev):

     5.1406  11.4446  11.4446  11.4446  12.3519  12.3519  39.2402  41.4827
    41.4827  41.4827

          k = 0.1396 0.1396-0.1396 (   311 PWs)   bands (ev):

     6.5934  11.2095  11.6223  11.6223  12.3524  12.3524  30.5109  39.2472
    39.2838  39.2838

          k = 0.2791 0.2791-0.2791 (   311 PWs)   bands (ev):

     9.1036  11.4580  11.4580  12.3906  12.8629  12.8629  21.1803  37.6675
    38.1444  38.1444

          k = 0.2791 0.0000 0.0000 (   303 PWs)   bands (ev):

     7.0536  10.8978  11.9262  11.9318  11.9318  12.5594  34.3810  34.3810
    35.7038  36.7179

          k = 0.4187 0.1396-0.1396 (   316 PWs)   bands (ev):

     9.3481  10.6677  11.4241  12.0170  12.9399  13.5665  24.8755  31.9605
    32.5257  35.9598

          k =-0.1396-0.4187 0.4187 (   307 PWs)   bands (ev):

     9.9891  10.9333  11.4746  11.8501  12.8348  16.3207  19.8238  28.6906
    34.2680  36.5903

          k = 0.0000-0.2791 0.2791 (   311 PWs)   bands (ev):

     8.6425  10.9087  11.4288  11.9797  12.0858  13.3388  27.7052  28.6811
    39.3215  39.5982

          k = 0.5582 0.0000 0.0000 (   322 PWs)   bands (ev):

     9.4426  10.0550  12.9007  12.9314  12.9314  14.2147  25.5442  29.2676
    29.2676  33.5559

          k = 0.0000-0.5582 0.5582 (   310 PWs)   bands (ev):

     9.8771  10.1945  12.0670  12.6400  13.0005  18.4002  22.3151  23.2035
    29.9488  34.9113

          k =-0.1396-0.4187 0.6978 (   305 PWs)   bands (ev):

    10.2540  10.6101  11.1019  12.4002  12.9255  17.1506  23.4207  25.1664
    27.0721  42.3740

     the Fermi energy is    14.2399 ev

!    total energy              =     -87.85141312 Ry
     estimated scf accuracy    <          3.1E-09 Ry
     smearing contrib. (-TS)   =      -0.00023698 Ry
     internal energy E=F+TS    =     -87.85117614 Ry

     The total energy is F=E-TS. E is the sum of the following terms:
     one-electron contribution =      -9.75817796 Ry
     hartree contribution      =      18.74831923 Ry
     xc contribution           =     -14.06906970 Ry
     ewald contribution        =     -82.77224770 Ry

     total magnetization       =    -0.00 Bohr mag/cell
     absolute magnetization    =     0.00 Bohr mag/cell

     convergence has been achieved in  10 iterations

     Forces acting on atoms (cartesian axes, Ry/au):

     atom    1 type  1   force =     0.00000000    0.00000000    0.00000000
     The non-local contrib.  to forces
     atom    1 type  1   force =     0.00000000    0.00000000    0.00000000
     The ionic contribution  to forces
     atom    1 type  1   force =    -0.00000000   -0.00000000   -0.00000000
     The local contribution  to forces
     atom    1 type  1   force =     0.00000000    0.00000000   -0.00000000
     The core correction contribution to forces
     atom    1 type  1   force =     0.00000000    0.00000000    0.00000000
     The Hubbard contrib.    to forces
     atom    1 type  1   force =     0.00000000    0.00000000    0.00000000
     The SCF correction term to forces
     atom    1 type  1   force =    -0.00000000   -0.00000000   -0.00000000

     Total force =     0.000000     Total SCF correction =     0.000000


     Computing stress (Cartesian axis) and pressure

          total   stress  (Ry/bohr**3)                   (kbar)     P=       -2.99
  -0.00002034  -0.00000000  -0.00000000           -2.99       -0.00       -0.00
  -0.00000000  -0.00002034  -0.00000000           -0.00       -2.99       -0.00
  -0.00000000  -0.00000000  -0.00002034           -0.00       -0.00       -2.99

     Energy error            =      7.0E-04 Ry
     Gradient error          =      0.0E+00 Ry/Bohr
     Cell gradient error     =      3.0E+00 kbar

     number of scf cycles    =   2
     number of bfgs steps    =   1

     enthalpy           old  =     -87.8507081773 Ry
     enthalpy           new  =     -87.8514131160 Ry

     CASE: enthalpy          _new < enthalpy          _old

     new trust radius        =       0.0008605779 bohr
     new conv_thr            =       0.0000000010 Ry

     new unit-cell volume =     75.15785 a.u.^3 (    11.13724 Ang^3 )
     density =      9.47457 g/cm^3

CELL_PARAMETERS (angstrom)
   0.000000000   1.772485073   1.772485073
   1.772485073   0.000000000   1.772485073
   1.772485073   1.772485073   0.000000000

ATOMIC_POSITIONS (angstrom)
Cu            0.0000000000        0.0000000000        0.0000000000



     Writing config-only to output data dir /home/gridsan/epan1/labutil/lab3_samples/problem3/Lab3/Cu_a_3.5_ecut_40_nk_5/pwscf.save/
     NEW-OLD atomic charge density approx. for the potential
     extrapolated charge   10.98362, renormalised to   11.00000
     Generating pointlists ...

     total cpu time spent up to now is        2.0 secs

     Self-consistent Calculation

     iteration #  1     ecut=    40.00 Ry     beta= 0.50
     Davidson diagonalization with overlap
     ethr =  1.00E-06,  avg # of iterations =  2.0

     total cpu time spent up to now is        2.0 secs

     total energy              =     -87.85124046 Ry
     estimated scf accuracy    <       0.00016312 Ry

     total magnetization       =    -0.00 Bohr mag/cell
     absolute magnetization    =     0.00 Bohr mag/cell

     iteration #  2     ecut=    40.00 Ry     beta= 0.50
     Davidson diagonalization with overlap
     ethr =  1.48E-06,  avg # of iterations =  2.0

     total cpu time spent up to now is        2.1 secs

     total energy              =     -87.85141081 Ry
     estimated scf accuracy    <       0.00026662 Ry

     total magnetization       =    -0.00 Bohr mag/cell
     absolute magnetization    =     0.00 Bohr mag/cell

     iteration #  3     ecut=    40.00 Ry     beta= 0.50
     Davidson diagonalization with overlap
     ethr =  1.48E-06,  avg # of iterations =  1.0

     total cpu time spent up to now is        2.2 secs

     total energy              =     -87.85142392 Ry
     estimated scf accuracy    <       0.00004738 Ry

     total magnetization       =    -0.00 Bohr mag/cell
     absolute magnetization    =     0.00 Bohr mag/cell

     iteration #  4     ecut=    40.00 Ry     beta= 0.50
     Davidson diagonalization with overlap
     ethr =  4.31E-07,  avg # of iterations =  1.0

     total cpu time spent up to now is        2.2 secs

     total energy              =     -87.85140636 Ry
     estimated scf accuracy    <       0.00003490 Ry

     total magnetization       =    -0.00 Bohr mag/cell
     absolute magnetization    =     0.00 Bohr mag/cell

     iteration #  5     ecut=    40.00 Ry     beta= 0.50
     Davidson diagonalization with overlap
     ethr =  3.17E-07,  avg # of iterations =  1.2

     total cpu time spent up to now is        2.3 secs

     total energy              =     -87.85141362 Ry
     estimated scf accuracy    <       0.00000002 Ry

     total magnetization       =    -0.00 Bohr mag/cell
     absolute magnetization    =     0.00 Bohr mag/cell

     iteration #  6     ecut=    40.00 Ry     beta= 0.50
     Davidson diagonalization with overlap
     ethr =  2.02E-10,  avg # of iterations =  3.1

     total cpu time spent up to now is        2.4 secs

     total energy              =     -87.85141322 Ry
     estimated scf accuracy    <       0.00000123 Ry

     total magnetization       =     0.00 Bohr mag/cell
     absolute magnetization    =     0.00 Bohr mag/cell

     iteration #  7     ecut=    40.00 Ry     beta= 0.50
     Davidson diagonalization with overlap
     ethr =  2.02E-10,  avg # of iterations =  2.5

     Magnetic moment per site  (integrated on atomic sphere of radius R)
     atom   1 (R=0.412)  charge=  9.7412  magn=  0.0000

     total cpu time spent up to now is        2.4 secs

     End of self-consistent calculation

 ------ SPIN UP ------------


          k = 0.0000 0.0000 0.0000 (   331 PWs)   bands (ev):

     5.1586  11.4689  11.4689  11.4689  12.3783  12.3783  39.2862  41.5393
    41.5393  41.5393

          k = 0.1396 0.1396-0.1396 (   311 PWs)   bands (ev):

     6.6129  11.2332  11.6469  11.6469  12.3787  12.3787  30.5562  39.2949
    39.3392  39.3392

          k = 0.2793 0.2793-0.2793 (   311 PWs)   bands (ev):

     9.1241  11.4823  11.4823  12.4156  12.8904  12.8904  21.2186  37.7122
    38.1996  38.1996

          k = 0.2793 0.0000 0.0000 (   303 PWs)   bands (ev):

     7.0735  10.9208  11.9516  11.9572  11.9572  12.5862  34.4307  34.4307
    35.7509  36.7643

          k = 0.4189 0.1396-0.1396 (   316 PWs)   bands (ev):

     9.3693  10.6902  11.4483  12.0425  12.9676  13.5950  24.9160  32.0065
    32.5734  36.0106

          k =-0.1396-0.4189 0.4189 (   307 PWs)   bands (ev):

    10.0106  10.9562  11.4986  11.8753  12.8623  16.3516  19.8610  28.7346
    34.3178  36.6400

          k = 0.0000-0.2793 0.2793 (   311 PWs)   bands (ev):

     8.6637  10.9317  11.4529  12.0051  12.1116  13.3673  27.7476  28.7256
    39.3772  39.6494

          k = 0.5585 0.0000 0.0000 (   322 PWs)   bands (ev):

     9.4628  10.0760  12.9283  12.9591  12.9591  14.2426  25.5859  29.3111
    29.3111  33.6029

          k = 0.0000-0.5585 0.5585 (   310 PWs)   bands (ev):

     9.8977  10.2159  12.0924  12.6670  13.0283  18.4325  22.3517  23.2454
    29.9933  34.9611

          k =-0.1396-0.4189 0.6981 (   305 PWs)   bands (ev):

    10.2754  10.6325  11.1253  12.4266  12.9532  17.1832  23.4588  25.2073
    27.1159  42.4288

 ------ SPIN DOWN ----------


          k = 0.0000 0.0000 0.0000 (   331 PWs)   bands (ev):

     5.1586  11.4689  11.4689  11.4689  12.3783  12.3783  39.2862  41.5393
    41.5393  41.5393

          k = 0.1396 0.1396-0.1396 (   311 PWs)   bands (ev):

     6.6129  11.2332  11.6469  11.6469  12.3787  12.3787  30.5562  39.2949
    39.3392  39.3392

          k = 0.2793 0.2793-0.2793 (   311 PWs)   bands (ev):

     9.1241  11.4823  11.4823  12.4156  12.8904  12.8904  21.2186  37.7122
    38.1996  38.1996

          k = 0.2793 0.0000 0.0000 (   303 PWs)   bands (ev):

     7.0735  10.9208  11.9516  11.9572  11.9572  12.5862  34.4307  34.4307
    35.7509  36.7643

          k = 0.4189 0.1396-0.1396 (   316 PWs)   bands (ev):

     9.3693  10.6902  11.4483  12.0425  12.9676  13.5950  24.9160  32.0065
    32.5734  36.0106

          k =-0.1396-0.4189 0.4189 (   307 PWs)   bands (ev):

    10.0106  10.9562  11.4986  11.8753  12.8623  16.3516  19.8610  28.7346
    34.3178  36.6400

          k = 0.0000-0.2793 0.2793 (   311 PWs)   bands (ev):

     8.6637  10.9317  11.4529  12.0051  12.1116  13.3673  27.7476  28.7256
    39.3772  39.6494

          k = 0.5585 0.0000 0.0000 (   322 PWs)   bands (ev):

     9.4628  10.0760  12.9283  12.9591  12.9591  14.2426  25.5859  29.3111
    29.3111  33.6029

          k = 0.0000-0.5585 0.5585 (   310 PWs)   bands (ev):

     9.8977  10.2159  12.0924  12.6670  13.0283  18.4325  22.3517  23.2454
    29.9933  34.9611

          k =-0.1396-0.4189 0.6981 (   305 PWs)   bands (ev):

    10.2754  10.6325  11.1253  12.4266  12.9532  17.1832  23.4588  25.2073
    27.1159  42.4288

     the Fermi energy is    14.2678 ev

!    total energy              =     -87.85141345 Ry
     estimated scf accuracy    <          7.5E-11 Ry
     smearing contrib. (-TS)   =      -0.00023675 Ry
     internal energy E=F+TS    =     -87.85117670 Ry

     The total energy is F=E-TS. E is the sum of the following terms:
     one-electron contribution =      -9.69571660 Ry
     hartree contribution      =      18.72787593 Ry
     xc contribution           =     -14.07001593 Ry
     ewald contribution        =     -82.81332010 Ry

     total magnetization       =    -0.00 Bohr mag/cell
     absolute magnetization    =     0.00 Bohr mag/cell

     convergence has been achieved in   7 iterations

     Forces acting on atoms (cartesian axes, Ry/au):

     atom    1 type  1   force =     0.00000000    0.00000000    0.00000000
     The non-local contrib.  to forces
     atom    1 type  1   force =    -0.00000000   -0.00000000    0.00000000
     The ionic contribution  to forces
     atom    1 type  1   force =    -0.00000000   -0.00000000   -0.00000000
     The local contribution  to forces
     atom    1 type  1   force =     0.00000000    0.00000000   -0.00000000
     The core correction contribution to forces
     atom    1 type  1   force =     0.00000000    0.00000000    0.00000000
     The Hubbard contrib.    to forces
     atom    1 type  1   force =     0.00000000    0.00000000    0.00000000
     The SCF correction term to forces
     atom    1 type  1   force =     0.00000000   -0.00000000   -0.00000000

     Total force =     0.000000     Total SCF correction =     0.000000


     Computing stress (Cartesian axis) and pressure

          total   stress  (Ry/bohr**3)                   (kbar)     P=        1.06
   0.00000723   0.00000000   0.00000000            1.06        0.00        0.00
   0.00000000   0.00000723   0.00000000            0.00        1.06        0.00
   0.00000000   0.00000000   0.00000723            0.00        0.00        1.06

     Energy error            =      3.3E-07 Ry
     Gradient error          =      0.0E+00 Ry/Bohr
     Cell gradient error     =      1.1E+00 kbar

     number of scf cycles    =   3
     number of bfgs steps    =   2

     enthalpy           old  =     -87.8514131160 Ry
     enthalpy           new  =     -87.8514134496 Ry

     CASE: enthalpy          _new < enthalpy          _old

     new trust radius        =       0.0002254247 bohr
     new conv_thr            =       0.0000000010 Ry

     new unit-cell volume =     75.18717 a.u.^3 (    11.14159 Ang^3 )
     density =      9.47088 g/cm^3

CELL_PARAMETERS (angstrom)
   0.000000000   1.772715518   1.772715518
   1.772715518   0.000000000   1.772715518
   1.772715518   1.772715518   0.000000000

ATOMIC_POSITIONS (angstrom)
Cu            0.0000000000        0.0000000000        0.0000000000



     Writing config-only to output data dir /home/gridsan/epan1/labutil/lab3_samples/problem3/Lab3/Cu_a_3.5_ecut_40_nk_5/pwscf.save/
     NEW-OLD atomic charge density approx. for the potential
     extrapolated charge   11.00429, renormalised to   11.00000
     Generating pointlists ...

     total cpu time spent up to now is        2.6 secs

     Self-consistent Calculation

     iteration #  1     ecut=    40.00 Ry     beta= 0.50
     Davidson diagonalization with overlap
     ethr =  1.00E-06,  avg # of iterations =  2.0

     total cpu time spent up to now is        2.6 secs

     total energy              =     -87.85140170 Ry
     estimated scf accuracy    <       0.00001115 Ry

     total magnetization       =    -0.00 Bohr mag/cell
     absolute magnetization    =     0.00 Bohr mag/cell

     iteration #  2     ecut=    40.00 Ry     beta= 0.50
     Davidson diagonalization with overlap
     ethr =  1.01E-07,  avg # of iterations =  2.0

     total cpu time spent up to now is        2.7 secs

     total energy              =     -87.85141338 Ry
     estimated scf accuracy    <       0.00001834 Ry

     total magnetization       =    -0.00 Bohr mag/cell
     absolute magnetization    =     0.00 Bohr mag/cell

     iteration #  3     ecut=    40.00 Ry     beta= 0.50
     Davidson diagonalization with overlap
     ethr =  1.01E-07,  avg # of iterations =  1.0

     total cpu time spent up to now is        2.8 secs

     total energy              =     -87.85141419 Ry
     estimated scf accuracy    <       0.00000327 Ry

     total magnetization       =    -0.00 Bohr mag/cell
     absolute magnetization    =     0.00 Bohr mag/cell

     iteration #  4     ecut=    40.00 Ry     beta= 0.50
     Davidson diagonalization with overlap
     ethr =  2.97E-08,  avg # of iterations =  1.0

     total cpu time spent up to now is        2.8 secs

     total energy              =     -87.85141327 Ry
     estimated scf accuracy    <       0.00000214 Ry

     total magnetization       =    -0.00 Bohr mag/cell
     absolute magnetization    =     0.00 Bohr mag/cell

     iteration #  5     ecut=    40.00 Ry     beta= 0.50
     Davidson diagonalization with overlap
     ethr =  1.95E-08,  avg # of iterations =  1.0

     total cpu time spent up to now is        2.9 secs

     total energy              =     -87.85141353 Ry
     estimated scf accuracy    <       0.00000005 Ry

     total magnetization       =    -0.00 Bohr mag/cell
     absolute magnetization    =     0.00 Bohr mag/cell

     iteration #  6     ecut=    40.00 Ry     beta= 0.50
     Davidson diagonalization with overlap
     ethr =  4.56E-10,  avg # of iterations =  2.0

     total cpu time spent up to now is        2.9 secs

     total energy              =     -87.85141354 Ry
     estimated scf accuracy    <       0.00000008 Ry

     total magnetization       =    -0.00 Bohr mag/cell
     absolute magnetization    =     0.00 Bohr mag/cell

     iteration #  7     ecut=    40.00 Ry     beta= 0.50
     Davidson diagonalization with overlap
     ethr =  4.56E-10,  avg # of iterations =  1.2

     total cpu time spent up to now is        3.0 secs

     total energy              =     -87.85141355 Ry
     estimated scf accuracy    <          1.1E-09 Ry

     total magnetization       =    -0.00 Bohr mag/cell
     absolute magnetization    =     0.00 Bohr mag/cell

     iteration #  8     ecut=    40.00 Ry     beta= 0.50
     Davidson diagonalization with overlap
     ethr =  9.59E-12,  avg # of iterations =  2.0

     Magnetic moment per site  (integrated on atomic sphere of radius R)
     atom   1 (R=0.412)  charge=  9.7408  magn=  0.0000

     total cpu time spent up to now is        3.1 secs

     End of self-consistent calculation

 ------ SPIN UP ------------


          k = 0.0000 0.0000 0.0000 (   331 PWs)   bands (ev):

     5.1538  11.4625  11.4625  11.4625  12.3713  12.3713  39.2741  41.5244
    41.5244  41.5244

          k = 0.1396 0.1396-0.1396 (   311 PWs)   bands (ev):

     6.6078  11.2269  11.6404  11.6404  12.3718  12.3718  30.5443  39.2824
    39.3246  39.3246

          k = 0.2792 0.2792-0.2792 (   311 PWs)   bands (ev):

     9.1187  11.4758  11.4758  12.4090  12.8831  12.8831  21.2086  37.7005
    38.1851  38.1851

          k = 0.2792 0.0000 0.0000 (   303 PWs)   bands (ev):

     7.0683  10.9147  11.9449  11.9505  11.9505  12.5791  34.4176  34.4176
    35.7385  36.7521

          k = 0.4188 0.1396-0.1396 (   316 PWs)   bands (ev):

     9.3637  10.6842  11.4419  12.0357  12.9603  13.5875  24.9054  31.9944
    32.5609  35.9973

          k =-0.1396-0.4188 0.4188 (   307 PWs)   bands (ev):

    10.0049  10.9501  11.4923  11.8686  12.8550  16.3435  19.8512  28.7230
    34.3048  36.6269

          k = 0.0000-0.2792 0.2792 (   311 PWs)   bands (ev):

     8.6581  10.9256  11.4465  11.9984  12.1047  13.3597  27.7365  28.7139
    39.3626  39.6360

          k = 0.5584 0.0000 0.0000 (   322 PWs)   bands (ev):

     9.4574  10.0705  12.9210  12.9517  12.9517  14.2352  25.5750  29.2997
    29.2997  33.5905

          k = 0.0000-0.5584 0.5584 (   310 PWs)   bands (ev):

     9.8923  10.2102  12.0857  12.6598  13.0209  18.4240  22.3420  23.2344
    29.9816  34.9480

          k =-0.1396-0.4188 0.6980 (   305 PWs)   bands (ev):

    10.2698  10.6265  11.1191  12.4196  12.9459  17.1746  23.4488  25.1966
    27.1044  42.4144

 ------ SPIN DOWN ----------


          k = 0.0000 0.0000 0.0000 (   331 PWs)   bands (ev):

     5.1538  11.4625  11.4625  11.4625  12.3713  12.3713  39.2741  41.5244
    41.5244  41.5244

          k = 0.1396 0.1396-0.1396 (   311 PWs)   bands (ev):

     6.6078  11.2269  11.6404  11.6404  12.3718  12.3718  30.5443  39.2824
    39.3246  39.3246

          k = 0.2792 0.2792-0.2792 (   311 PWs)   bands (ev):

     9.1187  11.4758  11.4758  12.4090  12.8831  12.8831  21.2086  37.7005
    38.1851  38.1851

          k = 0.2792 0.0000 0.0000 (   303 PWs)   bands (ev):

     7.0683  10.9147  11.9449  11.9505  11.9505  12.5791  34.4176  34.4176
    35.7385  36.7521

          k = 0.4188 0.1396-0.1396 (   316 PWs)   bands (ev):

     9.3637  10.6842  11.4419  12.0357  12.9603  13.5875  24.9054  31.9944
    32.5609  35.9973

          k =-0.1396-0.4188 0.4188 (   307 PWs)   bands (ev):

    10.0049  10.9501  11.4923  11.8686  12.8550  16.3435  19.8512  28.7230
    34.3048  36.6269

          k = 0.0000-0.2792 0.2792 (   311 PWs)   bands (ev):

     8.6581  10.9256  11.4465  11.9984  12.1047  13.3597  27.7365  28.7139
    39.3626  39.6360

          k = 0.5584 0.0000 0.0000 (   322 PWs)   bands (ev):

     9.4574  10.0705  12.9210  12.9517  12.9517  14.2352  25.5750  29.2997
    29.2997  33.5905

          k = 0.0000-0.5584 0.5584 (   310 PWs)   bands (ev):

     9.8923  10.2102  12.0857  12.6598  13.0209  18.4240  22.3420  23.2344
    29.9816  34.9480

          k =-0.1396-0.4188 0.6980 (   305 PWs)   bands (ev):

    10.2698  10.6265  11.1191  12.4196  12.9459  17.1746  23.4488  25.1966
    27.1044  42.4144

     the Fermi energy is    14.2605 ev

!    total energy              =     -87.85141355 Ry
     estimated scf accuracy    <          2.5E-11 Ry
     smearing contrib. (-TS)   =      -0.00023682 Ry
     internal energy E=F+TS    =     -87.85117673 Ry

     The total energy is F=E-TS. E is the sum of the following terms:
     one-electron contribution =      -9.71213827 Ry
     hartree contribution      =      18.73329762 Ry
     xc contribution           =     -14.06978132 Ry
     ewald contribution        =     -82.80255475 Ry

     total magnetization       =     0.00 Bohr mag/cell
     absolute magnetization    =     0.00 Bohr mag/cell

     convergence has been achieved in   8 iterations

     Forces acting on atoms (cartesian axes, Ry/au):

     atom    1 type  1   force =     0.00000000    0.00000000    0.00000000
     The non-local contrib.  to forces
     atom    1 type  1   force =     0.00000000    0.00000000    0.00000000
     The ionic contribution  to forces
     atom    1 type  1   force =    -0.00000000   -0.00000000   -0.00000000
     The local contribution  to forces
     atom    1 type  1   force =    -0.00000000   -0.00000000    0.00000000
     The core correction contribution to forces
     atom    1 type  1   force =     0.00000000    0.00000000    0.00000000
     The Hubbard contrib.    to forces
     atom    1 type  1   force =     0.00000000    0.00000000    0.00000000
     The SCF correction term to forces
     atom    1 type  1   force =    -0.00000000   -0.00000000   -0.00000000

     Total force =     0.000000     Total SCF correction =     0.000000


     Computing stress (Cartesian axis) and pressure

          total   stress  (Ry/bohr**3)                   (kbar)     P=        0.30
   0.00000206   0.00000000   0.00000000            0.30        0.00        0.00
   0.00000000   0.00000206   0.00000000            0.00        0.30        0.00
   0.00000000   0.00000000   0.00000206            0.00        0.00        0.30

     Energy error            =      1.0E-07 Ry
     Gradient error          =      0.0E+00 Ry/Bohr
     Cell gradient error     =      3.0E-01 kbar
Begin final coordinates
     new unit-cell volume =     75.18717 a.u.^3 (    11.14159 Ang^3 )
     density =      9.47088 g/cm^3

CELL_PARAMETERS (angstrom)
   0.000000000   1.772715518   1.772715518
   1.772715518   0.000000000   1.772715518
   1.772715518   1.772715518   0.000000000

ATOMIC_POSITIONS (angstrom)
Cu            0.0000000000        0.0000000000        0.0000000000
End final coordinates



     Writing config-only to output data dir /home/gridsan/epan1/labutil/lab3_samples/problem3/Lab3/Cu_a_3.5_ecut_40_nk_5/pwscf.save/

     lsda relaxation :  a final configuration with zero
                        absolute magnetization has been found

     the program is checking if it is really the minimum energy structure
     by performing a new scf iteration without any "electronic" history

     Initial potential from superposition of free atoms

     starting charge      10.9997, renormalised to      11.0000

     total cpu time spent up to now is        3.2 secs

     Self-consistent Calculation

     iteration #  1     ecut=    40.00 Ry     beta= 0.50
     Davidson diagonalization with overlap
     ethr =  1.00E-06,  avg # of iterations =  3.9

     total cpu time spent up to now is        3.3 secs

     total energy              =     -86.97304102 Ry
     estimated scf accuracy    <       1.46530990 Ry

     total magnetization       =     1.71 Bohr mag/cell
     absolute magnetization    =     1.89 Bohr mag/cell

     iteration #  2     ecut=    40.00 Ry     beta= 0.50
     Davidson diagonalization with overlap
     ethr =  1.00E-02,  avg # of iterations =  1.6

     total cpu time spent up to now is        3.4 secs

     total energy              =     -87.61101924 Ry
     estimated scf accuracy    <       0.82297011 Ry

     total magnetization       =     0.04 Bohr mag/cell
     absolute magnetization    =     0.57 Bohr mag/cell

     iteration #  3     ecut=    40.00 Ry     beta= 0.50
     Davidson diagonalization with overlap
     ethr =  7.48E-03,  avg # of iterations =  1.0

     negative rho (up, down):  0.000E+00 1.035E-06

     total cpu time spent up to now is        3.4 secs

     total energy              =     -87.80429061 Ry
     estimated scf accuracy    <       0.25221533 Ry

     total magnetization       =     0.03 Bohr mag/cell
     absolute magnetization    =     0.54 Bohr mag/cell

     iteration #  4     ecut=    40.00 Ry     beta= 0.50
     Davidson diagonalization with overlap
     ethr =  2.29E-03,  avg # of iterations =  1.5

     negative rho (up, down):  0.000E+00 9.950E-08

     total cpu time spent up to now is        3.5 secs

     total energy              =     -87.82554168 Ry
     estimated scf accuracy    <       0.10967997 Ry

     total magnetization       =    -0.04 Bohr mag/cell
     absolute magnetization    =     0.04 Bohr mag/cell

     iteration #  5     ecut=    40.00 Ry     beta= 0.50
     Davidson diagonalization with overlap
     ethr =  9.97E-04,  avg # of iterations =  1.1

     total cpu time spent up to now is        3.5 secs

     total energy              =     -87.85027443 Ry
     estimated scf accuracy    <       0.00158146 Ry

     total magnetization       =    -0.04 Bohr mag/cell
     absolute magnetization    =     0.05 Bohr mag/cell

     iteration #  6     ecut=    40.00 Ry     beta= 0.50
     Davidson diagonalization with overlap
     ethr =  1.44E-05,  avg # of iterations =  1.6

     total cpu time spent up to now is        3.6 secs

     total energy              =     -87.85125714 Ry
     estimated scf accuracy    <       0.00065349 Ry

     total magnetization       =    -0.00 Bohr mag/cell
     absolute magnetization    =     0.05 Bohr mag/cell

     iteration #  7     ecut=    40.00 Ry     beta= 0.50
     Davidson diagonalization with overlap
     ethr =  5.94E-06,  avg # of iterations =  1.1

     total cpu time spent up to now is        3.6 secs

     total energy              =     -87.85140115 Ry
     estimated scf accuracy    <       0.00005894 Ry

     total magnetization       =     0.00 Bohr mag/cell
     absolute magnetization    =     0.01 Bohr mag/cell

     iteration #  8     ecut=    40.00 Ry     beta= 0.50
     Davidson diagonalization with overlap
     ethr =  5.36E-07,  avg # of iterations =  1.1

     total cpu time spent up to now is        3.7 secs

     total energy              =     -87.85141095 Ry
     estimated scf accuracy    <       0.00000495 Ry

     total magnetization       =    -0.00 Bohr mag/cell
     absolute magnetization    =     0.01 Bohr mag/cell

     iteration #  9     ecut=    40.00 Ry     beta= 0.50
     Davidson diagonalization with overlap
     ethr =  4.50E-08,  avg # of iterations =  1.6

     total cpu time spent up to now is        3.8 secs

     total energy              =     -87.85141339 Ry
     estimated scf accuracy    <       0.00000111 Ry

     total magnetization       =    -0.00 Bohr mag/cell
     absolute magnetization    =     0.00 Bohr mag/cell

     iteration # 10     ecut=    40.00 Ry     beta= 0.50
     Davidson diagonalization with overlap
     ethr =  1.01E-08,  avg # of iterations =  1.1

     total cpu time spent up to now is        3.8 secs

     total energy              =     -87.85141355 Ry
     estimated scf accuracy    <       0.00000003 Ry

     total magnetization       =    -0.00 Bohr mag/cell
     absolute magnetization    =     0.00 Bohr mag/cell

     iteration # 11     ecut=    40.00 Ry     beta= 0.50
     Davidson diagonalization with overlap
     ethr =  2.61E-10,  avg # of iterations =  1.7

     total cpu time spent up to now is        3.9 secs

     total energy              =     -87.85141355 Ry
     estimated scf accuracy    <          1.2E-09 Ry

     total magnetization       =    -0.00 Bohr mag/cell
     absolute magnetization    =     0.00 Bohr mag/cell

     iteration # 12     ecut=    40.00 Ry     beta= 0.50
     Davidson diagonalization with overlap
     ethr =  1.06E-11,  avg # of iterations =  1.7

     Magnetic moment per site  (integrated on atomic sphere of radius R)
     atom   1 (R=0.412)  charge=  9.7408  magn= -0.0000

     total cpu time spent up to now is        4.0 secs

     End of self-consistent calculation

 ------ SPIN UP ------------


          k = 0.0000 0.0000 0.0000 (   331 PWs)   bands (ev):

     5.1538  11.4625  11.4625  11.4625  12.3713  12.3713  39.2741  41.5244
    41.5244  41.5244

          k = 0.1396 0.1396-0.1396 (   311 PWs)   bands (ev):

     6.6078  11.2270  11.6404  11.6404  12.3718  12.3718  30.5443  39.2824
    39.3246  39.3246

          k = 0.2792 0.2792-0.2792 (   311 PWs)   bands (ev):

     9.1187  11.4759  11.4759  12.4091  12.8832  12.8832  21.2086  37.7005
    38.1851  38.1851

          k = 0.2792 0.0000 0.0000 (   303 PWs)   bands (ev):

     7.0683  10.9147  11.9449  11.9505  11.9505  12.5792  34.4176  34.4176
    35.7386  36.7521

          k = 0.4188 0.1396-0.1396 (   316 PWs)   bands (ev):

     9.3637  10.6842  11.4419  12.0358  12.9603  13.5875  24.9054  31.9944
    32.5609  35.9973

          k =-0.1396-0.4188 0.4188 (   307 PWs)   bands (ev):

    10.0049  10.9502  11.4923  11.8686  12.8550  16.3435  19.8513  28.7230
    34.3048  36.6269

          k = 0.0000-0.2792 0.2792 (   311 PWs)   bands (ev):

     8.6581  10.9256  11.4465  11.9984  12.1048  13.3597  27.7365  28.7139
    39.3626  39.6360

          k = 0.5584 0.0000 0.0000 (   322 PWs)   bands (ev):

     9.4575  10.0705  12.9210  12.9518  12.9518  14.2353  25.5750  29.2997
    29.2997  33.5905

          k = 0.0000-0.5584 0.5584 (   310 PWs)   bands (ev):

     9.8923  10.2102  12.0857  12.6599  13.0209  18.4241  22.3421  23.2344
    29.9816  34.9480

          k =-0.1396-0.4188 0.6980 (   305 PWs)   bands (ev):

    10.2698  10.6266  11.1192  12.4196  12.9459  17.1746  23.4488  25.1966
    27.1044  42.4145

 ------ SPIN DOWN ----------


          k = 0.0000 0.0000 0.0000 (   331 PWs)   bands (ev):

     5.1538  11.4625  11.4625  11.4625  12.3713  12.3713  39.2741  41.5244
    41.5244  41.5244

          k = 0.1396 0.1396-0.1396 (   311 PWs)   bands (ev):

     6.6078  11.2270  11.6404  11.6404  12.3718  12.3718  30.5443  39.2824
    39.3246  39.3246

          k = 0.2792 0.2792-0.2792 (   311 PWs)   bands (ev):

     9.1187  11.4759  11.4759  12.4090  12.8831  12.8831  21.2086  37.7005
    38.1851  38.1851

          k = 0.2792 0.0000 0.0000 (   303 PWs)   bands (ev):

     7.0683  10.9147  11.9449  11.9505  11.9505  12.5791  34.4176  34.4176
    35.7385  36.7521

          k = 0.4188 0.1396-0.1396 (   316 PWs)   bands (ev):

     9.3637  10.6842  11.4419  12.0358  12.9603  13.5875  24.9054  31.9944
    32.5609  35.9973

          k =-0.1396-0.4188 0.4188 (   307 PWs)   bands (ev):

    10.0049  10.9502  11.4923  11.8686  12.8550  16.3435  19.8513  28.7230
    34.3047  36.6269

          k = 0.0000-0.2792 0.2792 (   311 PWs)   bands (ev):

     8.6581  10.9256  11.4465  11.9984  12.1048  13.3597  27.7365  28.7139
    39.3626  39.6360

          k = 0.5584 0.0000 0.0000 (   322 PWs)   bands (ev):

     9.4574  10.0705  12.9210  12.9517  12.9517  14.2352  25.5750  29.2997
    29.2997  33.5905

          k = 0.0000-0.5584 0.5584 (   310 PWs)   bands (ev):

     9.8923  10.2102  12.0857  12.6599  13.0209  18.4240  22.3420  23.2344
    29.9816  34.9480

          k =-0.1396-0.4188 0.6980 (   305 PWs)   bands (ev):

    10.2698  10.6266  11.1192  12.4196  12.9459  17.1746  23.4488  25.1966
    27.1044  42.4144

     the Fermi energy is    14.2605 ev

!    total energy              =     -87.85141355 Ry
     estimated scf accuracy    <          2.6E-12 Ry
     smearing contrib. (-TS)   =      -0.00023682 Ry
     internal energy E=F+TS    =     -87.85117674 Ry

     The total energy is F=E-TS. E is the sum of the following terms:
     one-electron contribution =      -9.71211396 Ry
     hartree contribution      =      18.73326698 Ry
     xc contribution           =     -14.06977500 Ry
     ewald contribution        =     -82.80255475 Ry

     total magnetization       =    -0.00 Bohr mag/cell
     absolute magnetization    =     0.00 Bohr mag/cell

     convergence has been achieved in  12 iterations

     Forces acting on atoms (cartesian axes, Ry/au):

     atom    1 type  1   force =     0.00000000    0.00000000    0.00000000
     The non-local contrib.  to forces
     atom    1 type  1   force =    -0.00000000   -0.00000000    0.00000000
     The ionic contribution  to forces
     atom    1 type  1   force =    -0.00000000   -0.00000000   -0.00000000
     The local contribution  to forces
     atom    1 type  1   force =    -0.00000000    0.00000000   -0.00000000
     The core correction contribution to forces
     atom    1 type  1   force =     0.00000000    0.00000000    0.00000000
     The Hubbard contrib.    to forces
     atom    1 type  1   force =     0.00000000    0.00000000    0.00000000
     The SCF correction term to forces
     atom    1 type  1   force =     0.00000000    0.00000000   -0.00000000

     Total force =     0.000000     Total SCF correction =     0.000000


     Computing stress (Cartesian axis) and pressure

          total   stress  (Ry/bohr**3)                   (kbar)     P=        0.17
   0.00000115   0.00000000   0.00000000            0.17        0.00        0.00
   0.00000000   0.00000115   0.00000000            0.00        0.17        0.00
   0.00000000   0.00000000   0.00000115            0.00        0.00        0.17

     Energy error            =      1.0E-07 Ry
     Gradient error          =      0.0E+00 Ry/Bohr
     Cell gradient error     =      1.7E-01 kbar

     bfgs converged in   4 scf cycles and   3 bfgs steps
     (criteria: energy <  1.0E-04 Ry, force <  1.0E-03 Ry/Bohr, cell <  5.0E-01 kbar)

     End of BFGS Geometry Optimization

     Final enthalpy           =     -87.8514135544 Ry

     File /home/gridsan/epan1/labutil/lab3_samples/problem3/Lab3/Cu_a_3.5_ecut_40_nk_5/pwscf.bfgs deleted, as requested
Begin final coordinates
     new unit-cell volume =     75.18717 a.u.^3 (    11.14159 Ang^3 )
     density =      9.47088 g/cm^3

CELL_PARAMETERS (angstrom)
   0.000000000   1.772715518   1.772715518
   1.772715518   0.000000000   1.772715518
   1.772715518   1.772715518   0.000000000

ATOMIC_POSITIONS (angstrom)
Cu            0.0000000000        0.0000000000        0.0000000000
End final coordinates



     Writing config-only to output data dir /home/gridsan/epan1/labutil/lab3_samples/problem3/Lab3/Cu_a_3.5_ecut_40_nk_5/pwscf.save/

     Final scf calculation at the relaxed structure.
     The G-vectors are recalculated for the final unit cell
     Results may differ from those at the preceding step.

     Parallelization info
     --------------------
     sticks:   dense  smooth     PW     G-vecs:    dense   smooth      PW
     Min          62      31     10                  916      329      65
     Max          63      32     11                  920      331      68
     Sum         499     253     85                 7343     2637     531

     Using Slab Decomposition



     bravais-lattice index     =            0
     lattice parameter (alat)  =       4.6768  a.u.
     unit-cell volume          =      75.1872 (a.u.)^3
     number of atoms/cell      =            1
     number of atomic types    =            1
     number of electrons       =        11.00
     number of Kohn-Sham states=           10
     kinetic-energy cutoff     =      40.0000  Ry
     charge density cutoff     =     320.0000  Ry
     scf convergence threshold =      1.0E-09
     mixing beta               =       0.5000
     number of iterations used =            8  plain     mixing
     press convergence thresh. =      5.0E-01
     Exchange-correlation=  SLA  PZ   NOGX NOGC
                           (   1   1   0   0   0   0   0)

     celldm(1)=   4.676834  celldm(2)=   0.000000  celldm(3)=   0.000000
     celldm(4)=   0.000000  celldm(5)=   0.000000  celldm(6)=   0.000000

     crystal axes: (cart. coord. in units of alat)
               a(1) = (   0.000000   0.716285   0.716285 )  
               a(2) = (   0.716285   0.000000   0.716285 )  
               a(3) = (   0.716285   0.716285   0.000000 )  

     reciprocal axes: (cart. coord. in units 2 pi/alat)
               b(1) = ( -0.698046  0.698046  0.698046 )  
               b(2) = (  0.698046 -0.698046  0.698046 )  
               b(3) = (  0.698046  0.698046 -0.698046 )  


     PseudoPot. # 1 for Cu read from file:
     /home/gridsan/epan1/labutil/lab3_samples/pseudopotentials/Cu.pz-d-rrkjus.UPF
     MD5 check sum: fd38ae683e239c95a66f426e1f8e5fc7
     Pseudo is Ultrasoft, Zval = 11.0
     Generated by new atomic code, or converted to UPF format
     Using radial grid of  899 points,  3 beta functions with: 
                l(1) =   2
                l(2) =   2
                l(3) =   1
     Q(r) pseudized with 0 coefficients 


     atomic species   valence    mass     pseudopotential
        Cu            11.00    63.54600     Cu( 1.00)

     Starting magnetic structure 
     atomic species   magnetization
        Cu          -0.000

     48 Sym. Ops., with inversion, found



   Cartesian axes

     site n.     atom                  positions (alat units)
         1           Cu  tau(   1) = (   0.0000000   0.0000000   0.0000000  )

     number of k points=    10  Methfessel-Paxton smearing, width (Ry)=  0.0200
                       cart. coord. in units 2pi/alat
        k(    1) = (   0.0000000   0.0000000   0.0000000), wk =   0.0080000
        k(    2) = (   0.1396092   0.1396092  -0.1396092), wk =   0.0640000
        k(    3) = (   0.2792184   0.2792184  -0.2792184), wk =   0.0640000
        k(    4) = (   0.2792184   0.0000000   0.0000000), wk =   0.0480000
        k(    5) = (   0.4188276   0.1396092  -0.1396092), wk =   0.1920000
        k(    6) = (  -0.1396092  -0.4188276   0.4188276), wk =   0.1920000
        k(    7) = (   0.0000000  -0.2792184   0.2792184), wk =   0.0960000
        k(    8) = (   0.5584368   0.0000000   0.0000000), wk =   0.0480000
        k(    9) = (   0.0000000  -0.5584368   0.5584368), wk =   0.0960000
        k(   10) = (  -0.1396092  -0.4188276   0.6980459), wk =   0.1920000

     Dense  grid:     7343 G-vectors     FFT dimensions: (  27,  27,  27)

     Smooth grid:     2637 G-vectors     FFT dimensions: (  20,  20,  20)

     Estimated max dynamical RAM per process >       3.65 MB

     Estimated total dynamical RAM >      29.16 MB
     Generating pointlists ...

     Initial potential from superposition of free atoms

     starting charge      10.9997, renormalised to      11.0000
     Starting wfcs are    6 randomized atomic wfcs +    4 random wfcs

     total cpu time spent up to now is        4.2 secs

     Self-consistent Calculation

     iteration #  1     ecut=    40.00 Ry     beta= 0.50
     Davidson diagonalization with overlap
     c_bands:  1 eigenvalues not converged
     c_bands:  1 eigenvalues not converged
     ethr =  1.00E-06,  avg # of iterations = 13.2
     Minimization algorithm failed to find Fermi energy: reverting to bisection
     Possible cause: smearing is larger than the electronic band-gap.

     total cpu time spent up to now is        4.4 secs

     total energy              =     -87.77176936 Ry
     estimated scf accuracy    <       0.23913270 Ry

     total magnetization       =    -0.00 Bohr mag/cell
     absolute magnetization    =     0.00 Bohr mag/cell

     iteration #  2     ecut=    40.00 Ry     beta= 0.50
     Davidson diagonalization with overlap
     ethr =  2.17E-03,  avg # of iterations =  1.5

     total cpu time spent up to now is        4.5 secs

     total energy              =     -87.84511252 Ry
     estimated scf accuracy    <       0.03765121 Ry

     total magnetization       =     0.00 Bohr mag/cell
     absolute magnetization    =     0.00 Bohr mag/cell

     iteration #  3     ecut=    40.00 Ry     beta= 0.50
     Davidson diagonalization with overlap
     ethr =  3.42E-04,  avg # of iterations =  1.0

     total cpu time spent up to now is        4.5 secs

     total energy              =     -87.85131352 Ry
     estimated scf accuracy    <       0.00027771 Ry

     total magnetization       =     0.00 Bohr mag/cell
     absolute magnetization    =     0.00 Bohr mag/cell

     iteration #  4     ecut=    40.00 Ry     beta= 0.50
     Davidson diagonalization with overlap
     ethr =  2.52E-06,  avg # of iterations =  2.0

     total cpu time spent up to now is        4.6 secs

     total energy              =     -87.85141118 Ry
     estimated scf accuracy    <       0.00008588 Ry

     total magnetization       =    -0.00 Bohr mag/cell
     absolute magnetization    =     0.00 Bohr mag/cell

     iteration #  5     ecut=    40.00 Ry     beta= 0.50
     Davidson diagonalization with overlap
     ethr =  7.81E-07,  avg # of iterations =  1.0

     total cpu time spent up to now is        4.6 secs

     total energy              =     -87.85142246 Ry
     estimated scf accuracy    <       0.00000132 Ry

     total magnetization       =     0.00 Bohr mag/cell
     absolute magnetization    =     0.00 Bohr mag/cell

     iteration #  6     ecut=    40.00 Ry     beta= 0.50
     Davidson diagonalization with overlap
     ethr =  1.20E-08,  avg # of iterations =  1.8

     total cpu time spent up to now is        4.7 secs

     total energy              =     -87.85142283 Ry
     estimated scf accuracy    <       0.00000004 Ry

     total magnetization       =     0.00 Bohr mag/cell
     absolute magnetization    =     0.00 Bohr mag/cell

     iteration #  7     ecut=    40.00 Ry     beta= 0.50
     Davidson diagonalization with overlap
     ethr =  3.30E-10,  avg # of iterations =  1.4

     total cpu time spent up to now is        4.8 secs

     total energy              =     -87.85142282 Ry
     estimated scf accuracy    <          7.1E-09 Ry

     total magnetization       =     0.00 Bohr mag/cell
     absolute magnetization    =     0.00 Bohr mag/cell

     iteration #  8     ecut=    40.00 Ry     beta= 0.50
     Davidson diagonalization with overlap
     ethr =  6.48E-11,  avg # of iterations =  1.2

     Magnetic moment per site  (integrated on atomic sphere of radius R)
     atom   1 (R=0.412)  charge=  9.7409  magn=  0.0000

     total cpu time spent up to now is        4.8 secs

     End of self-consistent calculation

 ------ SPIN UP ------------


          k = 0.0000 0.0000 0.0000 (   331 PWs)   bands (ev):

     5.1538  11.4624  11.4624  11.4624  12.3712  12.3712  39.2741  41.5244
    41.5244  41.5244

          k = 0.1396 0.1396-0.1396 (   320 PWs)   bands (ev):

     6.6078  11.2269  11.6403  11.6403  12.3717  12.3717  30.5443  39.2824
    39.3244  39.3244

          k = 0.2792 0.2792-0.2792 (   323 PWs)   bands (ev):

     9.1186  11.4758  11.4758  12.4090  12.8831  12.8831  21.2085  37.7005
    38.1851  38.1851

          k = 0.2792 0.0000 0.0000 (   311 PWs)   bands (ev):

     7.0683  10.9147  11.9448  11.9504  11.9504  12.5791  34.4176  34.4176
    35.7384  36.7520

          k = 0.4188 0.1396-0.1396 (   324 PWs)   bands (ev):

     9.3637  10.6842  11.4418  12.0357  12.9602  13.5875  24.9053  31.9944
    32.5608  35.9972

          k =-0.1396-0.4188 0.4188 (   315 PWs)   bands (ev):

    10.0048  10.9501  11.4922  11.8685  12.8549  16.3434  19.8512  28.7230
    34.3047  36.6269

          k = 0.0000-0.2792 0.2792 (   323 PWs)   bands (ev):

     8.6581  10.9255  11.4464  11.9983  12.1047  13.3597  27.7364  28.7139
    39.3621  39.6359

          k = 0.5584 0.0000 0.0000 (   322 PWs)   bands (ev):

     9.4574  10.0704  12.9210  12.9517  12.9517  14.2352  25.5750  29.2997
    29.2997  33.5905

          k = 0.0000-0.5584 0.5584 (   322 PWs)   bands (ev):

     9.8922  10.2102  12.0856  12.6598  13.0209  18.4240  22.3420  23.2343
    29.9816  34.9479

          k =-0.1396-0.4188 0.6980 (   317 PWs)   bands (ev):

    10.2697  10.6265  11.1191  12.4195  12.9458  17.1746  23.4487  25.1966
    27.1044  42.4143

 ------ SPIN DOWN ----------


          k = 0.0000 0.0000 0.0000 (   331 PWs)   bands (ev):

     5.1538  11.4624  11.4624  11.4624  12.3712  12.3712  39.2741  41.5244
    41.5244  41.5244

          k = 0.1396 0.1396-0.1396 (   320 PWs)   bands (ev):

     6.6078  11.2269  11.6403  11.6403  12.3717  12.3717  30.5443  39.2824
    39.3244  39.3244

          k = 0.2792 0.2792-0.2792 (   323 PWs)   bands (ev):

     9.1186  11.4758  11.4758  12.4090  12.8831  12.8831  21.2085  37.7005
    38.1851  38.1851

          k = 0.2792 0.0000 0.0000 (   311 PWs)   bands (ev):

     7.0683  10.9147  11.9448  11.9504  11.9504  12.5791  34.4176  34.4176
    35.7384  36.7520

          k = 0.4188 0.1396-0.1396 (   324 PWs)   bands (ev):

     9.3637  10.6842  11.4418  12.0357  12.9602  13.5875  24.9053  31.9944
    32.5608  35.9972

          k =-0.1396-0.4188 0.4188 (   315 PWs)   bands (ev):

    10.0048  10.9501  11.4922  11.8685  12.8549  16.3434  19.8512  28.7230
    34.3047  36.6269

          k = 0.0000-0.2792 0.2792 (   323 PWs)   bands (ev):

     8.6581  10.9255  11.4464  11.9983  12.1047  13.3597  27.7364  28.7139
    39.3621  39.6359

          k = 0.5584 0.0000 0.0000 (   322 PWs)   bands (ev):

     9.4574  10.0704  12.9210  12.9517  12.9517  14.2352  25.5750  29.2997
    29.2997  33.5905

          k = 0.0000-0.5584 0.5584 (   322 PWs)   bands (ev):

     9.8922  10.2102  12.0856  12.6598  13.0209  18.4240  22.3420  23.2343
    29.9816  34.9479

          k =-0.1396-0.4188 0.6980 (   317 PWs)   bands (ev):

    10.2697  10.6265  11.1191  12.4195  12.9458  17.1746  23.4487  25.1966
    27.1044  42.4143

     the Fermi energy is    14.2605 ev

!    total energy              =     -87.85142283 Ry
     estimated scf accuracy    <          3.5E-12 Ry
     smearing contrib. (-TS)   =      -0.00023684 Ry
     internal energy E=F+TS    =     -87.85118599 Ry

     The total energy is F=E-TS. E is the sum of the following terms:
     one-electron contribution =      -9.71208589 Ry
     hartree contribution      =      18.73320879 Ry
     xc contribution           =     -14.06975414 Ry
     ewald contribution        =     -82.80255475 Ry

     total magnetization       =     0.00 Bohr mag/cell
     absolute magnetization    =     0.00 Bohr mag/cell

     convergence has been achieved in   8 iterations

     Forces acting on atoms (cartesian axes, Ry/au):

     atom    1 type  1   force =     0.00000000    0.00000000    0.00000000
     The non-local contrib.  to forces
     atom    1 type  1   force =     0.00000000    0.00000000   -0.00000000
     The ionic contribution  to forces
     atom    1 type  1   force =    -0.00000000   -0.00000000   -0.00000000
     The local contribution  to forces
     atom    1 type  1   force =    -0.00000000   -0.00000000   -0.00000000
     The core correction contribution to forces
     atom    1 type  1   force =     0.00000000    0.00000000    0.00000000
     The Hubbard contrib.    to forces
     atom    1 type  1   force =     0.00000000    0.00000000    0.00000000
     The SCF correction term to forces
     atom    1 type  1   force =     0.00000000    0.00000000   -0.00000000

     Total force =     0.000000     Total SCF correction =     0.000000


     Computing stress (Cartesian axis) and pressure

          total   stress  (Ry/bohr**3)                   (kbar)     P=        0.23
   0.00000158   0.00000000  -0.00000000            0.23        0.00       -0.00
  -0.00000000   0.00000158   0.00000000           -0.00        0.23        0.00
  -0.00000000   0.00000000   0.00000158           -0.00        0.00        0.23


     init_run     :      0.36s CPU      0.38s WALL (       2 calls)
     electrons    :      3.74s CPU      3.69s WALL (       6 calls)
     update_pot   :      0.14s CPU      0.12s WALL (       3 calls)
     forces       :      0.18s CPU      0.13s WALL (       6 calls)
     stress       :      0.43s CPU      0.33s WALL (       6 calls)

     Called by init_run:
     wfcinit      :      0.03s CPU      0.04s WALL (       2 calls)
     potinit      :      0.16s CPU      0.15s WALL (       3 calls)
     hinit0       :      0.19s CPU      0.19s WALL (       2 calls)

     Called by electrons:
     c_bands      :      2.83s CPU      2.89s WALL (      55 calls)
     sum_band     :      0.59s CPU      0.53s WALL (      55 calls)
     v_of_rho     :      0.09s CPU      0.07s WALL (      61 calls)
     newd         :      0.13s CPU      0.11s WALL (      61 calls)
     mix_rho      :      0.05s CPU      0.04s WALL (      55 calls)

     Called by c_bands:
     init_us_2    :      0.06s CPU      0.06s WALL (    2480 calls)
     init_us_2:cp :      0.06s CPU      0.05s WALL (    2480 calls)
     cegterg      :      2.41s CPU      2.30s WALL (    1100 calls)

     Called by *egterg:
     cdiaghg      :      0.57s CPU      0.55s WALL (    3058 calls)
     h_psi        :      1.41s CPU      1.35s WALL (    3178 calls)
     s_psi        :      0.02s CPU      0.02s WALL (    3178 calls)
     g_psi        :      0.01s CPU      0.01s WALL (    2038 calls)

     Called by h_psi:
     h_psi:calbec :      0.13s CPU      0.13s WALL (    3178 calls)
     vloc_psi     :      1.23s CPU      1.18s WALL (    3178 calls)
     add_vuspsi   :      0.02s CPU      0.02s WALL (    3178 calls)

     General routines
     calbec       :      0.21s CPU      0.19s WALL (    4878 calls)
     fft          :      0.12s CPU      0.11s WALL (     679 calls)
     ffts         :      0.12s CPU      0.12s WALL (     232 calls)
     fftw         :      1.23s CPU      1.17s WALL (   64436 calls)
     interpolate  :      0.13s CPU      0.13s WALL (     122 calls)

     Parallel routines

     PWSCF        :      5.03s CPU      4.93s WALL


   This run was terminated on:  10:53:18   3Nov2023            

=------------------------------------------------------------------------------=
   JOB DONE.
=------------------------------------------------------------------------------=
