
     Program PWSCF v.7.2 starts on  2Nov2023 at 17:43:37 

     This program is part of the open-source Quantum ESPRESSO suite
     for quantum simulation of materials; please cite
         "P. Giannozzi et al., J. Phys.:Condens. Matter 21 395502 (2009);
         "P. Giannozzi et al., J. Phys.:Condens. Matter 29 465901 (2017);
         "P. Giannozzi et al., J. Chem. Phys. 152 154105 (2020);
          URL http://www.quantum-espresso.org", 
     in publications or presentations arising from this work. More details at
     http://www.quantum-espresso.org/quote

     Parallel version (MPI), running on     2 processors

     MPI processes distributed on     2 nodes
     187201 MiB available memory on the printing compute node when the environment starts

     Waiting for input...
     Reading input from standard input
Warning: card &CELL ignored
Warning: card / ignored

     Current dimensions of program PWSCF are:
     Max number of different atomic species (ntypx) = 10
     Max number of k-points (npk) =  40000
     Max angular momentum in pseudopotentials (lmaxx) =  4
     file O.pz-rrkjus.UPF: wavefunction(s)  2S renormalized
     Message from routine setup:
     using ibrav=0 with symmetry is DISCOURAGED, use correct ibrav instead

     R & G space division:  proc/nbgrp/npool/nimage =       2
     Subspace diagonalization in iterative solution of the eigenvalue problem:
     a serial algorithm will be used


     Parallelization info
     --------------------
     sticks:   dense  smooth     PW     G-vecs:    dense   smooth      PW
     Min         542     272     80                13372     4716     774
     Max         543     273     81                13373     4719     777
     Sum        1085     545    161                26745     9435    1551

     Using Slab Decomposition



     bravais-lattice index     =            0
     lattice parameter (alat)  =       7.5211  a.u.
     unit-cell volume          =     425.4473 (a.u.)^3
     number of atoms/cell      =            5
     number of atomic types    =            3
     number of electrons       =        44.00
     number of Kohn-Sham states=           22
     kinetic-energy cutoff     =      30.0000  Ry
     charge density cutoff     =     240.0000  Ry
     scf convergence threshold =      1.0E-07
     mixing beta               =       0.7000
     number of iterations used =            8  plain     mixing
     Exchange-correlation= SLA  PZ   NOGX NOGC
                           (   1   1   0   0   0   0   0)

     celldm(1)=   7.521110  celldm(2)=   0.000000  celldm(3)=   0.000000
     celldm(4)=   0.000000  celldm(5)=   0.000000  celldm(6)=   0.000000

     crystal axes: (cart. coord. in units of alat)
               a(1) = (   1.000000   0.000000   0.000000 )  
               a(2) = (   0.000000   1.000000   0.000000 )  
               a(3) = (   0.000000   0.000000   1.000000 )  

     reciprocal axes: (cart. coord. in units 2 pi/alat)
               b(1) = (  1.000000  0.000000  0.000000 )  
               b(2) = (  0.000000  1.000000  0.000000 )  
               b(3) = (  0.000000  0.000000  1.000000 )  


     PseudoPot. # 1 for O  read from file:
     /home/gridsan/epan1/labutil/lab3_samples/pseudopotentials/O.pz-rrkjus.UPF
     MD5 check sum: 24fb942a68ef5d262e498166c462ef4a
     Pseudo is Ultrasoft, Zval =  6.0
     Generated by new atomic code, or converted to UPF format
     Using radial grid of 1269 points,  4 beta functions with: 
                l(1) =   0
                l(2) =   0
                l(3) =   1
                l(4) =   1
     Q(r) pseudized with 0 coefficients 


     PseudoPot. # 2 for Pb read from file:
     /home/gridsan/epan1/labutil/lab3_samples/pseudopotentials/Pb.pz-d-van.UPF
     MD5 check sum: 4e1e5920686a026ae26139ac417581ff
     Pseudo is Ultrasoft, Zval = 14.0
     Generated by new atomic code, or converted to UPF format
     Using radial grid of  899 points,  6 beta functions with: 
                l(1) =   0
                l(2) =   0
                l(3) =   1
                l(4) =   1
                l(5) =   2
                l(6) =   2
     Q(r) pseudized with  8 coefficients,  rinner =    1.000   1.000   1.000
                                                       1.000   1.000

     PseudoPot. # 3 for Ti read from file:
     /home/gridsan/epan1/labutil/lab3_samples/pseudopotentials/Ti.pz-sp-van_ak.UPF
     MD5 check sum: 545d0e6e05332b8871a8093f427cb0ca
     Pseudo is Ultrasoft, Zval = 12.0
     Generated by new atomic code, or converted to UPF format
     Using radial grid of  851 points,  6 beta functions with: 
                l(1) =   0
                l(2) =   0
                l(3) =   1
                l(4) =   1
                l(5) =   2
                l(6) =   2
     Q(r) pseudized with  8 coefficients,  rinner =    1.000   1.000   1.000
                                                       1.000   1.000

     atomic species   valence    mass     pseudopotential
        O              6.00    15.99900     O ( 1.00)
        Pb            14.00   207.20000     Pb( 1.00)
        Ti            12.00    47.86700     Ti( 1.00)

     48 Sym. Ops., with inversion, found



   Cartesian axes

     site n.     atom                  positions (alat units)
         1           Pb  tau(   1) = (   0.0000000   0.0000000   0.0000000  )
         2           Ti  tau(   2) = (   0.5000000   0.5000000   0.5000000  )
         3           O   tau(   3) = (   0.0000000   0.5000000   0.5000000  )
         4           O   tau(   4) = (   0.5000000   0.0000000   0.5000000  )
         5           O   tau(   5) = (   0.5000000   0.5000000   0.0000000  )

     number of k points=     4
                       cart. coord. in units 2pi/alat
        k(    1) = (   0.1250000   0.1250000   0.1250000), wk =   0.2500000
        k(    2) = (   0.1250000   0.1250000   0.3750000), wk =   0.7500000
        k(    3) = (   0.1250000   0.3750000   0.3750000), wk =   0.7500000
        k(    4) = (   0.3750000   0.3750000   0.3750000), wk =   0.2500000

     Dense  grid:    26745 G-vectors     FFT dimensions: (  40,  40,  40)

     Smooth grid:     9435 G-vectors     FFT dimensions: (  27,  27,  27)

     Estimated max dynamical RAM per process >      54.78 MB

     Estimated total dynamical RAM >     109.56 MB

     Initial potential from superposition of free atoms

     starting charge      42.9982, renormalised to      44.0000
     Starting wfcs are   31 randomized atomic wfcs

     total cpu time spent up to now is        1.1 secs

     Self-consistent Calculation

     iteration #  1     ecut=    30.00 Ry     beta= 0.70
     Davidson diagonalization with overlap
     ethr =  1.00E-02,  avg # of iterations =  2.0

     total cpu time spent up to now is        1.4 secs

     total energy              =    -332.56508459 Ry
     estimated scf accuracy    <       1.13865627 Ry

     iteration #  2     ecut=    30.00 Ry     beta= 0.70
     Davidson diagonalization with overlap
     ethr =  2.59E-03,  avg # of iterations =  7.8

     total cpu time spent up to now is        1.8 secs

     total energy              =    -331.81924176 Ry
     estimated scf accuracy    <       8.04400364 Ry

     iteration #  3     ecut=    30.00 Ry     beta= 0.70
     Davidson diagonalization with overlap
     ethr =  2.59E-03,  avg # of iterations =  6.8

     total cpu time spent up to now is        2.2 secs

     total energy              =    -333.14058116 Ry
     estimated scf accuracy    <       0.35405253 Ry

     iteration #  4     ecut=    30.00 Ry     beta= 0.70
     Davidson diagonalization with overlap
     ethr =  8.05E-04,  avg # of iterations =  2.5

     total cpu time spent up to now is        2.5 secs

     total energy              =    -333.13160023 Ry
     estimated scf accuracy    <       0.12092090 Ry

     iteration #  5     ecut=    30.00 Ry     beta= 0.70
     Davidson diagonalization with overlap
     ethr =  2.75E-04,  avg # of iterations =  4.8

     total cpu time spent up to now is        2.9 secs

     total energy              =    -333.16837617 Ry
     estimated scf accuracy    <       0.00466044 Ry

     iteration #  6     ecut=    30.00 Ry     beta= 0.70
     Davidson diagonalization with overlap
     ethr =  1.06E-05,  avg # of iterations =  5.0

     total cpu time spent up to now is        3.3 secs

     total energy              =    -333.16831473 Ry
     estimated scf accuracy    <       0.00454032 Ry

     iteration #  7     ecut=    30.00 Ry     beta= 0.70
     Davidson diagonalization with overlap
     ethr =  1.03E-05,  avg # of iterations =  4.2

     total cpu time spent up to now is        3.6 secs

     total energy              =    -333.16866153 Ry
     estimated scf accuracy    <       0.00067066 Ry

     iteration #  8     ecut=    30.00 Ry     beta= 0.70
     Davidson diagonalization with overlap
     ethr =  1.52E-06,  avg # of iterations =  4.5

     total cpu time spent up to now is        3.9 secs

     total energy              =    -333.16892520 Ry
     estimated scf accuracy    <       0.00002501 Ry

     iteration #  9     ecut=    30.00 Ry     beta= 0.70
     Davidson diagonalization with overlap
     ethr =  5.68E-08,  avg # of iterations =  5.8

     total cpu time spent up to now is        4.3 secs

     total energy              =    -333.16891545 Ry
     estimated scf accuracy    <       0.00014105 Ry

     iteration # 10     ecut=    30.00 Ry     beta= 0.70
     Davidson diagonalization with overlap
     ethr =  5.68E-08,  avg # of iterations =  4.2

     total cpu time spent up to now is        4.7 secs

     total energy              =    -333.16891434 Ry
     estimated scf accuracy    <       0.00002928 Ry

     iteration # 11     ecut=    30.00 Ry     beta= 0.70
     Davidson diagonalization with overlap
     ethr =  5.68E-08,  avg # of iterations =  3.0

     total cpu time spent up to now is        5.0 secs

     total energy              =    -333.16891585 Ry
     estimated scf accuracy    <       0.00000799 Ry

     iteration # 12     ecut=    30.00 Ry     beta= 0.70
     Davidson diagonalization with overlap
     ethr =  1.82E-08,  avg # of iterations =  4.8

     total cpu time spent up to now is        5.3 secs

     total energy              =    -333.16891749 Ry
     estimated scf accuracy    <       0.00000030 Ry

     iteration # 13     ecut=    30.00 Ry     beta= 0.70
     Davidson diagonalization with overlap
     ethr =  6.77E-10,  avg # of iterations =  2.8

     total cpu time spent up to now is        5.6 secs

     total energy              =    -333.16891753 Ry
     estimated scf accuracy    <       0.00000017 Ry

     iteration # 14     ecut=    30.00 Ry     beta= 0.70
     Davidson diagonalization with overlap
     ethr =  3.88E-10,  avg # of iterations =  1.0

     total cpu time spent up to now is        5.9 secs

     total energy              =    -333.16891748 Ry
     estimated scf accuracy    <       0.00000018 Ry

     iteration # 15     ecut=    30.00 Ry     beta= 0.70
     Davidson diagonalization with overlap
     ethr =  3.88E-10,  avg # of iterations =  4.5

     total cpu time spent up to now is        6.3 secs

     End of self-consistent calculation

          k = 0.1250 0.1250 0.1250 (  1195 PWs)   bands (ev):

   -46.2368 -22.7785 -22.7785 -22.7782  -7.2127  -6.2927  -6.2927  -5.3869
    -5.3869  -5.3762  -5.2052  -5.2052   3.3994   6.3100   6.3100   6.8462
     8.0629   8.0629   8.7899   8.7899   8.8021   8.8505

          k = 0.1250 0.1250 0.3750 (  1183 PWs)   bands (ev):

   -46.2359 -22.8166 -22.7766 -22.7765  -6.8655  -6.1823  -6.1762  -5.4320
    -5.3824  -5.3677  -5.2954  -5.1911   2.8057   5.8226   6.4233   6.7797
     7.3178   7.6946   8.2040   8.8377   8.9389   9.4534

          k = 0.1250 0.3750 0.3750 (  1175 PWs)   bands (ev):

   -46.2351 -22.8147 -22.8146 -22.7748  -6.6947  -6.1121  -6.0584  -5.4119
    -5.3769  -5.3196  -5.2457  -5.1036   2.5462   5.7505   5.8927   6.2683
     6.5549   7.4760   8.2542   8.3907   8.7170   9.5358

          k = 0.3750 0.3750 0.3750 (  1175 PWs)   bands (ev):

   -46.2342 -22.8135 -22.8129 -22.8129  -6.3909  -6.2502  -6.2502  -5.3479
    -5.3479  -5.0674  -5.0032  -5.0032   3.1230   5.1708   5.1708   5.6086
     6.0463   6.0463   6.7535   9.4887   9.4887   9.5719

     highest occupied level (ev):     9.5719

!    total energy              =    -333.16891750 Ry
     estimated scf accuracy    <          2.2E-09 Ry

     The total energy is the sum of the following terms:
     one-electron contribution =     -86.95770985 Ry
     hartree contribution      =      69.25031209 Ry
     xc contribution           =     -49.35478527 Ry
     ewald contribution        =    -266.10673448 Ry

     convergence has been achieved in  15 iterations

     Forces acting on atoms (cartesian axes, Ry/au):

     atom    1 type  2   force =     0.00000000    0.00000000    0.00000000
     atom    2 type  3   force =     0.00000000    0.00000000    0.00000000
     atom    3 type  1   force =     0.00000000    0.00000000    0.00000000
     atom    4 type  1   force =     0.00000000    0.00000000    0.00000000
     atom    5 type  1   force =     0.00000000    0.00000000    0.00000000
     The non-local contrib.  to forces
     atom    1 type  2   force =     0.00000000    0.00000000    0.00000000
     atom    2 type  3   force =     0.00000000    0.00000000    0.00000000
     atom    3 type  1   force =     0.00000000    0.00000000    0.00000000
     atom    4 type  1   force =     0.00000000    0.00000000    0.00000000
     atom    5 type  1   force =     0.00000000    0.00000000    0.00000000
     The ionic contribution  to forces
     atom    1 type  2   force =     0.00000000    0.00000000    0.00000000
     atom    2 type  3   force =     0.00000000    0.00000000    0.00000000
     atom    3 type  1   force =     0.00000000   -0.00000000   -0.00000000
     atom    4 type  1   force =    -0.00000000    0.00000000   -0.00000000
     atom    5 type  1   force =    -0.00000000   -0.00000000    0.00000000
     The local contribution  to forces
     atom    1 type  2   force =    -0.00000000   -0.00000000    0.00000000
     atom    2 type  3   force =    -0.00000000   -0.00000000   -0.00000000
     atom    3 type  1   force =    -0.00000000   -0.00000000   -0.00000000
     atom    4 type  1   force =    -0.00000000    0.00000000   -0.00000000
     atom    5 type  1   force =    -0.00000000   -0.00000000    0.00000000
     The core correction contribution to forces
     atom    1 type  2   force =     0.00000000    0.00000000    0.00000000
     atom    2 type  3   force =     0.00000000    0.00000000    0.00000000
     atom    3 type  1   force =     0.00000000    0.00000000    0.00000000
     atom    4 type  1   force =     0.00000000    0.00000000    0.00000000
     atom    5 type  1   force =     0.00000000    0.00000000    0.00000000
     The Hubbard contrib.    to forces
     atom    1 type  2   force =     0.00000000    0.00000000    0.00000000
     atom    2 type  3   force =     0.00000000    0.00000000    0.00000000
     atom    3 type  1   force =     0.00000000    0.00000000    0.00000000
     atom    4 type  1   force =     0.00000000    0.00000000    0.00000000
     atom    5 type  1   force =     0.00000000    0.00000000    0.00000000
     The SCF correction term to forces
     atom    1 type  2   force =     0.00000000   -0.00000000   -0.00000000
     atom    2 type  3   force =    -0.00000000   -0.00000000   -0.00000000
     atom    3 type  1   force =     0.00000000   -0.00000000   -0.00000000
     atom    4 type  1   force =    -0.00000000    0.00000000   -0.00000000
     atom    5 type  1   force =    -0.00000000    0.00000000    0.00000000

     Total force =     0.000000     Total SCF correction =     0.000000


     Computing stress (Cartesian axis) and pressure

          total   stress  (Ry/bohr**3)                   (kbar)     P=     -154.36
  -0.00104929   0.00000000   0.00000000         -154.36        0.00        0.00
   0.00000000  -0.00104929   0.00000000            0.00     -154.36        0.00
   0.00000000   0.00000000  -0.00104929            0.00        0.00     -154.36


     init_run     :      0.71s CPU      0.73s WALL (       1 calls)
     electrons    :      6.21s CPU      5.19s WALL (       1 calls)
     forces       :      0.16s CPU      0.11s WALL (       1 calls)
     stress       :      1.04s CPU      0.88s WALL (       1 calls)

     Called by init_run:
     wfcinit      :      0.08s CPU      0.08s WALL (       1 calls)
     potinit      :      0.06s CPU      0.06s WALL (       1 calls)
     hinit0       :      0.46s CPU      0.46s WALL (       1 calls)

     Called by electrons:
     c_bands      :      3.34s CPU      2.68s WALL (      15 calls)
     sum_band     :      1.76s CPU      1.53s WALL (      15 calls)
     v_of_rho     :      0.05s CPU      0.05s WALL (      16 calls)
     newd         :      1.02s CPU      0.93s WALL (      16 calls)
     mix_rho      :      0.05s CPU      0.04s WALL (      15 calls)

     Called by c_bands:
     init_us_2    :      0.08s CPU      0.06s WALL (     132 calls)
     init_us_2:cp :      0.08s CPU      0.06s WALL (     132 calls)
     cegterg      :      3.17s CPU      2.53s WALL (      60 calls)

     Called by *egterg:
     cdiaghg      :      0.34s CPU      0.26s WALL (     314 calls)
     h_psi        :      2.57s CPU      2.08s WALL (     318 calls)
     s_psi        :      0.06s CPU      0.05s WALL (     318 calls)
     g_psi        :      0.01s CPU      0.01s WALL (     254 calls)

     Called by h_psi:
     h_psi:calbec :      0.09s CPU      0.07s WALL (     318 calls)
     vloc_psi     :      2.41s CPU      1.95s WALL (     318 calls)
     add_vuspsi   :      0.06s CPU      0.05s WALL (     318 calls)

     General routines
     calbec       :      0.12s CPU      0.09s WALL (     398 calls)
     fft          :      0.25s CPU      0.23s WALL (      99 calls)
     ffts         :      0.06s CPU      0.06s WALL (      31 calls)
     fftw         :      2.52s CPU      2.06s WALL (    8884 calls)
     interpolate  :      0.07s CPU      0.06s WALL (      16 calls)

     Parallel routines

     PWSCF        :      8.44s CPU      7.27s WALL


   This run was terminated on:  17:43:45   2Nov2023            

=------------------------------------------------------------------------------=
   JOB DONE.
=------------------------------------------------------------------------------=
