Header of the LAMMPS data file 

4 atoms 
1 atom types

0.0 3.931578947368421  xlo xhi
0.0 3.931578947368421  ylo yhi
0.0 3.931578947368421  zlo zhi

Masses 

1  107.8682

Atoms # atomic 

1 1 0.00000 0.00000 0.00000 
2 1 0.00000 1.96579 1.96579 
3 1 1.96579 0.00000 1.96579 
4 1 1.96579 1.96579 0.00000 
