
     Program PWSCF v.7.2 starts on  2Nov2023 at 17:59:31 

     This program is part of the open-source Quantum ESPRESSO suite
     for quantum simulation of materials; please cite
         "P. Giannozzi et al., J. Phys.:Condens. Matter 21 395502 (2009);
         "P. Giannozzi et al., J. Phys.:Condens. Matter 29 465901 (2017);
         "P. Giannozzi et al., J. Chem. Phys. 152 154105 (2020);
          URL http://www.quantum-espresso.org", 
     in publications or presentations arising from this work. More details at
     http://www.quantum-espresso.org/quote

     Parallel version (MPI), running on     2 processors

     MPI processes distributed on     2 nodes
     187059 MiB available memory on the printing compute node when the environment starts

     Waiting for input...
     Reading input from standard input
Warning: card &CELL ignored
Warning: card / ignored

     Current dimensions of program PWSCF are:
     Max number of different atomic species (ntypx) = 10
     Max number of k-points (npk) =  40000
     Max angular momentum in pseudopotentials (lmaxx) =  4
     file O.pz-rrkjus.UPF: wavefunction(s)  2S renormalized
     Message from routine setup:
     using ibrav=0 with symmetry is DISCOURAGED, use correct ibrav instead

     R & G space division:  proc/nbgrp/npool/nimage =       2
     Subspace diagonalization in iterative solution of the eigenvalue problem:
     a serial algorithm will be used


     Parallelization info
     --------------------
     sticks:   dense  smooth     PW     G-vecs:    dense   smooth      PW
     Min         516     254     74                12418     4366     709
     Max         517     255     75                12419     4367     710
     Sum        1033     509    149                24837     8733    1419

     Using Slab Decomposition



     bravais-lattice index     =            0
     lattice parameter (alat)  =       7.3321  a.u.
     unit-cell volume          =     394.1775 (a.u.)^3
     number of atoms/cell      =            5
     number of atomic types    =            3
     number of electrons       =        44.00
     number of Kohn-Sham states=           22
     kinetic-energy cutoff     =      30.0000  Ry
     charge density cutoff     =     240.0000  Ry
     scf convergence threshold =      1.0E-07
     mixing beta               =       0.7000
     number of iterations used =            8  plain     mixing
     energy convergence thresh.=      1.0E-04
     force convergence thresh. =      1.0E-03
     Exchange-correlation= SLA  PZ   NOGX NOGC
                           (   1   1   0   0   0   0   0)
     nstep                     =           50


     celldm(1)=   7.332137  celldm(2)=   0.000000  celldm(3)=   0.000000
     celldm(4)=   0.000000  celldm(5)=   0.000000  celldm(6)=   0.000000

     crystal axes: (cart. coord. in units of alat)
               a(1) = (   1.000000   0.000000   0.000000 )  
               a(2) = (   0.000000   1.000000   0.000000 )  
               a(3) = (   0.000000   0.000000   1.000000 )  

     reciprocal axes: (cart. coord. in units 2 pi/alat)
               b(1) = (  1.000000  0.000000  0.000000 )  
               b(2) = (  0.000000  1.000000  0.000000 )  
               b(3) = (  0.000000  0.000000  1.000000 )  


     PseudoPot. # 1 for O  read from file:
     /home/gridsan/epan1/labutil/lab3_samples/pseudopotentials/O.pz-rrkjus.UPF
     MD5 check sum: 24fb942a68ef5d262e498166c462ef4a
     Pseudo is Ultrasoft, Zval =  6.0
     Generated by new atomic code, or converted to UPF format
     Using radial grid of 1269 points,  4 beta functions with: 
                l(1) =   0
                l(2) =   0
                l(3) =   1
                l(4) =   1
     Q(r) pseudized with 0 coefficients 


     PseudoPot. # 2 for Pb read from file:
     /home/gridsan/epan1/labutil/lab3_samples/pseudopotentials/Pb.pz-d-van.UPF
     MD5 check sum: 4e1e5920686a026ae26139ac417581ff
     Pseudo is Ultrasoft, Zval = 14.0
     Generated by new atomic code, or converted to UPF format
     Using radial grid of  899 points,  6 beta functions with: 
                l(1) =   0
                l(2) =   0
                l(3) =   1
                l(4) =   1
                l(5) =   2
                l(6) =   2
     Q(r) pseudized with  8 coefficients,  rinner =    1.000   1.000   1.000
                                                       1.000   1.000

     PseudoPot. # 3 for Ti read from file:
     /home/gridsan/epan1/labutil/lab3_samples/pseudopotentials/Ti.pz-sp-van_ak.UPF
     MD5 check sum: 545d0e6e05332b8871a8093f427cb0ca
     Pseudo is Ultrasoft, Zval = 12.0
     Generated by new atomic code, or converted to UPF format
     Using radial grid of  851 points,  6 beta functions with: 
                l(1) =   0
                l(2) =   0
                l(3) =   1
                l(4) =   1
                l(5) =   2
                l(6) =   2
     Q(r) pseudized with  8 coefficients,  rinner =    1.000   1.000   1.000
                                                       1.000   1.000

     atomic species   valence    mass     pseudopotential
        O              6.00    15.99900     O ( 1.00)
        Pb            14.00   207.20000     Pb( 1.00)
        Ti            12.00    47.86700     Ti( 1.00)

      8 Sym. Ops. (no inversion) found



   Cartesian axes

     site n.     atom                  positions (alat units)
         1           Pb  tau(   1) = (   0.0000000   0.0000000   0.0000000  )
         2           Ti  tau(   2) = (   0.5000000   0.5000000   0.4421057  )
         3           O   tau(   3) = (   0.0000000   0.5000000   0.5000000  )
         4           O   tau(   4) = (   0.5000000   0.0000000   0.5000000  )
         5           O   tau(   5) = (   0.5000000   0.5000000   0.0000000  )

     number of k points=     6
                       cart. coord. in units 2pi/alat
        k(    1) = (   0.1250000   0.1250000   0.1250000), wk =   0.2500000
        k(    2) = (   0.1250000   0.1250000   0.3750000), wk =   0.2500000
        k(    3) = (   0.1250000   0.3750000   0.3750000), wk =   0.5000000
        k(    4) = (   0.3750000   0.3750000   0.3750000), wk =   0.2500000
        k(    5) = (   0.3750000  -0.1250000   0.1250000), wk =   0.5000000
        k(    6) = (   0.3750000  -0.3750000   0.1250000), wk =   0.2500000

     Dense  grid:    24837 G-vectors     FFT dimensions: (  40,  40,  40)

     Smooth grid:     8733 G-vectors     FFT dimensions: (  25,  25,  25)

     Estimated max dynamical RAM per process >      51.66 MB

     Estimated total dynamical RAM >     103.32 MB

     Initial potential from superposition of free atoms

     starting charge      42.9982, renormalised to      44.0000
     Starting wfcs are   31 randomized atomic wfcs

     total cpu time spent up to now is        1.0 secs

     Self-consistent Calculation

     iteration #  1     ecut=    30.00 Ry     beta= 0.70
     Davidson diagonalization with overlap
     ethr =  1.00E-02,  avg # of iterations =  2.0

     total cpu time spent up to now is        1.3 secs

     total energy              =    -332.63113119 Ry
     estimated scf accuracy    <       1.07232377 Ry

     iteration #  2     ecut=    30.00 Ry     beta= 0.70
     Davidson diagonalization with overlap
     ethr =  2.44E-03,  avg # of iterations =  6.2

     total cpu time spent up to now is        1.7 secs

     total energy              =    -332.49812110 Ry
     estimated scf accuracy    <       3.30855724 Ry

     iteration #  3     ecut=    30.00 Ry     beta= 0.70
     Davidson diagonalization with overlap
     ethr =  2.44E-03,  avg # of iterations =  4.5

     total cpu time spent up to now is        2.0 secs

     total energy              =    -333.14573670 Ry
     estimated scf accuracy    <       0.19590842 Ry

     iteration #  4     ecut=    30.00 Ry     beta= 0.70
     Davidson diagonalization with overlap
     ethr =  4.45E-04,  avg # of iterations =  2.7

     total cpu time spent up to now is        2.3 secs

     total energy              =    -333.14599981 Ry
     estimated scf accuracy    <       0.04783299 Ry

     iteration #  5     ecut=    30.00 Ry     beta= 0.70
     Davidson diagonalization with overlap
     ethr =  1.09E-04,  avg # of iterations =  4.8

     total cpu time spent up to now is        2.6 secs

     total energy              =    -333.16831276 Ry
     estimated scf accuracy    <       0.02629337 Ry

     iteration #  6     ecut=    30.00 Ry     beta= 0.70
     Davidson diagonalization with overlap
     ethr =  5.98E-05,  avg # of iterations =  2.7

     total cpu time spent up to now is        2.9 secs

     total energy              =    -333.16739548 Ry
     estimated scf accuracy    <       0.00721842 Ry

     iteration #  7     ecut=    30.00 Ry     beta= 0.70
     Davidson diagonalization with overlap
     ethr =  1.64E-05,  avg # of iterations =  4.2

     total cpu time spent up to now is        3.2 secs

     total energy              =    -333.17053685 Ry
     estimated scf accuracy    <       0.00180230 Ry

     iteration #  8     ecut=    30.00 Ry     beta= 0.70
     Davidson diagonalization with overlap
     ethr =  4.10E-06,  avg # of iterations =  1.3

     total cpu time spent up to now is        3.5 secs

     total energy              =    -333.17040317 Ry
     estimated scf accuracy    <       0.00097099 Ry

     iteration #  9     ecut=    30.00 Ry     beta= 0.70
     Davidson diagonalization with overlap
     ethr =  2.21E-06,  avg # of iterations =  2.7

     total cpu time spent up to now is        3.8 secs

     total energy              =    -333.17043519 Ry
     estimated scf accuracy    <       0.00022807 Ry

     iteration # 10     ecut=    30.00 Ry     beta= 0.70
     Davidson diagonalization with overlap
     ethr =  5.18E-07,  avg # of iterations =  4.0

     total cpu time spent up to now is        4.1 secs

     total energy              =    -333.17049108 Ry
     estimated scf accuracy    <       0.00000661 Ry

     iteration # 11     ecut=    30.00 Ry     beta= 0.70
     Davidson diagonalization with overlap
     ethr =  1.50E-08,  avg # of iterations =  5.3

     total cpu time spent up to now is        4.4 secs

     total energy              =    -333.17049489 Ry
     estimated scf accuracy    <       0.00000728 Ry

     iteration # 12     ecut=    30.00 Ry     beta= 0.70
     Davidson diagonalization with overlap
     ethr =  1.50E-08,  avg # of iterations =  1.5

     total cpu time spent up to now is        4.7 secs

     total energy              =    -333.17049423 Ry
     estimated scf accuracy    <       0.00000296 Ry

     iteration # 13     ecut=    30.00 Ry     beta= 0.70
     Davidson diagonalization with overlap
     ethr =  6.74E-09,  avg # of iterations =  4.0

     total cpu time spent up to now is        5.0 secs

     End of self-consistent calculation

          k = 0.1250 0.1250 0.1250 (  1096 PWs)   bands (ev):

   -44.4758 -21.2966 -21.0675 -21.0667  -6.3692  -5.3509  -5.1922  -4.0941
    -4.0698  -4.0581  -3.8925  -3.8698   4.5329   7.1915   7.3090   8.0210
     8.7229   8.8779   9.4464   9.7377  10.0916  10.1061

          k = 0.1250 0.1250 0.3750 (  1095 PWs)   bands (ev):

   -44.4745 -21.3549 -21.0651 -21.0641  -5.8743  -5.2632  -5.0555  -4.1461
    -4.0900  -4.0498  -3.9682  -3.8680   3.7272   6.7452   6.9829   7.7827
     8.4148   8.4940   9.4294   9.7677  10.2236  10.9191

          k = 0.1250 0.3750 0.3750 (  1093 PWs)   bands (ev):

   -44.4732 -21.3515 -21.1200 -21.0627  -5.6667  -5.1762  -4.9363  -4.1206
    -4.0778  -4.0154  -3.9204  -3.7335   3.4248   6.5016   7.0193   7.1282
     7.5291   8.7206   9.1610   9.5513   9.9235  10.5829

          k = 0.3750 0.3750 0.3750 (  1082 PWs)   bands (ev):

   -44.4719 -21.3488 -21.1175 -21.1172  -5.4301  -5.1980  -5.1209  -4.0376
    -4.0126  -3.7621  -3.6595  -3.6220   4.0625   5.7751   5.9487   6.6207
     7.1934   7.3072   7.9148  10.4312  10.5102  10.7824

          k = 0.3750-0.1250 0.1250 (  1095 PWs)   bands (ev):

   -44.4745 -21.2940 -21.1236 -21.0648  -6.0097  -5.1878  -5.0549  -4.1366
    -4.0772  -4.0580  -3.9890  -3.8502   3.8069   6.9245   7.3357   7.7771
     8.3565   8.7622   9.1392   9.7475   9.8529  10.7550

          k = 0.3750-0.3750 0.1250 (  1093 PWs)   bands (ev):

   -44.4733 -21.2921 -21.1207 -21.1198  -5.8946  -4.9877  -4.9060  -4.0980
    -4.0672  -3.9956  -3.9125  -3.8197   3.5003   6.8207   6.8593   7.0484
     7.4058   8.6500   9.4632   9.4997   9.9437  10.7788

     highest occupied level (ev):    10.9191

!    total energy              =    -333.17049501 Ry
     estimated scf accuracy    <       0.00000006 Ry

     The total energy is the sum of the following terms:
     one-electron contribution =     -78.41448596 Ry
     hartree contribution      =      67.14268880 Ry
     xc contribution           =     -49.69069695 Ry
     ewald contribution        =    -272.20800090 Ry

     convergence has been achieved in  13 iterations

     Forces acting on atoms (cartesian axes, Ry/au):

     atom    1 type  2   force =     0.00000000    0.00000000   -0.02546768
     atom    2 type  3   force =     0.00000000    0.00000000    0.10239549
     atom    3 type  1   force =     0.00000000    0.00000000   -0.00448225
     atom    4 type  1   force =     0.00000000    0.00000000   -0.00448225
     atom    5 type  1   force =     0.00000000    0.00000000   -0.06796331
     The non-local contrib.  to forces
     atom    1 type  2   force =     0.00000000    0.00000000    0.01341735
     atom    2 type  3   force =     0.00000000    0.00000000   -0.05188266
     atom    3 type  1   force =     0.00000000    0.00000000   -0.14778869
     atom    4 type  1   force =     0.00000000    0.00000000   -0.14778869
     atom    5 type  1   force =     0.00000000    0.00000000    0.41074927
     The ionic contribution  to forces
     atom    1 type  2   force =     0.00000000    0.00000000   -1.48563414
     atom    2 type  3   force =     0.00000000    0.00000000    3.67077146
     atom    3 type  1   force =     0.00000000   -0.00000000    1.63184638
     atom    4 type  1   force =    -0.00000000    0.00000000    1.63184638
     atom    5 type  1   force =    -0.00000000   -0.00000000   -5.44883007
     The local contribution  to forces
     atom    1 type  2   force =     0.00000000   -0.00000000    1.44673725
     atom    2 type  3   force =    -0.00000000   -0.00000000   -3.51655939
     atom    3 type  1   force =     0.00000000   -0.00000000   -1.48850108
     atom    4 type  1   force =    -0.00000000    0.00000000   -1.48850108
     atom    5 type  1   force =    -0.00000000   -0.00000000    4.97003057
     The core correction contribution to forces
     atom    1 type  2   force =     0.00000000    0.00000000    0.00000000
     atom    2 type  3   force =     0.00000000    0.00000000    0.00000000
     atom    3 type  1   force =     0.00000000    0.00000000    0.00000000
     atom    4 type  1   force =     0.00000000    0.00000000    0.00000000
     atom    5 type  1   force =     0.00000000    0.00000000    0.00000000
     The Hubbard contrib.    to forces
     atom    1 type  2   force =     0.00000000    0.00000000    0.00000000
     atom    2 type  3   force =     0.00000000    0.00000000    0.00000000
     atom    3 type  1   force =     0.00000000    0.00000000    0.00000000
     atom    4 type  1   force =     0.00000000    0.00000000    0.00000000
     atom    5 type  1   force =     0.00000000    0.00000000    0.00000000
     The SCF correction term to forces
     atom    1 type  2   force =     0.00000000    0.00000000    0.00000000
     atom    2 type  3   force =     0.00000000   -0.00000000    0.00000000
     atom    3 type  1   force =    -0.00000000   -0.00000000   -0.00003203
     atom    4 type  1   force =     0.00000000   -0.00000000   -0.00003203
     atom    5 type  1   force =    -0.00000000   -0.00000000    0.00009374

     Total force =     0.068258     Total SCF correction =     0.000104


     Computing stress (Cartesian axis) and pressure

          total   stress  (Ry/bohr**3)                   (kbar)     P=       15.16
  -0.00009452   0.00000000   0.00000000          -13.90        0.00        0.00
   0.00000000  -0.00009452   0.00000000            0.00      -13.90        0.00
   0.00000000   0.00000000   0.00049815            0.00        0.00       73.28


     BFGS Geometry Optimization
     Energy error            =      0.0E+00 Ry
     Gradient error          =      6.8E-02 Ry/Bohr

     number of scf cycles    =   1
     number of bfgs steps    =   0

     energy             new  =    -333.1704950142 Ry

     new trust radius        =       0.0679633115 bohr
     new conv_thr            =       0.0000001000 Ry


ATOMIC_POSITIONS (angstrom)
Pb            0.0000000000        0.0000000000        0.0000000000    0   0   0
Ti            1.9400000000        1.9400000000        1.7153700000    0   0   0
O             0.0000000000        1.9400000000        1.9376280976
O             1.9400000000        0.0000000000        1.9376280976
O             1.9400000000        1.9400000000       -0.0359646356



     Writing config-only to output data dir /home/gridsan/epan1/labutil/lab3_samples/problem2/Lab3/PbTiO3_a_3.88_ecut_30_nk_4_displ_-0.05789473684210527/pwscf.save/
     NEW-OLD atomic charge density approx. for the potential

     total cpu time spent up to now is        6.2 secs

     Self-consistent Calculation

     iteration #  1     ecut=    30.00 Ry     beta= 0.70
     Davidson diagonalization with overlap
     ethr =  1.00E-06,  avg # of iterations =  8.2

     total cpu time spent up to now is        6.6 secs

     total energy              =    -333.17337269 Ry
     estimated scf accuracy    <       0.00130278 Ry

     iteration #  2     ecut=    30.00 Ry     beta= 0.70
     Davidson diagonalization with overlap
     ethr =  2.96E-06,  avg # of iterations =  5.7

     total cpu time spent up to now is        7.0 secs

     total energy              =    -333.17329710 Ry
     estimated scf accuracy    <       0.00286195 Ry

     iteration #  3     ecut=    30.00 Ry     beta= 0.70
     Davidson diagonalization with overlap
     ethr =  2.96E-06,  avg # of iterations =  4.5

     total cpu time spent up to now is        7.4 secs

     total energy              =    -333.17387435 Ry
     estimated scf accuracy    <       0.00009588 Ry

     iteration #  4     ecut=    30.00 Ry     beta= 0.70
     Davidson diagonalization with overlap
     ethr =  2.18E-07,  avg # of iterations =  2.2

     total cpu time spent up to now is        7.6 secs

     total energy              =    -333.17388684 Ry
     estimated scf accuracy    <       0.00001860 Ry

     iteration #  5     ecut=    30.00 Ry     beta= 0.70
     Davidson diagonalization with overlap
     ethr =  4.23E-08,  avg # of iterations =  4.3

     total cpu time spent up to now is        8.0 secs

     total energy              =    -333.17389154 Ry
     estimated scf accuracy    <       0.00000064 Ry

     iteration #  6     ecut=    30.00 Ry     beta= 0.70
     Davidson diagonalization with overlap
     ethr =  1.46E-09,  avg # of iterations =  5.8

     total cpu time spent up to now is        8.3 secs

     total energy              =    -333.17389184 Ry
     estimated scf accuracy    <       0.00000033 Ry

     iteration #  7     ecut=    30.00 Ry     beta= 0.70
     Davidson diagonalization with overlap
     ethr =  7.53E-10,  avg # of iterations =  4.3

     total cpu time spent up to now is        8.6 secs

     End of self-consistent calculation

          k = 0.1250 0.1250 0.1250 (  1096 PWs)   bands (ev):

   -44.5522 -21.3025 -21.1477 -21.1469  -6.3743  -5.3394  -5.2090  -4.0764
    -4.0569  -4.0456  -3.8786  -3.8606   4.5482   7.2089   7.2929   8.0102
     8.7999   8.9653   9.4957   9.7385  10.0823  10.1159

          k = 0.1250 0.1250 0.3750 (  1095 PWs)   bands (ev):

   -44.5509 -21.3606 -21.1453 -21.1443  -5.8934  -5.2386  -5.0758  -4.1301
    -4.0722  -4.0381  -3.9590  -3.8536   3.7624   6.7488   7.0353   7.7614
     8.4948   8.4998   9.4207   9.7793  10.1999  10.9145

          k = 0.1250 0.3750 0.3750 (  1093 PWs)   bands (ev):

   -44.5497 -21.3572 -21.1997 -21.1429  -5.6831  -5.1498  -4.9539  -4.1045
    -4.0609  -4.0024  -3.9085  -3.7276   3.4487   6.5427   7.0101   7.1212
     7.5187   8.7091   9.2308   9.5375   9.9602  10.5931

          k = 0.3750 0.3750 0.3750 (  1082 PWs)   bands (ev):

   -44.5483 -21.3545 -21.1972 -21.1969  -5.4123  -5.2037  -5.1348  -4.0205
    -4.0004  -3.7408  -3.6529  -3.6196   4.0799   5.8188   5.9509   6.6114
     7.1841   7.2720   7.9401  10.4779  10.5510  10.7621

          k = 0.3750-0.1250 0.1250 (  1095 PWs)   bands (ev):

   -44.5509 -21.3000 -21.2032 -21.1450  -6.0047  -5.1859  -5.0725  -4.1225
    -4.0613  -4.0451  -3.9756  -3.8403   3.8235   6.9083   7.3508   7.7858
     8.3685   8.7845   9.1760   9.7824   9.8820  10.7701

          k = 0.3750-0.3750 0.1250 (  1093 PWs)   bands (ev):

   -44.5497 -21.2980 -21.2003 -21.1995  -5.8720  -5.0040  -4.9248  -4.0862
    -4.0528  -3.9857  -3.9024  -3.7986   3.5040   6.8139   6.8826   7.0985
     7.4296   8.6501   9.4817   9.4896   9.9436  10.7613

     highest occupied level (ev):    10.9145

!    total energy              =    -333.17389189 Ry
     estimated scf accuracy    <       0.00000003 Ry

     The total energy is the sum of the following terms:
     one-electron contribution =     -77.78384822 Ry
     hartree contribution      =      66.80820249 Ry
     xc contribution           =     -49.66732182 Ry
     ewald contribution        =    -272.53092434 Ry

     convergence has been achieved in   7 iterations

     Forces acting on atoms (cartesian axes, Ry/au):

     atom    1 type  2   force =     0.00000000    0.00000000   -0.02612280
     atom    2 type  3   force =     0.00000000    0.00000000    0.07611771
     atom    3 type  1   force =     0.00000000    0.00000000   -0.00939640
     atom    4 type  1   force =     0.00000000    0.00000000   -0.00939640
     atom    5 type  1   force =     0.00000000    0.00000000   -0.03120211
     The non-local contrib.  to forces
     atom    1 type  2   force =     0.00000000    0.00000000    0.01481607
     atom    2 type  3   force =     0.00000000    0.00000000   -0.04092765
     atom    3 type  1   force =     0.00000000    0.00000000   -0.16285109
     atom    4 type  1   force =     0.00000000    0.00000000   -0.16285109
     atom    5 type  1   force =     0.00000000    0.00000000    0.38082432
     The ionic contribution  to forces
     atom    1 type  2   force =     0.00000000    0.00000000   -1.38853944
     atom    2 type  3   force =     0.00000000    0.00000000    2.79703323
     atom    3 type  1   force =     0.00000000   -0.00000000    1.53315015
     atom    4 type  1   force =    -0.00000000    0.00000000    1.53315015
     atom    5 type  1   force =     0.00000000    0.00000000   -4.47479409
     The local contribution  to forces
     atom    1 type  2   force =     0.00000000   -0.00000000    1.34782816
     atom    2 type  3   force =    -0.00000000   -0.00000000   -2.68024900
     atom    3 type  1   force =     0.00000000   -0.00000000   -1.37982167
     atom    4 type  1   force =    -0.00000000    0.00000000   -1.37982167
     atom    5 type  1   force =    -0.00000000   -0.00000000    4.06296212
     The core correction contribution to forces
     atom    1 type  2   force =     0.00000000    0.00000000    0.00000000
     atom    2 type  3   force =     0.00000000    0.00000000    0.00000000
     atom    3 type  1   force =     0.00000000    0.00000000    0.00000000
     atom    4 type  1   force =     0.00000000    0.00000000    0.00000000
     atom    5 type  1   force =     0.00000000    0.00000000    0.00000000
     The Hubbard contrib.    to forces
     atom    1 type  2   force =     0.00000000    0.00000000    0.00000000
     atom    2 type  3   force =     0.00000000    0.00000000    0.00000000
     atom    3 type  1   force =     0.00000000    0.00000000    0.00000000
     atom    4 type  1   force =     0.00000000    0.00000000    0.00000000
     atom    5 type  1   force =     0.00000000    0.00000000    0.00000000
     The SCF correction term to forces
     atom    1 type  2   force =    -0.00000000   -0.00000000   -0.00000000
     atom    2 type  3   force =     0.00000000    0.00000000    0.00000000
     atom    3 type  1   force =    -0.00000000    0.00000000    0.00012748
     atom    4 type  1   force =     0.00000000   -0.00000000    0.00012748
     atom    5 type  1   force =     0.00000000   -0.00000000   -0.00019320

     Total force =     0.033914     Total SCF correction =     0.000264


     Computing stress (Cartesian axis) and pressure

          total   stress  (Ry/bohr**3)                   (kbar)     P=        0.41
  -0.00012556   0.00000000   0.00000000          -18.47        0.00        0.00
   0.00000000  -0.00012556   0.00000000            0.00      -18.47        0.00
   0.00000000   0.00000000   0.00025958            0.00        0.00       38.19

     Energy error            =      3.4E-03 Ry
     Gradient error          =      3.1E-02 Ry/Bohr

     number of scf cycles    =   2
     number of bfgs steps    =   1

     energy             old  =    -333.1704950142 Ry
     energy             new  =    -333.1738918891 Ry

     CASE: energy            _new < energy            _old

     new trust radius        =       0.0648450813 bohr
     new conv_thr            =       0.0000000312 Ry


ATOMIC_POSITIONS (angstrom)
Pb            0.0000000000        0.0000000000        0.0000000000    0   0   0
Ti            1.9400000000        1.9400000000        1.7153700000    0   0   0
O             0.0000000000        1.9400000000        1.9279930086
O             1.9400000000        0.0000000000        1.9279930086
O             1.9400000000        1.9400000000       -0.0702791749



     Writing config-only to output data dir /home/gridsan/epan1/labutil/lab3_samples/problem2/Lab3/PbTiO3_a_3.88_ecut_30_nk_4_displ_-0.05789473684210527/pwscf.save/
     NEW-OLD atomic charge density approx. for the potential

     total cpu time spent up to now is        9.7 secs

     Self-consistent Calculation

     iteration #  1     ecut=    30.00 Ry     beta= 0.70
     Davidson diagonalization with overlap
     ethr =  1.00E-06,  avg # of iterations =  8.5

     total cpu time spent up to now is       10.2 secs

     total energy              =    -333.17504076 Ry
     estimated scf accuracy    <       0.00106691 Ry

     iteration #  2     ecut=    30.00 Ry     beta= 0.70
     Davidson diagonalization with overlap
     ethr =  2.42E-06,  avg # of iterations =  5.7

     total cpu time spent up to now is       10.6 secs

     total energy              =    -333.17494972 Ry
     estimated scf accuracy    <       0.00220279 Ry

     iteration #  3     ecut=    30.00 Ry     beta= 0.70
     Davidson diagonalization with overlap
     ethr =  2.42E-06,  avg # of iterations =  4.5

     total cpu time spent up to now is       11.0 secs

     total energy              =    -333.17541282 Ry
     estimated scf accuracy    <       0.00008921 Ry

     iteration #  4     ecut=    30.00 Ry     beta= 0.70
     Davidson diagonalization with overlap
     ethr =  2.03E-07,  avg # of iterations =  2.3

     total cpu time spent up to now is       11.2 secs

     total energy              =    -333.17541999 Ry
     estimated scf accuracy    <       0.00001961 Ry

     iteration #  5     ecut=    30.00 Ry     beta= 0.70
     Davidson diagonalization with overlap
     ethr =  4.46E-08,  avg # of iterations =  4.3

     total cpu time spent up to now is       11.6 secs

     total energy              =    -333.17542503 Ry
     estimated scf accuracy    <       0.00000054 Ry

     iteration #  6     ecut=    30.00 Ry     beta= 0.70
     Davidson diagonalization with overlap
     ethr =  1.22E-09,  avg # of iterations =  6.2

     total cpu time spent up to now is       12.0 secs

     total energy              =    -333.17542531 Ry
     estimated scf accuracy    <       0.00000039 Ry

     iteration #  7     ecut=    30.00 Ry     beta= 0.70
     Davidson diagonalization with overlap
     ethr =  8.89E-10,  avg # of iterations =  4.2

     total cpu time spent up to now is       12.3 secs

     total energy              =    -333.17542536 Ry
     estimated scf accuracy    <       0.00000003 Ry

     iteration #  8     ecut=    30.00 Ry     beta= 0.70
     Davidson diagonalization with overlap
     ethr =  7.43E-11,  avg # of iterations =  4.8

     total cpu time spent up to now is       12.6 secs

     End of self-consistent calculation

          k = 0.1250 0.1250 0.1250 (  1096 PWs)   bands (ev):

   -44.6153 -21.3129 -21.2134 -21.2126  -6.3773  -5.3282  -5.2280  -4.0623
    -4.0468  -4.0357  -3.8677  -3.8537   4.5599   7.2193   7.2765   8.0068
     8.8714   9.0253   9.5585   9.7484  10.0567  10.1334

          k = 0.1250 0.1250 0.3750 (  1095 PWs)   bands (ev):

   -44.6140 -21.3707 -21.2111 -21.2101  -5.9119  -5.2129  -5.0982  -4.1172
    -4.0579  -4.0290  -3.9518  -3.8421   3.7928   6.7529   7.0833   7.7468
     8.4977   8.5584   9.4128   9.7964  10.1751  10.9054

          k = 0.1250 0.3750 0.3750 (  1093 PWs)   bands (ev):

   -44.6128 -21.3673 -21.2652 -21.2087  -5.7000  -5.1228  -4.9697  -4.0915
    -4.0476  -3.9917  -3.8986  -3.7235   3.4676   6.5820   6.9853   7.1200
     7.5037   8.6943   9.2888   9.5207   9.9883  10.6081

          k = 0.3750 0.3750 0.3750 (  1082 PWs)   bands (ev):

   -44.6114 -21.3646 -21.2627 -21.2625  -5.3960  -5.2054  -5.1482  -4.0067
    -3.9908  -3.7236  -3.6468  -3.6179   4.0914   5.8516   5.9467   6.6100
     7.1641   7.2290   7.9579  10.5208  10.5871  10.7421

          k = 0.3750-0.1250 0.1250 (  1095 PWs)   bands (ev):

   -44.6140 -21.3105 -21.2687 -21.2108  -5.9981  -5.1845  -5.0895  -4.1113
    -4.0489  -4.0349  -3.9638  -3.8323   3.8368   6.8881   7.3549   7.7861
     8.3754   8.7913   9.2160   9.8155   9.9159  10.7836

          k = 0.3750-0.3750 0.1250 (  1093 PWs)   bands (ev):

   -44.6128 -21.3085 -21.2658 -21.2650  -5.8469  -5.0191  -4.9428  -4.0770
    -4.0413  -3.9776  -3.8940  -3.7808   3.5048   6.8034   6.8853   7.1341
     7.4502   8.6471   9.4820   9.4886   9.9492  10.7436

     highest occupied level (ev):    10.9054

!    total energy              =    -333.17542537 Ry
     estimated scf accuracy    <          3.4E-09 Ry

     The total energy is the sum of the following terms:
     one-electron contribution =     -77.37484501 Ry
     hartree contribution      =      66.58832242 Ry
     xc contribution           =     -49.65059172 Ry
     ewald contribution        =    -272.73831106 Ry

     convergence has been achieved in   8 iterations

     Forces acting on atoms (cartesian axes, Ry/au):

     atom    1 type  2   force =     0.00000000    0.00000000   -0.02574517
     atom    2 type  3   force =     0.00000000    0.00000000    0.05648841
     atom    3 type  1   force =     0.00000000    0.00000000   -0.01327446
     atom    4 type  1   force =     0.00000000    0.00000000   -0.01327446
     atom    5 type  1   force =     0.00000000    0.00000000   -0.00419432
     The non-local contrib.  to forces
     atom    1 type  2   force =     0.00000000    0.00000000    0.02184941
     atom    2 type  3   force =     0.00000000    0.00000000   -0.03308521
     atom    3 type  1   force =     0.00000000    0.00000000   -0.17400523
     atom    4 type  1   force =     0.00000000    0.00000000   -0.17400523
     atom    5 type  1   force =     0.00000000    0.00000000    0.34481466
     The ionic contribution  to forces
     atom    1 type  2   force =     0.00000000    0.00000000   -1.39754400
     atom    2 type  3   force =     0.00000000    0.00000000    2.08136169
     atom    3 type  1   force =     0.00000000   -0.00000000    1.46073485
     atom    4 type  1   force =    -0.00000000    0.00000000    1.46073485
     atom    5 type  1   force =    -0.00000000   -0.00000000   -3.60528740
     The local contribution  to forces
     atom    1 type  2   force =     0.00000000    0.00000000    1.34992127
     atom    2 type  3   force =    -0.00000000   -0.00000000   -1.99181817
     atom    3 type  1   force =     0.00000000   -0.00000000   -1.29997476
     atom    4 type  1   force =    -0.00000000    0.00000000   -1.29997476
     atom    5 type  1   force =    -0.00000000   -0.00000000    3.25628351
     The core correction contribution to forces
     atom    1 type  2   force =     0.00000000    0.00000000    0.00000000
     atom    2 type  3   force =     0.00000000    0.00000000    0.00000000
     atom    3 type  1   force =     0.00000000    0.00000000    0.00000000
     atom    4 type  1   force =     0.00000000    0.00000000    0.00000000
     atom    5 type  1   force =     0.00000000    0.00000000    0.00000000
     The Hubbard contrib.    to forces
     atom    1 type  2   force =     0.00000000    0.00000000    0.00000000
     atom    2 type  3   force =     0.00000000    0.00000000    0.00000000
     atom    3 type  1   force =     0.00000000    0.00000000    0.00000000
     atom    4 type  1   force =     0.00000000    0.00000000    0.00000000
     atom    5 type  1   force =     0.00000000    0.00000000    0.00000000
     The SCF correction term to forces
     atom    1 type  2   force =     0.00000000    0.00000000    0.00000000
     atom    2 type  3   force =     0.00000000   -0.00000000    0.00000000
     atom    3 type  1   force =     0.00000000    0.00000000   -0.00001962
     atom    4 type  1   force =     0.00000000   -0.00000000   -0.00001962
     atom    5 type  1   force =     0.00000000   -0.00000000    0.00000461

     Total force =     0.019236     Total SCF correction =     0.000028


     Computing stress (Cartesian axis) and pressure

          total   stress  (Ry/bohr**3)                   (kbar)     P=      -10.23
  -0.00014436   0.00000000   0.00000000          -21.24        0.00        0.00
   0.00000000  -0.00014436   0.00000000            0.00      -21.24        0.00
   0.00000000   0.00000000   0.00008001            0.00        0.00       11.77

     Energy error            =      1.5E-03 Ry
     Gradient error          =      1.3E-02 Ry/Bohr

     number of scf cycles    =   3
     number of bfgs steps    =   2

     energy             old  =    -333.1738918891 Ry
     energy             new  =    -333.1754253739 Ry

     CASE: energy            _new < energy            _old

     new trust radius        =       0.0354569825 bohr
     new conv_thr            =       0.0000000133 Ry


ATOMIC_POSITIONS (angstrom)
Pb            0.0000000000        0.0000000000        0.0000000000    0   0   0
Ti            1.9400000000        1.9400000000        1.7153700000    0   0   0
O             0.0000000000        1.9400000000        1.9141948087
O             1.9400000000        0.0000000000        1.9141948087
O             1.9400000000        1.9400000000       -0.0890422020



     Writing config-only to output data dir /home/gridsan/epan1/labutil/lab3_samples/problem2/Lab3/PbTiO3_a_3.88_ecut_30_nk_4_displ_-0.05789473684210527/pwscf.save/
     NEW-OLD atomic charge density approx. for the potential

     total cpu time spent up to now is       13.8 secs

     Self-consistent Calculation

     iteration #  1     ecut=    30.00 Ry     beta= 0.70
     Davidson diagonalization with overlap
     ethr =  1.00E-06,  avg # of iterations =  7.5

     total cpu time spent up to now is       14.3 secs

     total energy              =    -333.17602141 Ry
     estimated scf accuracy    <       0.00033177 Ry

     iteration #  2     ecut=    30.00 Ry     beta= 0.70
     Davidson diagonalization with overlap
     ethr =  7.54E-07,  avg # of iterations =  5.0

     total cpu time spent up to now is       14.6 secs

     total energy              =    -333.17600111 Ry
     estimated scf accuracy    <       0.00041655 Ry

     iteration #  3     ecut=    30.00 Ry     beta= 0.70
     Davidson diagonalization with overlap
     ethr =  7.54E-07,  avg # of iterations =  4.5

     total cpu time spent up to now is       14.9 secs

     total energy              =    -333.17610221 Ry
     estimated scf accuracy    <       0.00005364 Ry

     iteration #  4     ecut=    30.00 Ry     beta= 0.70
     Davidson diagonalization with overlap
     ethr =  1.22E-07,  avg # of iterations =  3.0

     total cpu time spent up to now is       15.2 secs

     total energy              =    -333.17610676 Ry
     estimated scf accuracy    <       0.00000631 Ry

     iteration #  5     ecut=    30.00 Ry     beta= 0.70
     Davidson diagonalization with overlap
     ethr =  1.44E-08,  avg # of iterations =  4.7

     total cpu time spent up to now is       15.6 secs

     total energy              =    -333.17610963 Ry
     estimated scf accuracy    <       0.00000095 Ry

     iteration #  6     ecut=    30.00 Ry     beta= 0.70
     Davidson diagonalization with overlap
     ethr =  2.16E-09,  avg # of iterations =  3.3

     total cpu time spent up to now is       15.9 secs

     total energy              =    -333.17610966 Ry
     estimated scf accuracy    <       0.00000041 Ry

     iteration #  7     ecut=    30.00 Ry     beta= 0.70
     Davidson diagonalization with overlap
     ethr =  9.28E-10,  avg # of iterations =  4.0

     total cpu time spent up to now is       16.2 secs

     total energy              =    -333.17610972 Ry
     estimated scf accuracy    <       0.00000002 Ry

     iteration #  8     ecut=    30.00 Ry     beta= 0.70
     Davidson diagonalization with overlap
     ethr =  4.97E-11,  avg # of iterations =  5.0

     total cpu time spent up to now is       16.5 secs

     End of self-consistent calculation

          k = 0.1250 0.1250 0.1250 (  1096 PWs)   bands (ev):

   -44.6449 -21.3192 -21.2449 -21.2441  -6.3781  -5.3240  -5.2434  -4.0557
    -4.0424  -4.0314  -3.8632  -3.8506   4.5656   7.2259   7.2689   8.0106
     8.9094   9.0476   9.6045   9.7604  10.0370  10.1348

          k = 0.1250 0.1250 0.3750 (  1095 PWs)   bands (ev):

   -44.6437 -21.3767 -21.2425 -21.2416  -5.9236  -5.1988  -5.1158  -4.1108
    -4.0511  -4.0250  -3.9484  -3.8370   3.8097   6.7577   7.1179   7.7467
     8.4839   8.5859   9.4041   9.8113  10.1568  10.8942

          k = 0.1250 0.3750 0.3750 (  1093 PWs)   bands (ev):

   -44.6424 -21.3734 -21.2968 -21.2402  -5.7115  -5.1079  -4.9794  -4.0854
    -4.0415  -3.9865  -3.8939  -3.7222   3.4761   6.6080   6.9593   7.1235
     7.4899   8.6835   9.3133   9.5070   9.9996  10.6178

          k = 0.3750 0.3750 0.3750 (  1082 PWs)   bands (ev):

   -44.6411 -21.3707 -21.2942 -21.2940  -5.3868  -5.2056  -5.1571  -4.0003
    -3.9866  -3.7153  -3.6436  -3.6171   4.0937   5.8658   5.9388   6.6158
     7.1409   7.1916   7.9650  10.5436  10.6053  10.7284

          k = 0.3750-0.1250 0.1250 (  1095 PWs)   bands (ev):

   -44.6437 -21.3168 -21.3001 -21.2422  -5.9932  -5.1868  -5.1008  -4.1063
    -4.0432  -4.0303  -3.9573  -3.8285   3.8425   6.8713   7.3509   7.7861
     8.3785   8.7832   9.2378   9.8327   9.9391  10.7892

          k = 0.3750-0.3750 0.1250 (  1093 PWs)   bands (ev):

   -44.6425 -21.3149 -21.2972 -21.2965  -5.8305  -5.0293  -4.9546  -4.0731
    -4.0359  -3.9733  -3.8895  -3.7720   3.5022   6.7951   6.8777   7.1441
     7.4524   8.6436   9.4765   9.4828   9.9553  10.7308

     highest occupied level (ev):    10.8942

!    total energy              =    -333.17610973 Ry
     estimated scf accuracy    <          9.5E-09 Ry

     The total energy is the sum of the following terms:
     one-electron contribution =     -77.28330195 Ry
     hartree contribution      =      66.53483358 Ry
     xc contribution           =     -49.64473187 Ry
     ewald contribution        =    -272.78290949 Ry

     convergence has been achieved in   8 iterations

     Forces acting on atoms (cartesian axes, Ry/au):

     atom    1 type  2   force =     0.00000000    0.00000000   -0.02487425
     atom    2 type  3   force =     0.00000000    0.00000000    0.04759984
     atom    3 type  1   force =     0.00000000    0.00000000   -0.01425683
     atom    4 type  1   force =     0.00000000    0.00000000   -0.01425683
     atom    5 type  1   force =     0.00000000    0.00000000    0.00578806
     The non-local contrib.  to forces
     atom    1 type  2   force =     0.00000000    0.00000000    0.03190594
     atom    2 type  3   force =     0.00000000    0.00000000   -0.02929843
     atom    3 type  1   force =     0.00000000    0.00000000   -0.17597128
     atom    4 type  1   force =     0.00000000    0.00000000   -0.17597128
     atom    5 type  1   force =     0.00000000    0.00000000    0.31862350
     The ionic contribution  to forces
     atom    1 type  2   force =     0.00000000    0.00000000   -1.51984723
     atom    2 type  3   force =     0.00000000    0.00000000    1.81456156
     atom    3 type  1   force =     0.00000000   -0.00000000    1.44532723
     atom    4 type  1   force =    -0.00000000    0.00000000    1.44532723
     atom    5 type  1   force =    -0.00000000   -0.00000000   -3.18536879
     The local contribution  to forces
     atom    1 type  2   force =    -0.00000000   -0.00000000    1.46301971
     atom    2 type  3   force =    -0.00000000   -0.00000000   -1.73763372
     atom    3 type  1   force =     0.00000000   -0.00000000   -1.28355683
     atom    4 type  1   force =    -0.00000000    0.00000000   -1.28355683
     atom    5 type  1   force =    -0.00000000   -0.00000000    2.87248419
     The core correction contribution to forces
     atom    1 type  2   force =     0.00000000    0.00000000    0.00000000
     atom    2 type  3   force =     0.00000000    0.00000000    0.00000000
     atom    3 type  1   force =     0.00000000    0.00000000    0.00000000
     atom    4 type  1   force =     0.00000000    0.00000000    0.00000000
     atom    5 type  1   force =     0.00000000    0.00000000    0.00000000
     The Hubbard contrib.    to forces
     atom    1 type  2   force =     0.00000000    0.00000000    0.00000000
     atom    2 type  3   force =     0.00000000    0.00000000    0.00000000
     atom    3 type  1   force =     0.00000000    0.00000000    0.00000000
     atom    4 type  1   force =     0.00000000    0.00000000    0.00000000
     atom    5 type  1   force =     0.00000000    0.00000000    0.00000000
     The SCF correction term to forces
     atom    1 type  2   force =    -0.00000000   -0.00000000    0.00000000
     atom    2 type  3   force =     0.00000000   -0.00000000   -0.00000000
     atom    3 type  1   force =    -0.00000000    0.00000000   -0.00004307
     atom    4 type  1   force =    -0.00000000    0.00000000   -0.00004307
     atom    5 type  1   force =     0.00000000   -0.00000000    0.00006203

     Total force =     0.020977     Total SCF correction =     0.000087


     Computing stress (Cartesian axis) and pressure

          total   stress  (Ry/bohr**3)                   (kbar)     P=      -13.85
  -0.00014489   0.00000000   0.00000000          -21.31        0.00        0.00
   0.00000000  -0.00014489   0.00000000            0.00      -21.31        0.00
   0.00000000   0.00000000   0.00000738            0.00        0.00        1.09

     Energy error            =      6.8E-04 Ry
     Gradient error          =      1.4E-02 Ry/Bohr

     number of scf cycles    =   4
     number of bfgs steps    =   3

     energy             old  =    -333.1754253739 Ry
     energy             new  =    -333.1761097252 Ry

     CASE: energy            _new < energy            _old

     new trust radius        =       0.0390026807 bohr
     new conv_thr            =       0.0000000068 Ry


ATOMIC_POSITIONS (angstrom)
Pb            0.0000000000        0.0000000000        0.0000000000    0   0   0
Ti            1.9400000000        1.9400000000        1.7153700000    0   0   0
O             0.0000000000        1.9400000000        1.8935554789
O             1.9400000000        0.0000000000        1.8935554789
O             1.9400000000        1.9400000000       -0.1067977619



     Writing config-only to output data dir /home/gridsan/epan1/labutil/lab3_samples/problem2/Lab3/PbTiO3_a_3.88_ecut_30_nk_4_displ_-0.05789473684210527/pwscf.save/
     NEW-OLD atomic charge density approx. for the potential

     total cpu time spent up to now is       17.8 secs

     Self-consistent Calculation

     iteration #  1     ecut=    30.00 Ry     beta= 0.70
     Davidson diagonalization with overlap
     ethr =  1.00E-06,  avg # of iterations =  8.5

     total cpu time spent up to now is       18.3 secs

     total energy              =    -333.17684502 Ry
     estimated scf accuracy    <       0.00038735 Ry

     iteration #  2     ecut=    30.00 Ry     beta= 0.70
     Davidson diagonalization with overlap
     ethr =  8.80E-07,  avg # of iterations =  4.3

     total cpu time spent up to now is       18.6 secs

     total energy              =    -333.17683841 Ry
     estimated scf accuracy    <       0.00026535 Ry

     iteration #  3     ecut=    30.00 Ry     beta= 0.70
     Davidson diagonalization with overlap
     ethr =  6.03E-07,  avg # of iterations =  4.5

     total cpu time spent up to now is       18.9 secs

     total energy              =    -333.17690843 Ry
     estimated scf accuracy    <       0.00012563 Ry

     iteration #  4     ecut=    30.00 Ry     beta= 0.70
     Davidson diagonalization with overlap
     ethr =  2.86E-07,  avg # of iterations =  3.0

     total cpu time spent up to now is       19.2 secs

     total energy              =    -333.17691845 Ry
     estimated scf accuracy    <       0.00001196 Ry

     iteration #  5     ecut=    30.00 Ry     beta= 0.70
     Davidson diagonalization with overlap
     ethr =  2.72E-08,  avg # of iterations =  4.8

     total cpu time spent up to now is       19.6 secs

     total energy              =    -333.17692800 Ry
     estimated scf accuracy    <       0.00001246 Ry

     iteration #  6     ecut=    30.00 Ry     beta= 0.70
     Davidson diagonalization with overlap
     ethr =  2.72E-08,  avg # of iterations =  1.2

     total cpu time spent up to now is       19.8 secs

     total energy              =    -333.17692618 Ry
     estimated scf accuracy    <       0.00000781 Ry

     iteration #  7     ecut=    30.00 Ry     beta= 0.70
     Davidson diagonalization with overlap
     ethr =  1.77E-08,  avg # of iterations =  2.5

     total cpu time spent up to now is       20.1 secs

     total energy              =    -333.17692720 Ry
     estimated scf accuracy    <       0.00000067 Ry

     iteration #  8     ecut=    30.00 Ry     beta= 0.70
     Davidson diagonalization with overlap
     ethr =  1.52E-09,  avg # of iterations =  4.8

     total cpu time spent up to now is       20.5 secs

     total energy              =    -333.17692744 Ry
     estimated scf accuracy    <       0.00000002 Ry

     iteration #  9     ecut=    30.00 Ry     beta= 0.70
     Davidson diagonalization with overlap
     ethr =  3.97E-11,  avg # of iterations =  4.8

     total cpu time spent up to now is       20.8 secs

     total energy              =    -333.17692744 Ry
     estimated scf accuracy    <       0.00000004 Ry

     iteration # 10     ecut=    30.00 Ry     beta= 0.70
     Davidson diagonalization with overlap
     ethr =  3.97E-11,  avg # of iterations =  4.3

     total cpu time spent up to now is       21.1 secs

     End of self-consistent calculation

          k = 0.1250 0.1250 0.1250 (  1096 PWs)   bands (ev):

   -44.6703 -21.3254 -21.2723 -21.2715  -6.3795  -5.3216  -5.2632  -4.0492
    -4.0381  -4.0271  -3.8591  -3.8468   4.5711   7.2334   7.2633   8.0180
     8.9435   9.0618   9.6569   9.7759  10.0118  10.1272

          k = 0.1250 0.1250 0.3750 (  1095 PWs)   bands (ev):

   -44.6690 -21.3827 -21.2700 -21.2690  -5.9376  -5.1851  -5.1387  -4.1042
    -4.0444  -4.0210  -3.9441  -3.8320   3.8269   6.7647   7.1586   7.7516
     8.4593   8.6080   9.3898   9.8287  10.1339  10.8784

          k = 0.1250 0.3750 0.3750 (  1093 PWs)   bands (ev):

   -44.6678 -21.3794 -21.3244 -21.2676  -5.7257  -5.0943  -4.9906  -4.0793
    -4.0356  -3.9810  -3.8887  -3.7203   3.4835   6.6364   6.9251   7.1284
     7.4731   8.6699   9.3302   9.4898  10.0075  10.6273

          k = 0.3750 0.3750 0.3750 (  1082 PWs)   bands (ev):

   -44.6665 -21.3768 -21.3219 -21.3216  -5.3787  -5.2058  -5.1683  -3.9940
    -3.9824  -3.7073  -3.6396  -3.6154   4.0922   5.8773   5.9266   6.6255
     7.1096   7.1446   7.9721  10.5639  10.6194  10.7124

          k = 0.3750-0.1250 0.1250 (  1095 PWs)   bands (ev):

   -44.6690 -21.3281 -21.3228 -21.2696  -5.9885  -5.1923  -5.1145  -4.1015
    -4.0376  -4.0257  -3.9496  -3.8242   3.8470   6.8501   7.3419   7.7872
     8.3815   8.7662   9.2566   9.8463   9.9640  10.7930

          k = 0.3750-0.3750 0.1250 (  1093 PWs)   bands (ev):

   -44.6678 -21.3255 -21.3241 -21.3206  -5.8127  -5.0425  -4.9696  -4.0692
    -4.0300  -3.9677  -3.8836  -3.7632   3.4967   6.7846   6.8637   7.1462
     7.4469   8.6395   9.4695   9.4700   9.9637  10.7144

     highest occupied level (ev):    10.8784

!    total energy              =    -333.17692744 Ry
     estimated scf accuracy    <          2.1E-09 Ry

     The total energy is the sum of the following terms:
     one-electron contribution =     -77.30104279 Ry
     hartree contribution      =      66.53678054 Ry
     xc contribution           =     -49.64171844 Ry
     ewald contribution        =    -272.77094675 Ry

     convergence has been achieved in  10 iterations

     Forces acting on atoms (cartesian axes, Ry/au):

     atom    1 type  2   force =     0.00000000    0.00000000   -0.02344444
     atom    2 type  3   force =     0.00000000    0.00000000    0.04036435
     atom    3 type  1   force =     0.00000000    0.00000000   -0.01418864
     atom    4 type  1   force =     0.00000000    0.00000000   -0.01418864
     atom    5 type  1   force =     0.00000000    0.00000000    0.01145738
     The non-local contrib.  to forces
     atom    1 type  2   force =     0.00000000    0.00000000    0.04690689
     atom    2 type  3   force =     0.00000000    0.00000000   -0.02594209
     atom    3 type  1   force =     0.00000000    0.00000000   -0.17431073
     atom    4 type  1   force =     0.00000000    0.00000000   -0.17431073
     atom    5 type  1   force =     0.00000000    0.00000000    0.28831399
     The ionic contribution  to forces
     atom    1 type  2   force =     0.00000000    0.00000000   -1.73969676
     atom    2 type  3   force =     0.00000000    0.00000000    1.67390376
     atom    3 type  1   force =     0.00000000   -0.00000000    1.45055158
     atom    4 type  1   force =    -0.00000000    0.00000000    1.45055158
     atom    5 type  1   force =    -0.00000000   -0.00000000   -2.83531015
     The local contribution  to forces
     atom    1 type  2   force =    -0.00000000    0.00000000    1.66933676
     atom    2 type  3   force =    -0.00000000   -0.00000000   -1.60757453
     atom    3 type  1   force =     0.00000000   -0.00000000   -1.29041259
     atom    4 type  1   force =    -0.00000000    0.00000000   -1.29041259
     atom    5 type  1   force =    -0.00000000   -0.00000000    2.55844018
     The core correction contribution to forces
     atom    1 type  2   force =     0.00000000    0.00000000    0.00000000
     atom    2 type  3   force =     0.00000000    0.00000000    0.00000000
     atom    3 type  1   force =     0.00000000    0.00000000    0.00000000
     atom    4 type  1   force =     0.00000000    0.00000000    0.00000000
     atom    5 type  1   force =     0.00000000    0.00000000    0.00000000
     The Hubbard contrib.    to forces
     atom    1 type  2   force =     0.00000000    0.00000000    0.00000000
     atom    2 type  3   force =     0.00000000    0.00000000    0.00000000
     atom    3 type  1   force =     0.00000000    0.00000000    0.00000000
     atom    4 type  1   force =     0.00000000    0.00000000    0.00000000
     atom    5 type  1   force =     0.00000000    0.00000000    0.00000000
     The SCF correction term to forces
     atom    1 type  2   force =     0.00000000    0.00000000    0.00000000
     atom    2 type  3   force =    -0.00000000    0.00000000   -0.00000000
     atom    3 type  1   force =     0.00000000    0.00000000   -0.00001267
     atom    4 type  1   force =    -0.00000000   -0.00000000   -0.00001267
     atom    5 type  1   force =     0.00000000   -0.00000000    0.00001760

     Total force =     0.023106     Total SCF correction =     0.000025


     Computing stress (Cartesian axis) and pressure

          total   stress  (Ry/bohr**3)                   (kbar)     P=      -15.64
  -0.00013805   0.00000000   0.00000000          -20.31        0.00        0.00
   0.00000000  -0.00013805   0.00000000            0.00      -20.31        0.00
   0.00000000   0.00000000  -0.00004280            0.00        0.00       -6.30

     Energy error            =      8.2E-04 Ry
     Gradient error          =      1.4E-02 Ry/Bohr

     number of scf cycles    =   5
     number of bfgs steps    =   4

     energy             old  =    -333.1761097252 Ry
     energy             new  =    -333.1769274404 Ry

     CASE: energy            _new < energy            _old

     new trust radius        =       0.0585040211 bohr
     new conv_thr            =       0.0000000082 Ry


ATOMIC_POSITIONS (angstrom)
Pb            0.0000000000        0.0000000000        0.0000000000    0   0   0
Ti            1.9400000000        1.9400000000        1.7153700000    0   0   0
O             0.0000000000        1.9400000000        1.8625964842
O             1.9400000000        0.0000000000        1.8625964842
O             1.9400000000        1.9400000000       -0.1273545852



     Writing config-only to output data dir /home/gridsan/epan1/labutil/lab3_samples/problem2/Lab3/PbTiO3_a_3.88_ecut_30_nk_4_displ_-0.05789473684210527/pwscf.save/
     NEW-OLD atomic charge density approx. for the potential

     total cpu time spent up to now is       22.2 secs

     Self-consistent Calculation

     iteration #  1     ecut=    30.00 Ry     beta= 0.70
     Davidson diagonalization with overlap
     ethr =  1.00E-06,  avg # of iterations =  9.3

     total cpu time spent up to now is       22.7 secs

     total energy              =    -333.17788486 Ry
     estimated scf accuracy    <       0.00070500 Ry

     iteration #  2     ecut=    30.00 Ry     beta= 0.70
     Davidson diagonalization with overlap
     ethr =  1.60E-06,  avg # of iterations =  4.0

     total cpu time spent up to now is       23.0 secs

     total energy              =    -333.17789617 Ry
     estimated scf accuracy    <       0.00033761 Ry

     iteration #  3     ecut=    30.00 Ry     beta= 0.70
     Davidson diagonalization with overlap
     ethr =  7.67E-07,  avg # of iterations =  4.5

     total cpu time spent up to now is       23.4 secs

     total energy              =    -333.17798713 Ry
     estimated scf accuracy    <       0.00023154 Ry

     iteration #  4     ecut=    30.00 Ry     beta= 0.70
     Davidson diagonalization with overlap
     ethr =  5.26E-07,  avg # of iterations =  3.2

     total cpu time spent up to now is       23.7 secs

     total energy              =    -333.17800929 Ry
     estimated scf accuracy    <       0.00001559 Ry

     iteration #  5     ecut=    30.00 Ry     beta= 0.70
     Davidson diagonalization with overlap
     ethr =  3.54E-08,  avg # of iterations =  5.7

     total cpu time spent up to now is       24.1 secs

     total energy              =    -333.17802381 Ry
     estimated scf accuracy    <       0.00002726 Ry

     iteration #  6     ecut=    30.00 Ry     beta= 0.70
     Davidson diagonalization with overlap
     ethr =  3.54E-08,  avg # of iterations =  2.0

     total cpu time spent up to now is       24.4 secs

     total energy              =    -333.17802042 Ry
     estimated scf accuracy    <       0.00001596 Ry

     iteration #  7     ecut=    30.00 Ry     beta= 0.70
     Davidson diagonalization with overlap
     ethr =  3.54E-08,  avg # of iterations =  3.5

     total cpu time spent up to now is       24.7 secs

     total energy              =    -333.17802215 Ry
     estimated scf accuracy    <       0.00000150 Ry

     iteration #  8     ecut=    30.00 Ry     beta= 0.70
     Davidson diagonalization with overlap
     ethr =  3.40E-09,  avg # of iterations =  4.7

     total cpu time spent up to now is       25.0 secs

     total energy              =    -333.17802291 Ry
     estimated scf accuracy    <       0.00000022 Ry

     iteration #  9     ecut=    30.00 Ry     beta= 0.70
     Davidson diagonalization with overlap
     ethr =  4.93E-10,  avg # of iterations =  2.3

     total cpu time spent up to now is       25.3 secs

     total energy              =    -333.17802289 Ry
     estimated scf accuracy    <       0.00000010 Ry

     iteration # 10     ecut=    30.00 Ry     beta= 0.70
     Davidson diagonalization with overlap
     ethr =  2.32E-10,  avg # of iterations =  4.7

     total cpu time spent up to now is       25.6 secs

     End of self-consistent calculation

          k = 0.1250 0.1250 0.1250 (  1096 PWs)   bands (ev):

   -44.6966 -21.3331 -21.3013 -21.3005  -6.3840  -5.3195  -5.2920  -4.0404
    -4.0318  -4.0206  -3.8536  -3.8390   4.5780   7.2407   7.2583   8.0285
     8.9796   9.0703   9.7255   9.7954   9.9761  10.1077

          k = 0.1250 0.1250 0.3750 (  1095 PWs)   bands (ev):

   -44.6953 -21.3900 -21.2990 -21.2981  -5.9586  -5.1717  -5.1686  -4.0945
    -4.0350  -4.0149  -3.9355  -3.8250   3.8481   6.7743   7.2091   7.7575
     8.4219   8.6314   9.3663   9.8494  10.1012  10.8573

          k = 0.1250 0.3750 0.3750 (  1093 PWs)   bands (ev):

   -44.6941 -21.3868 -21.3538 -21.2966  -5.7465  -5.0826  -5.0046  -4.0707
    -4.0275  -3.9728  -3.8806  -3.7153   3.4924   6.6707   6.8788   7.1306
     7.4532   8.6498   9.3421   9.4678  10.0145  10.6377

          k = 0.3750 0.3750 0.3750 (  1082 PWs)   bands (ev):

   -44.6928 -21.3841 -21.3512 -21.3510  -5.3736  -5.2046  -5.1854  -3.9852
    -3.9760  -3.6974  -3.6324  -3.6107   4.0857   5.8892   5.9087   6.6373
     7.0678   7.0835   7.9846  10.5845  10.6271  10.6945

          k = 0.3750-0.1250 0.1250 (  1095 PWs)   bands (ev):

   -44.6954 -21.3572 -21.3306 -21.2986  -5.9857  -5.2022  -5.1344  -4.0946
    -4.0296  -4.0188  -3.9370  -3.8166   3.8511   6.8218   7.3262   7.7890
     8.3841   8.7396   9.2753   9.8562   9.9933  10.7973

          k = 0.3750-0.3750 0.1250 (  1093 PWs)   bands (ev):

   -44.6941 -21.3544 -21.3535 -21.3287  -5.7914  -5.0631  -4.9932  -4.0633
    -4.0209  -3.9572  -3.8728  -3.7514   3.4864   6.7696   6.8411   7.1418
     7.4362   8.6351   9.4498   9.4607   9.9773  10.6903

     highest occupied level (ev):    10.8573

!    total energy              =    -333.17802291 Ry
     estimated scf accuracy    <          1.1E-09 Ry

     The total energy is the sum of the following terms:
     one-electron contribution =     -77.42591466 Ry
     hartree contribution      =      66.59173683 Ry
     xc contribution           =     -49.64080689 Ry
     ewald contribution        =    -272.70303820 Ry

     convergence has been achieved in  10 iterations

     Forces acting on atoms (cartesian axes, Ry/au):

     atom    1 type  2   force =     0.00000000    0.00000000   -0.02134842
     atom    2 type  3   force =     0.00000000    0.00000000    0.03367613
     atom    3 type  1   force =     0.00000000    0.00000000   -0.01315171
     atom    4 type  1   force =     0.00000000    0.00000000   -0.01315171
     atom    5 type  1   force =     0.00000000    0.00000000    0.01397571
     The non-local contrib.  to forces
     atom    1 type  2   force =     0.00000000    0.00000000    0.06931051
     atom    2 type  3   force =     0.00000000    0.00000000   -0.02252706
     atom    3 type  1   force =     0.00000000    0.00000000   -0.16949328
     atom    4 type  1   force =     0.00000000    0.00000000   -0.16949328
     atom    5 type  1   force =     0.00000000    0.00000000    0.24797290
     The ionic contribution  to forces
     atom    1 type  2   force =     0.00000000    0.00000000   -2.09056660
     atom    2 type  3   force =     0.00000000    0.00000000    1.62080505
     atom    3 type  1   force =     0.00000000   -0.00000000    1.47203670
     atom    4 type  1   force =    -0.00000000    0.00000000    1.47203670
     atom    5 type  1   force =     0.00000000    0.00000000   -2.47431184
     The local contribution  to forces
     atom    1 type  2   force =     0.00000000   -0.00000000    1.99990146
     atom    2 type  3   force =    -0.00000000   -0.00000000   -1.56459666
     atom    3 type  1   force =     0.00000000   -0.00000000   -1.31569887
     atom    4 type  1   force =    -0.00000000    0.00000000   -1.31569887
     atom    5 type  1   force =    -0.00000000   -0.00000000    2.24031132
     The core correction contribution to forces
     atom    1 type  2   force =     0.00000000    0.00000000    0.00000000
     atom    2 type  3   force =     0.00000000    0.00000000    0.00000000
     atom    3 type  1   force =     0.00000000    0.00000000    0.00000000
     atom    4 type  1   force =     0.00000000    0.00000000    0.00000000
     atom    5 type  1   force =     0.00000000    0.00000000    0.00000000
     The Hubbard contrib.    to forces
     atom    1 type  2   force =     0.00000000    0.00000000    0.00000000
     atom    2 type  3   force =     0.00000000    0.00000000    0.00000000
     atom    3 type  1   force =     0.00000000    0.00000000    0.00000000
     atom    4 type  1   force =     0.00000000    0.00000000    0.00000000
     atom    5 type  1   force =     0.00000000    0.00000000    0.00000000
     The SCF correction term to forces
     atom    1 type  2   force =     0.00000000    0.00000000   -0.00000000
     atom    2 type  3   force =    -0.00000000   -0.00000000   -0.00000000
     atom    3 type  1   force =     0.00000000    0.00000000   -0.00000323
     atom    4 type  1   force =    -0.00000000   -0.00000000   -0.00000323
     atom    5 type  1   force =     0.00000000    0.00000000   -0.00000363

     Total force =     0.023265     Total SCF correction =     0.000006


     Computing stress (Cartesian axis) and pressure

          total   stress  (Ry/bohr**3)                   (kbar)     P=      -16.19
  -0.00012409   0.00000000   0.00000000          -18.25        0.00        0.00
   0.00000000  -0.00012409   0.00000000            0.00      -18.25        0.00
   0.00000000   0.00000000  -0.00008196            0.00        0.00      -12.06

     Energy error            =      1.1E-03 Ry
     Gradient error          =      1.4E-02 Ry/Bohr

     number of scf cycles    =   6
     number of bfgs steps    =   5

     energy             old  =    -333.1769274404 Ry
     energy             new  =    -333.1780229130 Ry

     CASE: energy            _new < energy            _old

     new trust radius        =       0.0877560316 bohr
     new conv_thr            =       0.0000000110 Ry


ATOMIC_POSITIONS (angstrom)
Pb            0.0000000000        0.0000000000        0.0000000000    0   0   0
Ti            1.9400000000        1.9400000000        1.7153700000    0   0   0
O             0.0000000000        1.9400000000        1.8161579922
O             1.9400000000        0.0000000000        1.8161579922
O             1.9400000000        1.9400000000       -0.1541011377



     Writing config-only to output data dir /home/gridsan/epan1/labutil/lab3_samples/problem2/Lab3/PbTiO3_a_3.88_ecut_30_nk_4_displ_-0.05789473684210527/pwscf.save/
     NEW-OLD atomic charge density approx. for the potential

     total cpu time spent up to now is       26.8 secs

     Self-consistent Calculation

     iteration #  1     ecut=    30.00 Ry     beta= 0.70
     Davidson diagonalization with overlap
     ethr =  1.00E-06,  avg # of iterations =  9.3

     total cpu time spent up to now is       27.3 secs

     total energy              =    -333.17917963 Ry
     estimated scf accuracy    <       0.00143002 Ry

     iteration #  2     ecut=    30.00 Ry     beta= 0.70
     Davidson diagonalization with overlap
     ethr =  3.25E-06,  avg # of iterations =  3.3

     total cpu time spent up to now is       27.6 secs

     total energy              =    -333.17931826 Ry
     estimated scf accuracy    <       0.00034168 Ry

     iteration #  3     ecut=    30.00 Ry     beta= 0.70
     Davidson diagonalization with overlap
     ethr =  7.77E-07,  avg # of iterations =  4.5

     total cpu time spent up to now is       28.0 secs

     total energy              =    -333.17939094 Ry
     estimated scf accuracy    <       0.00026611 Ry

     iteration #  4     ecut=    30.00 Ry     beta= 0.70
     Davidson diagonalization with overlap
     ethr =  6.05E-07,  avg # of iterations =  4.2

     total cpu time spent up to now is       28.3 secs

     total energy              =    -333.17944229 Ry
     estimated scf accuracy    <       0.00000635 Ry

     iteration #  5     ecut=    30.00 Ry     beta= 0.70
     Davidson diagonalization with overlap
     ethr =  1.44E-08,  avg # of iterations =  6.3

     total cpu time spent up to now is       28.7 secs

     total energy              =    -333.17944536 Ry
     estimated scf accuracy    <       0.00001403 Ry

     iteration #  6     ecut=    30.00 Ry     beta= 0.70
     Davidson diagonalization with overlap
     ethr =  1.44E-08,  avg # of iterations =  4.3

     total cpu time spent up to now is       29.0 secs

     total energy              =    -333.17944647 Ry
     estimated scf accuracy    <       0.00000137 Ry

     iteration #  7     ecut=    30.00 Ry     beta= 0.70
     Davidson diagonalization with overlap
     ethr =  3.10E-09,  avg # of iterations =  4.5

     total cpu time spent up to now is       29.3 secs

     total energy              =    -333.17944692 Ry
     estimated scf accuracy    <       0.00000022 Ry

     iteration #  8     ecut=    30.00 Ry     beta= 0.70
     Davidson diagonalization with overlap
     ethr =  5.07E-10,  avg # of iterations =  2.0

     total cpu time spent up to now is       29.6 secs

     total energy              =    -333.17944689 Ry
     estimated scf accuracy    <       0.00000012 Ry

     iteration #  9     ecut=    30.00 Ry     beta= 0.70
     Davidson diagonalization with overlap
     ethr =  2.77E-10,  avg # of iterations =  4.8

     total cpu time spent up to now is       29.9 secs

     total energy              =    -333.17944693 Ry
     estimated scf accuracy    <       0.00000001 Ry

     iteration # 10     ecut=    30.00 Ry     beta= 0.70
     Davidson diagonalization with overlap
     ethr =  2.77E-11,  avg # of iterations =  2.7

     total cpu time spent up to now is       30.2 secs

     End of self-consistent calculation

          k = 0.1250 0.1250 0.1250 (  1096 PWs)   bands (ev):

   -44.7271 -21.3440 -21.3351 -21.3344  -6.3968  -5.3364  -5.3153  -4.0256
    -4.0201  -4.0078  -3.8435  -3.8207   4.5877   7.2430   7.2534   8.0403
     9.0189   9.0706   9.8160   9.8184   9.9248  10.0695

          k = 0.1250 0.1250 0.3750 (  1095 PWs)   bands (ev):

   -44.7259 -21.4005 -21.3329 -21.3320  -5.9944  -5.2226  -5.1451  -4.0774
    -4.0188  -4.0029  -3.9162  -3.8124   3.8766   6.7873   7.2651   7.7552
     8.3734   8.6614   9.3281   9.8707  10.0517  10.8323

          k = 0.1250 0.3750 0.3750 (  1093 PWs)   bands (ev):

   -44.7246 -21.3973 -21.3881 -21.3305  -5.7808  -5.0875  -5.0119  -4.0554
    -4.0132  -3.9574  -3.8647  -3.7014   3.5055   6.7095   6.8193   7.1208
     7.4334   8.6174   9.3425   9.4450  10.0235  10.6494

          k = 0.3750 0.3750 0.3750 (  1082 PWs)   bands (ev):

   -44.7233 -21.3946 -21.3856 -21.3853  -5.3795  -5.2153  -5.1976  -3.9698
    -3.9636  -3.6829  -3.6168  -3.5982   4.0699   5.8832   5.9030   6.6458
     7.0075   7.0171   8.0125  10.6054  10.6094  10.6863

          k = 0.3750-0.1250 0.1250 (  1095 PWs)   bands (ev):

   -44.7258 -21.3915 -21.3416 -21.3324  -5.9894  -5.2189  -5.1653  -4.0820
    -4.0156  -4.0049  -3.9132  -3.8006   3.8556   6.7830   7.3009   7.7893
     8.3839   8.7032   9.2940   9.8591  10.0245  10.8057

          k = 0.3750-0.3750 0.1250 (  1093 PWs)   bands (ev):

   -44.7246 -21.3886 -21.3878 -21.3396  -5.7654  -5.0985  -5.0349  -4.0517
    -4.0035  -3.9352  -3.8498  -3.7326   3.4674   6.7458   6.8057   7.1316
     7.4242   8.6324   9.4229   9.4505  10.0006  10.6522

     highest occupied level (ev):    10.8323

!    total energy              =    -333.17944692 Ry
     estimated scf accuracy    <          4.8E-09 Ry

     The total energy is the sum of the following terms:
     one-electron contribution =     -77.70307973 Ry
     hartree contribution      =      66.72177984 Ry
     xc contribution           =     -49.64256091 Ry
     ewald contribution        =    -272.55558612 Ry

     convergence has been achieved in  10 iterations

     Forces acting on atoms (cartesian axes, Ry/au):

     atom    1 type  2   force =     0.00000000    0.00000000   -0.01871099
     atom    2 type  3   force =     0.00000000    0.00000000    0.02784198
     atom    3 type  1   force =     0.00000000    0.00000000   -0.01081928
     atom    4 type  1   force =     0.00000000    0.00000000   -0.01081928
     atom    5 type  1   force =     0.00000000    0.00000000    0.01250758
     The non-local contrib.  to forces
     atom    1 type  2   force =     0.00000000    0.00000000    0.10247071
     atom    2 type  3   force =     0.00000000    0.00000000   -0.01909130
     atom    3 type  1   force =     0.00000000    0.00000000   -0.16145460
     atom    4 type  1   force =     0.00000000    0.00000000   -0.16145460
     atom    5 type  1   force =     0.00000000    0.00000000    0.19085098
     The ionic contribution  to forces
     atom    1 type  2   force =     0.00000000    0.00000000   -2.62859441
     atom    2 type  3   force =     0.00000000    0.00000000    1.65751620
     atom    3 type  1   force =     0.00000000   -0.00000000    1.50768665
     atom    4 type  1   force =    -0.00000000    0.00000000    1.50768665
     atom    5 type  1   force =    -0.00000000   -0.00000000   -2.04429510
     The local contribution  to forces
     atom    1 type  2   force =    -0.00000000   -0.00000000    2.50742822
     atom    2 type  3   force =    -0.00000000   -0.00000000   -1.61056967
     atom    3 type  1   force =     0.00000000   -0.00000000   -1.35704737
     atom    4 type  1   force =    -0.00000000    0.00000000   -1.35704737
     atom    5 type  1   force =    -0.00000000   -0.00000000    1.86597540
     The core correction contribution to forces
     atom    1 type  2   force =     0.00000000    0.00000000    0.00000000
     atom    2 type  3   force =     0.00000000    0.00000000    0.00000000
     atom    3 type  1   force =     0.00000000    0.00000000    0.00000000
     atom    4 type  1   force =     0.00000000    0.00000000    0.00000000
     atom    5 type  1   force =     0.00000000    0.00000000    0.00000000
     The Hubbard contrib.    to forces
     atom    1 type  2   force =     0.00000000    0.00000000    0.00000000
     atom    2 type  3   force =     0.00000000    0.00000000    0.00000000
     atom    3 type  1   force =     0.00000000    0.00000000    0.00000000
     atom    4 type  1   force =     0.00000000    0.00000000    0.00000000
     atom    5 type  1   force =     0.00000000    0.00000000    0.00000000
     The SCF correction term to forces
     atom    1 type  2   force =    -0.00000000    0.00000000   -0.00000000
     atom    2 type  3   force =    -0.00000000    0.00000000   -0.00000000
     atom    3 type  1   force =     0.00000000    0.00000000    0.00000404
     atom    4 type  1   force =    -0.00000000   -0.00000000    0.00000404
     atom    5 type  1   force =    -0.00000000   -0.00000000   -0.00001569

     Total force =     0.019762     Total SCF correction =     0.000017


     Computing stress (Cartesian axis) and pressure

          total   stress  (Ry/bohr**3)                   (kbar)     P=      -15.32
  -0.00010154   0.00000000   0.00000000          -14.94        0.00        0.00
   0.00000000  -0.00010154   0.00000000            0.00      -14.94        0.00
   0.00000000   0.00000000  -0.00010939            0.00        0.00      -16.09

     Energy error            =      1.4E-03 Ry
     Gradient error          =      1.3E-02 Ry/Bohr

     number of scf cycles    =   7
     number of bfgs steps    =   6

     energy             old  =    -333.1780229130 Ry
     energy             new  =    -333.1794469233 Ry

     CASE: energy            _new < energy            _old

     new trust radius        =       0.1316340474 bohr
     new conv_thr            =       0.0000000125 Ry


ATOMIC_POSITIONS (angstrom)
Pb            0.0000000000        0.0000000000        0.0000000000    0   0   0
Ti            1.9400000000        1.9400000000        1.7153700000    0   0   0
O             0.0000000000        1.9400000000        1.7465002541
O             1.9400000000        0.0000000000        1.7465002541
O             1.9400000000        1.9400000000       -0.1927662566



     Writing config-only to output data dir /home/gridsan/epan1/labutil/lab3_samples/problem2/Lab3/PbTiO3_a_3.88_ecut_30_nk_4_displ_-0.05789473684210527/pwscf.save/
     NEW-OLD atomic charge density approx. for the potential

     total cpu time spent up to now is       31.3 secs

     Self-consistent Calculation

     iteration #  1     ecut=    30.00 Ry     beta= 0.70
     Davidson diagonalization with overlap
     ethr =  1.00E-06,  avg # of iterations = 10.5

     total cpu time spent up to now is       31.9 secs

     total energy              =    -333.18053973 Ry
     estimated scf accuracy    <       0.00312353 Ry

     iteration #  2     ecut=    30.00 Ry     beta= 0.70
     Davidson diagonalization with overlap
     ethr =  7.10E-06,  avg # of iterations =  3.5

     total cpu time spent up to now is       32.2 secs

     total energy              =    -333.18084427 Ry
     estimated scf accuracy    <       0.00068648 Ry

     iteration #  3     ecut=    30.00 Ry     beta= 0.70
     Davidson diagonalization with overlap
     ethr =  1.56E-06,  avg # of iterations =  4.8

     total cpu time spent up to now is       32.5 secs

     total energy              =    -333.18098220 Ry
     estimated scf accuracy    <       0.00060321 Ry

     iteration #  4     ecut=    30.00 Ry     beta= 0.70
     Davidson diagonalization with overlap
     ethr =  1.37E-06,  avg # of iterations =  4.0

     total cpu time spent up to now is       32.8 secs

     total energy              =    -333.18109437 Ry
     estimated scf accuracy    <       0.00001641 Ry

     iteration #  5     ecut=    30.00 Ry     beta= 0.70
     Davidson diagonalization with overlap
     ethr =  3.73E-08,  avg # of iterations =  6.2

     total cpu time spent up to now is       33.2 secs

     total energy              =    -333.18110699 Ry
     estimated scf accuracy    <       0.00005110 Ry

     iteration #  6     ecut=    30.00 Ry     beta= 0.70
     Davidson diagonalization with overlap
     ethr =  3.73E-08,  avg # of iterations =  4.2

     total cpu time spent up to now is       33.5 secs

     total energy              =    -333.18110910 Ry
     estimated scf accuracy    <       0.00000637 Ry

     iteration #  7     ecut=    30.00 Ry     beta= 0.70
     Davidson diagonalization with overlap
     ethr =  1.45E-08,  avg # of iterations =  4.5

     total cpu time spent up to now is       33.8 secs

     total energy              =    -333.18111108 Ry
     estimated scf accuracy    <       0.00000069 Ry

     iteration #  8     ecut=    30.00 Ry     beta= 0.70
     Davidson diagonalization with overlap
     ethr =  1.57E-09,  avg # of iterations =  2.7

     total cpu time spent up to now is       34.1 secs

     total energy              =    -333.18111095 Ry
     estimated scf accuracy    <       0.00000046 Ry

     iteration #  9     ecut=    30.00 Ry     beta= 0.70
     Davidson diagonalization with overlap
     ethr =  1.04E-09,  avg # of iterations =  4.8

     total cpu time spent up to now is       34.4 secs

     total energy              =    -333.18111107 Ry
     estimated scf accuracy    <       0.00000003 Ry

     iteration # 10     ecut=    30.00 Ry     beta= 0.70
     Davidson diagonalization with overlap
     ethr =  5.75E-11,  avg # of iterations =  3.0

     total cpu time spent up to now is       34.7 secs

     total energy              =    -333.18111107 Ry
     estimated scf accuracy    <       0.00000002 Ry

     iteration # 11     ecut=    30.00 Ry     beta= 0.70
     Davidson diagonalization with overlap
     ethr =  3.81E-11,  avg # of iterations =  4.8

     total cpu time spent up to now is       35.1 secs

     End of self-consistent calculation

          k = 0.1250 0.1250 0.1250 (  1096 PWs)   bands (ev):

   -44.7650 -21.3770 -21.3761 -21.3620  -6.4297  -5.4064  -5.3048  -3.9984
    -3.9956  -3.9792  -3.8221  -3.7775   4.6024   7.2253   7.2465   8.0470
     9.0549   9.0553   9.8038   9.8777   9.9085  10.0330

          k = 0.1250 0.1250 0.3750 (  1095 PWs)   bands (ev):

   -44.7638 -21.4182 -21.3747 -21.3738  -6.0582  -5.3027  -5.1094  -4.0452
    -3.9880  -3.9763  -3.8708  -3.7873   3.9158   6.8040   7.2953   7.7223
     8.3348   8.6962   9.2723   9.8788   9.9778  10.8129

          k = 0.1250 0.3750 0.3750 (  1093 PWs)   bands (ev):

   -44.7626 -21.4304 -21.4149 -21.3723  -5.8398  -5.1425  -4.9923  -4.0258
    -3.9845  -3.9264  -3.8308  -3.6657   3.5282   6.7084   6.7815   7.0831
     7.4182   8.5656   9.3081   9.4383  10.0440  10.6586

          k = 0.3750 0.3750 0.3750 (  1082 PWs)   bands (ev):

   -44.7613 -21.4278 -21.4275 -21.4122  -5.4154  -5.2710  -5.1763  -3.9397
    -3.9369  -3.6581  -3.5831  -3.5665   4.0347   5.8502   5.9191   6.6331
     6.9288   6.9734   8.0770  10.5474  10.6221  10.6925

          k = 0.3750-0.1250 0.1250 (  1095 PWs)   bands (ev):

   -44.7638 -21.4336 -21.3742 -21.3597  -6.0121  -5.2577  -5.2047  -4.0556
    -3.9887  -3.9744  -3.8660  -3.7644   3.8610   6.7314   7.2641   7.7816
     8.3692   8.6638   9.3092   9.8466  10.0421  10.8279

          k = 0.3750-0.3750 0.1250 (  1093 PWs)   bands (ev):

   -44.7626 -21.4307 -21.4299 -21.3578  -5.7377  -5.1608  -5.1117  -4.0261
    -3.9688  -3.8885  -3.7997  -3.6989   3.4316   6.7052   6.7539   7.1202
     7.4222   8.6362   9.3957   9.4402  10.0411  10.5892

     highest occupied level (ev):    10.8279

!    total energy              =    -333.18111108 Ry
     estimated scf accuracy    <          1.6E-10 Ry

     The total energy is the sum of the following terms:
     one-electron contribution =     -78.22498174 Ry
     hartree contribution      =      66.97271446 Ry
     xc contribution           =     -49.64866964 Ry
     ewald contribution        =    -272.28017417 Ry

     convergence has been achieved in  11 iterations

     Forces acting on atoms (cartesian axes, Ry/au):

     atom    1 type  2   force =     0.00000000    0.00000000   -0.01620214
     atom    2 type  3   force =     0.00000000    0.00000000    0.02458629
     atom    3 type  1   force =     0.00000000    0.00000000   -0.00691171
     atom    4 type  1   force =     0.00000000    0.00000000   -0.00691171
     atom    5 type  1   force =     0.00000000    0.00000000    0.00543926
     The non-local contrib.  to forces
     atom    1 type  2   force =     0.00000000    0.00000000    0.15111282
     atom    2 type  3   force =     0.00000000    0.00000000   -0.01577606
     atom    3 type  1   force =     0.00000000    0.00000000   -0.15106911
[...]
     Davidson diagonalization with overlap
     ethr =  6.31E-10,  avg # of iterations =  5.8

     total cpu time spent up to now is       61.1 secs

     total energy              =    -333.18400863 Ry
     estimated scf accuracy    <       0.00000076 Ry

     iteration #  6     ecut=    30.00 Ry     beta= 0.70
     Davidson diagonalization with overlap
     ethr =  6.31E-10,  avg # of iterations =  3.7

     total cpu time spent up to now is       61.4 secs

     total energy              =    -333.18400864 Ry
     estimated scf accuracy    <       0.00000016 Ry

     iteration #  7     ecut=    30.00 Ry     beta= 0.70
     Davidson diagonalization with overlap
     ethr =  3.63E-10,  avg # of iterations =  4.7

     total cpu time spent up to now is       61.8 secs

     total energy              =    -333.18400868 Ry
     estimated scf accuracy    <          4.4E-09 Ry

     iteration #  8     ecut=    30.00 Ry     beta= 0.70
     Davidson diagonalization with overlap
     ethr =  9.92E-12,  avg # of iterations =  5.0

     total cpu time spent up to now is       62.1 secs

     total energy              =    -333.18400868 Ry
     estimated scf accuracy    <       0.00000001 Ry

     iteration #  9     ecut=    30.00 Ry     beta= 0.70
     Davidson diagonalization with overlap
     ethr =  9.92E-12,  avg # of iterations =  5.0

     total cpu time spent up to now is       62.5 secs

     End of self-consistent calculation

          k = 0.1250 0.1250 0.1250 (  1096 PWs)   bands (ev):

   -44.7652 -21.3927 -21.3800 -21.3796  -6.5821  -5.6076  -5.2934  -3.8986
    -3.8943  -3.8553  -3.7383  -3.5649   4.6355   7.0643   7.2012   8.0432
     8.9420   8.9624   9.5555   9.6251   9.7921  10.2065

          k = 0.1250 0.1250 0.3750 (  1095 PWs)   bands (ev):

   -44.7639 -21.4486 -21.3781 -21.3772  -6.2639  -5.5286  -5.0565  -3.9319
    -3.8755  -3.8539  -3.6983  -3.6453   3.9733   6.7996   7.0274   7.5490
     8.4384   8.5613   9.1939   9.7112   9.8233  10.8888

          k = 0.1250 0.3750 0.3750 (  1093 PWs)   bands (ev):

   -44.7627 -21.4454 -21.4332 -21.3757  -6.0229  -5.3900  -4.9782  -3.9166
    -3.8643  -3.8096  -3.6838  -3.4795   3.6011   6.4645   6.7900   6.9999
     7.3425   8.4784   9.1505   9.3651  10.1800  10.5772

          k = 0.3750 0.3750 0.3750 (  1082 PWs)   bands (ev):

   -44.7614 -21.4427 -21.4305 -21.4304  -5.6097  -5.4809  -5.1380  -3.8252
    -3.8186  -3.5825  -3.4482  -3.4013   3.8592   5.7874   5.9198   6.4994
     6.9771   7.0309   8.3856  10.3407  10.5254  10.6129

          k = 0.3750-0.1250 0.1250 (  1095 PWs)   bands (ev):

   -44.7639 -21.4368 -21.3899 -21.3775  -6.1571  -5.4726  -5.2767  -3.9412
    -3.8837  -3.8514  -3.6898  -3.5782   3.8684   6.6441   7.1793   7.7124
     8.2337   8.6611   9.2172   9.7131   9.8451  10.9163

          k = 0.3750-0.3750 0.1250 (  1093 PWs)   bands (ev):

   -44.7627 -21.4340 -21.4330 -21.3876  -5.7733  -5.3821  -5.3533  -3.9092
    -3.8404  -3.7086  -3.5820  -3.5765   3.2860   6.5897   6.6973   7.1205
     7.4977   8.6706   9.3722   9.3843  10.1593  10.3880

     highest occupied level (ev):    10.9163

!    total energy              =    -333.18400868 Ry
     estimated scf accuracy    <          7.9E-12 Ry

     The total energy is the sum of the following terms:
     one-electron contribution =     -80.39143869 Ry
     hartree contribution      =      68.05997147 Ry
     xc contribution           =     -49.69671258 Ry
     ewald contribution        =    -271.15582888 Ry

     convergence has been achieved in   9 iterations

     Forces acting on atoms (cartesian axes, Ry/au):

     atom    1 type  2   force =     0.00000000    0.00000000   -0.02039853
     atom    2 type  3   force =     0.00000000    0.00000000    0.02046519
     atom    3 type  1   force =     0.00000000    0.00000000    0.00061574
     atom    4 type  1   force =     0.00000000    0.00000000    0.00061574
     atom    5 type  1   force =     0.00000000    0.00000000   -0.00129814
     The non-local contrib.  to forces
     atom    1 type  2   force =     0.00000000    0.00000000    0.28307004
     atom    2 type  3   force =     0.00000000    0.00000000    0.00147754
     atom    3 type  1   force =     0.00000000    0.00000000   -0.12995264
     atom    4 type  1   force =     0.00000000    0.00000000   -0.12995264
     atom    5 type  1   force =     0.00000000    0.00000000   -0.18104462
     The ionic contribution  to forces
     atom    1 type  2   force =     0.00000000    0.00000000   -5.44089031
     atom    2 type  3   force =     0.00000000    0.00000000    1.09235995
     atom    3 type  1   force =     0.00000000   -0.00000000    1.47541454
     atom    4 type  1   force =    -0.00000000    0.00000000    1.47541454
     atom    5 type  1   force =    -0.00000000   -0.00000000    1.39770130
     The local contribution  to forces
     atom    1 type  2   force =    -0.00000000   -0.00000000    5.13742948
     atom    2 type  3   force =    -0.00000000   -0.00000000   -1.07338149
     atom    3 type  1   force =     0.00000000   -0.00000000   -1.34485112
     atom    4 type  1   force =    -0.00000000    0.00000000   -1.34485112
     atom    5 type  1   force =    -0.00000000   -0.00000000   -1.21795356
     The core correction contribution to forces
     atom    1 type  2   force =     0.00000000    0.00000000    0.00000000
     atom    2 type  3   force =     0.00000000    0.00000000    0.00000000
     atom    3 type  1   force =     0.00000000    0.00000000    0.00000000
     atom    4 type  1   force =     0.00000000    0.00000000    0.00000000
     atom    5 type  1   force =     0.00000000    0.00000000    0.00000000
     The Hubbard contrib.    to forces
     atom    1 type  2   force =     0.00000000    0.00000000    0.00000000
     atom    2 type  3   force =     0.00000000    0.00000000    0.00000000
     atom    3 type  1   force =     0.00000000    0.00000000    0.00000000
     atom    4 type  1   force =     0.00000000    0.00000000    0.00000000
     atom    5 type  1   force =     0.00000000    0.00000000    0.00000000
     The SCF correction term to forces
     atom    1 type  2   force =    -0.00000000   -0.00000000   -0.00000000
     atom    2 type  3   force =    -0.00000000    0.00000000    0.00000000
     atom    3 type  1   force =     0.00000000   -0.00000000    0.00000268
     atom    4 type  1   force =     0.00000000   -0.00000000    0.00000268
     atom    5 type  1   force =    -0.00000000    0.00000000   -0.00000354

     Total force =     0.001563     Total SCF correction =     0.000005


     Computing stress (Cartesian axis) and pressure

          total   stress  (Ry/bohr**3)                   (kbar)     P=       11.94
   0.00003694   0.00000000   0.00000000            5.43        0.00        0.00
   0.00000000   0.00003694   0.00000000            0.00        5.43        0.00
   0.00000000   0.00000000   0.00016960            0.00        0.00       24.95

     Energy error            =      9.9E-05 Ry
     Gradient error          =      1.3E-03 Ry/Bohr

     number of scf cycles    =  14
     number of bfgs steps    =  12

     energy             old  =    -333.1839098566 Ry
     energy             new  =    -333.1840086774 Ry

     CASE: energy            _new < energy            _old

     new trust radius        =       0.0043188515 bohr
     new conv_thr            =       0.0000000010 Ry


ATOMIC_POSITIONS (angstrom)
Pb            0.0000000000        0.0000000000        0.0000000000    0   0   0
Ti            1.9400000000        1.9400000000        1.7153700000    0   0   0
O             0.0000000000        1.9400000000        1.5511510750
O             1.9400000000        0.0000000000        1.5511510750
O             1.9400000000        1.9400000000       -0.3448864111



     Writing config-only to output data dir /home/gridsan/epan1/labutil/lab3_samples/problem2/Lab3/PbTiO3_a_3.88_ecut_30_nk_4_displ_-0.05789473684210527/pwscf.save/
     NEW-OLD atomic charge density approx. for the potential

     total cpu time spent up to now is       63.6 secs

     Self-consistent Calculation

     iteration #  1     ecut=    30.00 Ry     beta= 0.70
     Davidson diagonalization with overlap
     ethr =  1.00E-06,  avg # of iterations =  2.3

     Threshold (ethr) on eigenvalues was too large:
     Diagonalizing with lowered threshold

     Davidson diagonalization with overlap
     ethr =  4.91E-09,  avg # of iterations =  5.7

     total cpu time spent up to now is       64.2 secs

     total energy              =    -333.18401163 Ry
     estimated scf accuracy    <       0.00000441 Ry

     iteration #  2     ecut=    30.00 Ry     beta= 0.70
     Davidson diagonalization with overlap
     ethr =  1.00E-08,  avg # of iterations =  4.3

     total cpu time spent up to now is       64.5 secs

     total energy              =    -333.18401221 Ry
     estimated scf accuracy    <       0.00000261 Ry

     iteration #  3     ecut=    30.00 Ry     beta= 0.70
     Davidson diagonalization with overlap
     ethr =  5.92E-09,  avg # of iterations =  4.5

     total cpu time spent up to now is       64.9 secs

     total energy              =    -333.18401284 Ry
     estimated scf accuracy    <       0.00000104 Ry

     iteration #  4     ecut=    30.00 Ry     beta= 0.70
     Davidson diagonalization with overlap
     ethr =  2.37E-09,  avg # of iterations =  3.3

     total cpu time spent up to now is       65.3 secs

     total energy              =    -333.18401299 Ry
     estimated scf accuracy    <       0.00000004 Ry

     iteration #  5     ecut=    30.00 Ry     beta= 0.70
     Davidson diagonalization with overlap
     ethr =  8.82E-11,  avg # of iterations =  5.7

     total cpu time spent up to now is       65.7 secs

     total energy              =    -333.18401303 Ry
     estimated scf accuracy    <       0.00000009 Ry

     iteration #  6     ecut=    30.00 Ry     beta= 0.70
     Davidson diagonalization with overlap
     ethr =  8.82E-11,  avg # of iterations =  3.3

     total cpu time spent up to now is       66.0 secs

     total energy              =    -333.18401302 Ry
     estimated scf accuracy    <       0.00000003 Ry

     iteration #  7     ecut=    30.00 Ry     beta= 0.70
     Davidson diagonalization with overlap
     ethr =  6.92E-11,  avg # of iterations =  4.2

     total cpu time spent up to now is       66.3 secs

     total energy              =    -333.18401303 Ry
     estimated scf accuracy    <          1.6E-09 Ry

     iteration #  8     ecut=    30.00 Ry     beta= 0.70
     Davidson diagonalization with overlap
     ethr =  3.53E-12,  avg # of iterations =  6.3

     total cpu time spent up to now is       66.7 secs

     total energy              =    -333.18401303 Ry
     estimated scf accuracy    <          3.8E-09 Ry

     iteration #  9     ecut=    30.00 Ry     beta= 0.70
     Davidson diagonalization with overlap
     ethr =  3.53E-12,  avg # of iterations =  4.2

     total cpu time spent up to now is       67.0 secs

     End of self-consistent calculation

          k = 0.1250 0.1250 0.1250 (  1096 PWs)   bands (ev):

   -44.7629 -21.3914 -21.3778 -21.3773  -6.5793  -5.6048  -5.2942  -3.9006
    -3.8963  -3.8577  -3.7403  -3.5685   4.6344   7.0681   7.2018   8.0458
     8.9432   8.9620   9.5555   9.6271   9.7934  10.2044

          k = 0.1250 0.1250 0.3750 (  1095 PWs)   bands (ev):

   -44.7616 -21.4473 -21.3758 -21.3749  -6.2605  -5.5255  -5.0577  -3.9339
    -3.8775  -3.8563  -3.7004  -3.6491   3.9711   6.8006   7.0329   7.5525
     8.4345   8.5632   9.1924   9.7136   9.8257  10.8870

          k = 0.1250 0.3750 0.3750 (  1093 PWs)   bands (ev):

   -44.7604 -21.4441 -21.4310 -21.3734  -6.0201  -5.3861  -4.9789  -3.9186
    -3.8666  -3.8119  -3.6864  -3.4825   3.5998   6.4661   6.7906   7.0003
     7.3447   8.4792   9.1525   9.3639  10.1771  10.5777

          k = 0.3750 0.3750 0.3750 (  1082 PWs)   bands (ev):

   -44.7591 -21.4414 -21.4283 -21.4282  -5.6064  -5.4776  -5.1386  -3.8275
    -3.8208  -3.5847  -3.4507  -3.4040   3.8617   5.7873   5.9196   6.5017
     6.9752   7.0289   8.3808  10.3436  10.5255  10.6132

          k = 0.3750-0.1250 0.1250 (  1095 PWs)   bands (ev):

   -44.7616 -21.4346 -21.3887 -21.3752  -6.1544  -5.4692  -5.2767  -3.9433
    -3.8856  -3.8539  -3.6924  -3.5815   3.8684   6.6449   7.1796   7.7146
     8.2347   8.6601   9.2160   9.7147   9.8464  10.9149

          k = 0.3750-0.3750 0.1250 (  1093 PWs)   bands (ev):

   -44.7604 -21.4317 -21.4308 -21.3864  -5.7719  -5.3782  -5.3513  -3.9113
    -3.8427  -3.7115  -3.5847  -3.5800   3.2881   6.5912   6.6984   7.1194
     7.4955   8.6696   9.3712   9.3826  10.1572  10.3908

     highest occupied level (ev):    10.9149

!    total energy              =    -333.18401303 Ry
     estimated scf accuracy    <          2.4E-10 Ry

     The total energy is the sum of the following terms:
     one-electron contribution =     -80.37107036 Ry
     hartree contribution      =      68.05012436 Ry
     xc contribution           =     -49.69664635 Ry
     ewald contribution        =    -271.16642068 Ry

     convergence has been achieved in   9 iterations

     Forces acting on atoms (cartesian axes, Ry/au):

     atom    1 type  2   force =     0.00000000    0.00000000   -0.02025451
     atom    2 type  3   force =     0.00000000    0.00000000    0.02027244
     atom    3 type  1   force =     0.00000000    0.00000000   -0.00000473
     atom    4 type  1   force =     0.00000000    0.00000000   -0.00000473
     atom    5 type  1   force =     0.00000000    0.00000000   -0.00000848
     The non-local contrib.  to forces
     atom    1 type  2   force =     0.00000000    0.00000000    0.28167146
     atom    2 type  3   force =     0.00000000    0.00000000    0.00134896
     atom    3 type  1   force =     0.00000000    0.00000000   -0.13217207
     atom    4 type  1   force =     0.00000000    0.00000000   -0.13217207
     atom    5 type  1   force =     0.00000000    0.00000000   -0.18045464
     The ionic contribution  to forces
     atom    1 type  2   force =     0.00000000    0.00000000   -5.41137242
     atom    2 type  3   force =     0.00000000    0.00000000    1.04060524
     atom    3 type  1   force =     0.00000000   -0.00000000    1.46908358
     atom    4 type  1   force =    -0.00000000    0.00000000    1.46908358
     atom    5 type  1   force =     0.00000000    0.00000000    1.43260002
     The local contribution  to forces
     atom    1 type  2   force =    -0.00000000   -0.00000000    5.10944628
     atom    2 type  3   force =    -0.00000000   -0.00000000   -1.02168678
     atom    3 type  1   force =     0.00000000   -0.00000000   -1.33691732
     atom    4 type  1   force =    -0.00000000    0.00000000   -1.33691732
     atom    5 type  1   force =    -0.00000000   -0.00000000   -1.25216196
     The core correction contribution to forces
     atom    1 type  2   force =     0.00000000    0.00000000    0.00000000
     atom    2 type  3   force =     0.00000000    0.00000000    0.00000000
     atom    3 type  1   force =     0.00000000    0.00000000    0.00000000
     atom    4 type  1   force =     0.00000000    0.00000000    0.00000000
     atom    5 type  1   force =     0.00000000    0.00000000    0.00000000
     The Hubbard contrib.    to forces
     atom    1 type  2   force =     0.00000000    0.00000000    0.00000000
     atom    2 type  3   force =     0.00000000    0.00000000    0.00000000
     atom    3 type  1   force =     0.00000000    0.00000000    0.00000000
     atom    4 type  1   force =     0.00000000    0.00000000    0.00000000
     atom    5 type  1   force =     0.00000000    0.00000000    0.00000000
     The SCF correction term to forces
     atom    1 type  2   force =    -0.00000000    0.00000000   -0.00000000
     atom    2 type  3   force =    -0.00000000   -0.00000000    0.00000000
     atom    3 type  1   force =     0.00000000   -0.00000000   -0.00000198
     atom    4 type  1   force =    -0.00000000   -0.00000000   -0.00000198
     atom    5 type  1   force =     0.00000000    0.00000000    0.00000504

     Total force =     0.000011     Total SCF correction =     0.000006
     SCF correction compared to forces is large: reduce conv_thr to get better values


     Computing stress (Cartesian axis) and pressure

          total   stress  (Ry/bohr**3)                   (kbar)     P=       12.02
   0.00003705   0.00000000   0.00000000            5.45        0.00        0.00
   0.00000000   0.00003705   0.00000000            0.00        5.45        0.00
   0.00000000   0.00000000   0.00017113            0.00        0.00       25.17

     Energy error            =      4.4E-06 Ry
     Gradient error          =      8.5E-06 Ry/Bohr

     bfgs converged in  15 scf cycles and  13 bfgs steps
     (criteria: energy <  1.0E-04 Ry, force <  1.0E-03 Ry/Bohr)

     End of BFGS Geometry Optimization

     Final energy             =    -333.1840130278 Ry

     File /home/gridsan/epan1/labutil/lab3_samples/problem2/Lab3/PbTiO3_a_3.88_ecut_30_nk_4_displ_-0.05789473684210527/pwscf.bfgs deleted, as requested
Begin final coordinates

ATOMIC_POSITIONS (angstrom)
Pb            0.0000000000        0.0000000000        0.0000000000    0   0   0
Ti            1.9400000000        1.9400000000        1.7153700000    0   0   0
O             0.0000000000        1.9400000000        1.5511510750
O             1.9400000000        0.0000000000        1.5511510750
O             1.9400000000        1.9400000000       -0.3448864111
End final coordinates



     init_run     :      0.72s CPU      0.70s WALL (       1 calls)
     electrons    :     60.22s CPU     49.79s WALL (      15 calls)
     update_pot   :      0.51s CPU      0.47s WALL (      14 calls)
     forces       :      2.10s CPU      1.69s WALL (      15 calls)
     stress       :     15.92s CPU     13.39s WALL (      15 calls)

     Called by init_run:
     wfcinit      :      0.11s CPU      0.08s WALL (       1 calls)
     potinit      :      0.04s CPU      0.04s WALL (       1 calls)
     hinit0       :      0.46s CPU      0.46s WALL (       1 calls)

     Called by electrons:
     c_bands      :     35.18s CPU     27.68s WALL (     146 calls)
     sum_band     :     15.22s CPU     13.22s WALL (     146 calls)
     v_of_rho     :      0.59s CPU      0.52s WALL (     160 calls)
     newd         :      9.30s CPU      8.25s WALL (     160 calls)
     mix_rho      :      0.39s CPU      0.35s WALL (     146 calls)

     Called by c_bands:
     init_us_2    :      1.04s CPU      0.82s WALL (    1938 calls)
     init_us_2:cp :      1.04s CPU      0.81s WALL (    1938 calls)
     cegterg      :     32.61s CPU     25.28s WALL (     876 calls)

     Called by *egterg:
     cdiaghg      :      5.71s CPU      4.33s WALL (    4755 calls)
     h_psi        :     21.63s CPU     17.03s WALL (    4851 calls)
     s_psi        :      0.95s CPU      0.72s WALL (    4851 calls)
     g_psi        :      0.23s CPU      0.17s WALL (    3969 calls)

     Called by h_psi:
     h_psi:calbec :      1.33s CPU      1.05s WALL (    4851 calls)
     vloc_psi     :     19.19s CPU     15.12s WALL (    4851 calls)
     add_vuspsi   :      0.98s CPU      0.75s WALL (    4851 calls)

     General routines
     calbec       :      1.81s CPU      1.41s WALL (    6177 calls)
     fft          :      0.94s CPU      0.80s WALL (    1020 calls)
     ffts         :      0.09s CPU      0.09s WALL (     306 calls)
     fftw         :     18.19s CPU     14.31s WALL (  142896 calls)
     interpolate  :      0.20s CPU      0.17s WALL (     160 calls)

     Parallel routines

     PWSCF        :   1m20.89s CPU   1m 8.07s WALL


   This run was terminated on:  18: 0:39   2Nov2023            

=------------------------------------------------------------------------------=
   JOB DONE.
=------------------------------------------------------------------------------=
