
     Program PWSCF v.7.2 starts on  2Nov2023 at 18:11:27 

     This program is part of the open-source Quantum ESPRESSO suite
     for quantum simulation of materials; please cite
         "P. Giannozzi et al., J. Phys.:Condens. Matter 21 395502 (2009);
         "P. Giannozzi et al., J. Phys.:Condens. Matter 29 465901 (2017);
         "P. Giannozzi et al., J. Chem. Phys. 152 154105 (2020);
          URL http://www.quantum-espresso.org", 
     in publications or presentations arising from this work. More details at
     http://www.quantum-espresso.org/quote

     Parallel version (MPI), running on     2 processors

     MPI processes distributed on     2 nodes
     187038 MiB available memory on the printing compute node when the environment starts

     Waiting for input...
     Reading input from standard input
Warning: card &CELL ignored
Warning: card / ignored

     Current dimensions of program PWSCF are:
     Max number of different atomic species (ntypx) = 10
     Max number of k-points (npk) =  40000
     Max angular momentum in pseudopotentials (lmaxx) =  4
     file O.pz-rrkjus.UPF: wavefunction(s)  2S renormalized
     Message from routine setup:
     using ibrav=0 with symmetry is DISCOURAGED, use correct ibrav instead

     R & G space division:  proc/nbgrp/npool/nimage =       2
     Subspace diagonalization in iterative solution of the eigenvalue problem:
     a serial algorithm will be used


     Parallelization info
     --------------------
     sticks:   dense  smooth     PW     G-vecs:    dense   smooth      PW
     Min         516     254     74                12418     4366     709
     Max         517     255     75                12419     4367     710
     Sum        1033     509    149                24837     8733    1419

     Using Slab Decomposition



     bravais-lattice index     =            0
     lattice parameter (alat)  =       7.3321  a.u.
     unit-cell volume          =     394.1775 (a.u.)^3
     number of atoms/cell      =            5
     number of atomic types    =            3
     number of electrons       =        44.00
     number of Kohn-Sham states=           22
     kinetic-energy cutoff     =      30.0000  Ry
     charge density cutoff     =     240.0000  Ry
     scf convergence threshold =      1.0E-07
     mixing beta               =       0.7000
     number of iterations used =            8  plain     mixing
     energy convergence thresh.=      1.0E-04
     force convergence thresh. =      1.0E-03
     Exchange-correlation= SLA  PZ   NOGX NOGC
                           (   1   1   0   0   0   0   0)
     nstep                     =           50


     celldm(1)=   7.332137  celldm(2)=   0.000000  celldm(3)=   0.000000
     celldm(4)=   0.000000  celldm(5)=   0.000000  celldm(6)=   0.000000

     crystal axes: (cart. coord. in units of alat)
               a(1) = (   1.000000   0.000000   0.000000 )  
               a(2) = (   0.000000   1.000000   0.000000 )  
               a(3) = (   0.000000   0.000000   1.000000 )  

     reciprocal axes: (cart. coord. in units 2 pi/alat)
               b(1) = (  1.000000  0.000000  0.000000 )  
               b(2) = (  0.000000  1.000000  0.000000 )  
               b(3) = (  0.000000  0.000000  1.000000 )  


     PseudoPot. # 1 for O  read from file:
     /home/gridsan/epan1/labutil/lab3_samples/pseudopotentials/O.pz-rrkjus.UPF
     MD5 check sum: 24fb942a68ef5d262e498166c462ef4a
     Pseudo is Ultrasoft, Zval =  6.0
     Generated by new atomic code, or converted to UPF format
     Using radial grid of 1269 points,  4 beta functions with: 
                l(1) =   0
                l(2) =   0
                l(3) =   1
                l(4) =   1
     Q(r) pseudized with 0 coefficients 


     PseudoPot. # 2 for Pb read from file:
     /home/gridsan/epan1/labutil/lab3_samples/pseudopotentials/Pb.pz-d-van.UPF
     MD5 check sum: 4e1e5920686a026ae26139ac417581ff
     Pseudo is Ultrasoft, Zval = 14.0
     Generated by new atomic code, or converted to UPF format
     Using radial grid of  899 points,  6 beta functions with: 
                l(1) =   0
                l(2) =   0
                l(3) =   1
                l(4) =   1
                l(5) =   2
                l(6) =   2
     Q(r) pseudized with  8 coefficients,  rinner =    1.000   1.000   1.000
                                                       1.000   1.000

     PseudoPot. # 3 for Ti read from file:
     /home/gridsan/epan1/labutil/lab3_samples/pseudopotentials/Ti.pz-sp-van_ak.UPF
     MD5 check sum: 545d0e6e05332b8871a8093f427cb0ca
     Pseudo is Ultrasoft, Zval = 12.0
     Generated by new atomic code, or converted to UPF format
     Using radial grid of  851 points,  6 beta functions with: 
                l(1) =   0
                l(2) =   0
                l(3) =   1
                l(4) =   1
                l(5) =   2
                l(6) =   2
     Q(r) pseudized with  8 coefficients,  rinner =    1.000   1.000   1.000
                                                       1.000   1.000

     atomic species   valence    mass     pseudopotential
        O              6.00    15.99900     O ( 1.00)
        Pb            14.00   207.20000     Pb( 1.00)
        Ti            12.00    47.86700     Ti( 1.00)

      8 Sym. Ops. (no inversion) found



   Cartesian axes

     site n.     atom                  positions (alat units)
         1           Pb  tau(   1) = (   0.0000000   0.0000000   0.0000000  )
         2           Ti  tau(   2) = (   0.5000000   0.5000000   0.5684201  )
         3           O   tau(   3) = (   0.0000000   0.5000000   0.5000000  )
         4           O   tau(   4) = (   0.5000000   0.0000000   0.5000000  )
         5           O   tau(   5) = (   0.5000000   0.5000000   0.0000000  )

     number of k points=     6
                       cart. coord. in units 2pi/alat
        k(    1) = (   0.1250000   0.1250000   0.1250000), wk =   0.2500000
        k(    2) = (   0.1250000   0.1250000   0.3750000), wk =   0.2500000
        k(    3) = (   0.1250000   0.3750000   0.3750000), wk =   0.5000000
        k(    4) = (   0.3750000   0.3750000   0.3750000), wk =   0.2500000
        k(    5) = (   0.3750000  -0.1250000   0.1250000), wk =   0.5000000
        k(    6) = (   0.3750000  -0.3750000   0.1250000), wk =   0.2500000

     Dense  grid:    24837 G-vectors     FFT dimensions: (  40,  40,  40)

     Smooth grid:     8733 G-vectors     FFT dimensions: (  25,  25,  25)

     Estimated max dynamical RAM per process >      51.66 MB

     Estimated total dynamical RAM >     103.32 MB

     Initial potential from superposition of free atoms

     starting charge      42.9982, renormalised to      44.0000
     Starting wfcs are   31 randomized atomic wfcs

     total cpu time spent up to now is        1.9 secs

     Self-consistent Calculation

     iteration #  1     ecut=    30.00 Ry     beta= 0.70
     Davidson diagonalization with overlap
     ethr =  1.00E-02,  avg # of iterations =  2.0

     total cpu time spent up to now is        2.1 secs

     total energy              =    -332.62773428 Ry
     estimated scf accuracy    <       1.06713441 Ry

     iteration #  2     ecut=    30.00 Ry     beta= 0.70
     Davidson diagonalization with overlap
     ethr =  2.43E-03,  avg # of iterations =  6.0

     total cpu time spent up to now is        2.5 secs

     total energy              =    -332.45955881 Ry
     estimated scf accuracy    <       3.35298145 Ry

     iteration #  3     ecut=    30.00 Ry     beta= 0.70
     Davidson diagonalization with overlap
     ethr =  2.43E-03,  avg # of iterations =  5.3

     total cpu time spent up to now is        2.9 secs

     total energy              =    -333.13584218 Ry
     estimated scf accuracy    <       0.21723854 Ry

     iteration #  4     ecut=    30.00 Ry     beta= 0.70
     Davidson diagonalization with overlap
     ethr =  4.94E-04,  avg # of iterations =  2.7

     total cpu time spent up to now is        3.2 secs

     total energy              =    -333.13310229 Ry
     estimated scf accuracy    <       0.05440906 Ry

     iteration #  5     ecut=    30.00 Ry     beta= 0.70
     Davidson diagonalization with overlap
     ethr =  1.24E-04,  avg # of iterations =  4.8

     total cpu time spent up to now is        3.5 secs

     total energy              =    -333.15865492 Ry
     estimated scf accuracy    <       0.02914847 Ry

     iteration #  6     ecut=    30.00 Ry     beta= 0.70
     Davidson diagonalization with overlap
     ethr =  6.62E-05,  avg # of iterations =  2.0

     total cpu time spent up to now is        3.8 secs

     total energy              =    -333.15806257 Ry
     estimated scf accuracy    <       0.00941134 Ry

     iteration #  7     ecut=    30.00 Ry     beta= 0.70
     Davidson diagonalization with overlap
     ethr =  2.14E-05,  avg # of iterations =  4.2

     total cpu time spent up to now is        4.1 secs

     total energy              =    -333.16071352 Ry
     estimated scf accuracy    <       0.00015492 Ry

     iteration #  8     ecut=    30.00 Ry     beta= 0.70
     Davidson diagonalization with overlap
     ethr =  3.52E-07,  avg # of iterations =  3.7

     total cpu time spent up to now is        4.4 secs

     total energy              =    -333.16074582 Ry
     estimated scf accuracy    <       0.00007999 Ry

     iteration #  9     ecut=    30.00 Ry     beta= 0.70
     Davidson diagonalization with overlap
     ethr =  1.82E-07,  avg # of iterations =  1.8

     total cpu time spent up to now is        4.7 secs

     total energy              =    -333.16073140 Ry
     estimated scf accuracy    <       0.00004845 Ry

     iteration # 10     ecut=    30.00 Ry     beta= 0.70
     Davidson diagonalization with overlap
     ethr =  1.10E-07,  avg # of iterations =  4.3

     total cpu time spent up to now is        5.0 secs

     total energy              =    -333.16074472 Ry
     estimated scf accuracy    <       0.00000262 Ry

     iteration # 11     ecut=    30.00 Ry     beta= 0.70
     Davidson diagonalization with overlap
     ethr =  5.95E-09,  avg # of iterations =  4.3

     total cpu time spent up to now is        5.3 secs

     total energy              =    -333.16074423 Ry
     estimated scf accuracy    <       0.00000396 Ry

     iteration # 12     ecut=    30.00 Ry     beta= 0.70
     Davidson diagonalization with overlap
     ethr =  5.95E-09,  avg # of iterations =  3.3

     total cpu time spent up to now is        5.6 secs

     total energy              =    -333.16074407 Ry
     estimated scf accuracy    <       0.00000112 Ry

     iteration # 13     ecut=    30.00 Ry     beta= 0.70
     Davidson diagonalization with overlap
     ethr =  2.55E-09,  avg # of iterations =  4.5

     total cpu time spent up to now is        5.9 secs

     total energy              =    -333.16074449 Ry
     estimated scf accuracy    <       0.00000019 Ry

     iteration # 14     ecut=    30.00 Ry     beta= 0.70
     Davidson diagonalization with overlap
     ethr =  4.38E-10,  avg # of iterations =  3.3

     total cpu time spent up to now is        6.2 secs

     End of self-consistent calculation

          k = 0.1250 0.1250 0.1250 (  1096 PWs)   bands (ev):

   -44.3890 -21.3090 -20.9717 -20.9709  -6.3684  -5.3474  -5.1576  -4.1229
    -4.0890  -4.0772  -3.9102  -3.8794   4.5011   7.1475   7.3208   8.0179
     8.5977   8.7414   9.3829   9.7166  10.0760  10.1606

          k = 0.1250 0.1250 0.3750 (  1095 PWs)   bands (ev):

   -44.3876 -21.3675 -20.9692 -20.9682  -5.8473  -5.2854  -5.0141  -4.1707
    -4.1191  -4.0670  -3.9789  -3.8877   3.6706   6.7265   6.8640   7.7452
     8.3445   8.5180   9.4618   9.7248  10.2755  10.9517

          k = 0.1250 0.3750 0.3750 (  1093 PWs)   bands (ev):

   -44.3864 -21.3640 -21.0240 -20.9668  -5.6427  -5.2043  -4.9127  -4.1459
    -4.1051  -4.0350  -3.9376  -3.7384   3.3893   6.4311   7.0081   7.1537
     7.5780   8.7334   9.0878   9.5843   9.8789  10.5792

          k = 0.3750 0.3750 0.3750 (  1082 PWs)   bands (ev):

   -44.3851 -21.3612 -21.0214 -21.0212  -5.4605  -5.1861  -5.1038  -4.0641
    -4.0306  -3.7962  -3.6684  -3.6263   4.0330   5.7169   5.9545   6.6073
     7.2675   7.4215   7.9016  10.3605  10.4446  10.8222

          k = 0.3750-0.1250 0.1250 (  1095 PWs)   bands (ev):

   -44.3877 -21.3064 -21.0276 -20.9690  -6.0229  -5.1722  -5.0303  -4.1588
    -4.1032  -4.0777  -4.0054  -3.8649   3.7759   6.9655   7.3278   7.7486
     8.3359   8.7389   9.1281   9.6722   9.8123  10.7517

          k = 0.3750-0.3750 0.1250 (  1093 PWs)   bands (ev):

   -44.3864 -21.3044 -21.0247 -21.0239  -5.9271  -4.9642  -4.8817  -4.1153
    -4.0894  -4.0108  -3.9275  -3.8523   3.4914   6.8086   6.8129   7.0189
     7.4442   8.6656   9.4679   9.5288   9.9509  10.8125

     highest occupied level (ev):    10.9517

!    total energy              =    -333.16074448 Ry
     estimated scf accuracy    <       0.00000003 Ry

     The total energy is the sum of the following terms:
     one-electron contribution =     -79.00869699 Ry
     hartree contribution      =      67.45726628 Ry
     xc contribution           =     -49.71383662 Ry
     ewald contribution        =    -271.89547714 Ry

     convergence has been achieved in  14 iterations

     Forces acting on atoms (cartesian axes, Ry/au):

     atom    1 type  2   force =     0.00000000    0.00000000    0.03014851
     atom    2 type  3   force =     0.00000000    0.00000000   -0.15246182
     atom    3 type  1   force =     0.00000000    0.00000000    0.00731553
     atom    4 type  1   force =     0.00000000    0.00000000    0.00731553
     atom    5 type  1   force =     0.00000000    0.00000000    0.10768225
     The non-local contrib.  to forces
     atom    1 type  2   force =     0.00000000    0.00000000   -0.01562665
     atom    2 type  3   force =     0.00000000    0.00000000    0.07793815
     atom    3 type  1   force =     0.00000000    0.00000000    0.18507863
     atom    4 type  1   force =     0.00000000    0.00000000    0.18507863
     atom    5 type  1   force =     0.00000000    0.00000000   -0.47491164
     The ionic contribution  to forces
     atom    1 type  2   force =     0.00000000    0.00000000    1.74173847
     atom    2 type  3   force =     0.00000000    0.00000000   -4.43576017
     atom    3 type  1   force =     0.00000000   -0.00000000   -1.90513752
     atom    4 type  1   force =    -0.00000000    0.00000000   -1.90513752
     atom    5 type  1   force =    -0.00000000   -0.00000000    6.50429673
     The local contribution  to forces
     atom    1 type  2   force =    -0.00000000    0.00000000   -1.69592734
     atom    2 type  3   force =    -0.00000000   -0.00000000    4.20541659
     atom    3 type  1   force =     0.00000000   -0.00000000    1.72733761
     atom    4 type  1   force =    -0.00000000    0.00000000    1.72733761
     atom    5 type  1   force =    -0.00000000   -0.00000000   -5.92156274
     The core correction contribution to forces
     atom    1 type  2   force =     0.00000000    0.00000000    0.00000000
     atom    2 type  3   force =     0.00000000    0.00000000    0.00000000
     atom    3 type  1   force =     0.00000000    0.00000000    0.00000000
     atom    4 type  1   force =     0.00000000    0.00000000    0.00000000
     atom    5 type  1   force =     0.00000000    0.00000000    0.00000000
     The Hubbard contrib.    to forces
     atom    1 type  2   force =     0.00000000    0.00000000    0.00000000
     atom    2 type  3   force =     0.00000000    0.00000000    0.00000000
     atom    3 type  1   force =     0.00000000    0.00000000    0.00000000
     atom    4 type  1   force =     0.00000000    0.00000000    0.00000000
     atom    5 type  1   force =     0.00000000    0.00000000    0.00000000
     The SCF correction term to forces
     atom    1 type  2   force =     0.00000000    0.00000000   -0.00000000
     atom    2 type  3   force =    -0.00000000   -0.00000000   -0.00000000
     atom    3 type  1   force =     0.00000000   -0.00000000    0.00004399
     atom    4 type  1   force =    -0.00000000   -0.00000000    0.00004399
     atom    5 type  1   force =    -0.00000000   -0.00000000   -0.00013293

     Total force =     0.108178     Total SCF correction =     0.000147


     Computing stress (Cartesian axis) and pressure

          total   stress  (Ry/bohr**3)                   (kbar)     P=       31.90
  -0.00007314   0.00000000   0.00000000          -10.76        0.00        0.00
   0.00000000  -0.00007314   0.00000000            0.00      -10.76        0.00
   0.00000000   0.00000000   0.00079683            0.00        0.00      117.22


     BFGS Geometry Optimization
     Energy error            =      0.0E+00 Ry
     Gradient error          =      1.1E-01 Ry/Bohr

     number of scf cycles    =   1
     number of bfgs steps    =   0

     energy             new  =    -333.1607444778 Ry

     new trust radius        =       0.1076822517 bohr
     new conv_thr            =       0.0000001000 Ry


ATOMIC_POSITIONS (angstrom)
Pb            0.0000000000        0.0000000000        0.0000000000    0   0   0
Ti            1.9400000000        1.9400000000        2.2054700000    0   0   0
O             0.0000000000        1.9400000000        1.9438712098
O             1.9400000000        0.0000000000        1.9438712098
O             1.9400000000        1.9400000000        0.0569829936



     Writing config-only to output data dir /home/gridsan/epan1/labutil/lab3_samples/problem2/Lab3/PbTiO3_a_3.88_ecut_30_nk_4_displ_0.06842105263157894/pwscf.save/
     NEW-OLD atomic charge density approx. for the potential

     total cpu time spent up to now is        7.6 secs

     Self-consistent Calculation

     iteration #  1     ecut=    30.00 Ry     beta= 0.70
     Davidson diagonalization with overlap
     ethr =  1.00E-06,  avg # of iterations =  8.8

     total cpu time spent up to now is        8.1 secs

     total energy              =    -333.16712315 Ry
     estimated scf accuracy    <       0.00358505 Ry

     iteration #  2     ecut=    30.00 Ry     beta= 0.70
     Davidson diagonalization with overlap
     ethr =  8.15E-06,  avg # of iterations =  5.7

     total cpu time spent up to now is        8.4 secs

     total energy              =    -333.16680227 Ry
     estimated scf accuracy    <       0.00910546 Ry

     iteration #  3     ecut=    30.00 Ry     beta= 0.70
     Davidson diagonalization with overlap
     ethr =  8.15E-06,  avg # of iterations =  4.5

     total cpu time spent up to now is        8.8 secs

     total energy              =    -333.16857575 Ry
     estimated scf accuracy    <       0.00022338 Ry

     iteration #  4     ecut=    30.00 Ry     beta= 0.70
     Davidson diagonalization with overlap
     ethr =  5.08E-07,  avg # of iterations =  2.3

     total cpu time spent up to now is        9.1 secs

     total energy              =    -333.16860776 Ry
     estimated scf accuracy    <       0.00004891 Ry

     iteration #  5     ecut=    30.00 Ry     beta= 0.70
     Davidson diagonalization with overlap
     ethr =  1.11E-07,  avg # of iterations =  4.0

     total cpu time spent up to now is        9.4 secs

     total energy              =    -333.16861682 Ry
     estimated scf accuracy    <       0.00000351 Ry

     iteration #  6     ecut=    30.00 Ry     beta= 0.70
     Davidson diagonalization with overlap
     ethr =  7.99E-09,  avg # of iterations =  5.2

     total cpu time spent up to now is        9.7 secs

     total energy              =    -333.16861861 Ry
     estimated scf accuracy    <       0.00000121 Ry

     iteration #  7     ecut=    30.00 Ry     beta= 0.70
     Davidson diagonalization with overlap
     ethr =  2.75E-09,  avg # of iterations =  3.2

     total cpu time spent up to now is       10.0 secs

     total energy              =    -333.16861873 Ry
     estimated scf accuracy    <       0.00000021 Ry

     iteration #  8     ecut=    30.00 Ry     beta= 0.70
     Davidson diagonalization with overlap
     ethr =  4.85E-10,  avg # of iterations =  4.5

     total cpu time spent up to now is       10.4 secs

     End of self-consistent calculation

          k = 0.1250 0.1250 0.1250 (  1096 PWs)   bands (ev):

   -44.5190 -21.3043 -21.1107 -21.1099  -6.3797  -5.3353  -5.1853  -4.0914
    -4.0659  -4.0547  -3.8866  -3.8639   4.5295   7.1884   7.2934   8.0021
     8.7292   8.9142   9.4454   9.7127  10.1155  10.1196

          k = 0.1250 0.1250 0.3750 (  1095 PWs)   bands (ev):

   -44.5177 -21.3626 -21.1082 -21.1073  -5.8802  -5.2528  -5.0482  -4.1422
    -4.0873  -4.0461  -3.9630  -3.8634   3.7327   6.7342   6.9629   7.7229
     8.4716   8.5288   9.4449   9.7429  10.2345  10.9450

          k = 0.1250 0.3750 0.3750 (  1093 PWs)   bands (ev):

   -44.5164 -21.3592 -21.1622 -21.1059  -5.6705  -5.1682  -4.9432  -4.1170
    -4.0744  -4.0125  -3.9172  -3.7280   3.4329   6.5022   7.0302   7.1157
     7.5572   8.7230   9.2016   9.5670   9.9463  10.5870

          k = 0.3750 0.3750 0.3750 (  1082 PWs)   bands (ev):

   -44.5151 -21.3565 -21.1597 -21.1594  -5.4340  -5.1998  -5.1268  -4.0336
    -4.0085  -3.7596  -3.6585  -3.6221   4.0656   5.7988   5.9615   6.5896
     7.2510   7.3604   7.9497  10.4415  10.5185  10.7862

          k = 0.3750-0.1250 0.1250 (  1095 PWs)   bands (ev):

   -44.5177 -21.3018 -21.1657 -21.1080  -6.0184  -5.1758  -5.0598  -4.1330
    -4.0746  -4.0547  -3.9823  -3.8478   3.8073   6.9410   7.3634   7.7740
     8.3608   8.7915   9.1695   9.7371   9.8527  10.7718

          k = 0.3750-0.3750 0.1250 (  1093 PWs)   bands (ev):

   -44.5165 -21.2998 -21.1629 -21.1620  -5.8970  -4.9930  -4.9135  -4.0938
    -4.0633  -3.9929  -3.9102  -3.8170   3.4993   6.8193   6.8842   7.0980
     7.4593   8.6627   9.5054   9.5100   9.9448  10.7820

     highest occupied level (ev):    10.9450

!    total energy              =    -333.16861876 Ry
     estimated scf accuracy    <       0.00000007 Ry

     The total energy is the sum of the following terms:
     one-electron contribution =     -77.86861192 Ry
     hartree contribution      =      66.85582350 Ry
     xc contribution           =     -49.67183162 Ry
     ewald contribution        =    -272.48399873 Ry

     convergence has been achieved in   8 iterations

     Forces acting on atoms (cartesian axes, Ry/au):

     atom    1 type  2   force =     0.00000000    0.00000000    0.03078005
     atom    2 type  3   force =     0.00000000    0.00000000   -0.09875917
     atom    3 type  1   force =     0.00000000    0.00000000    0.01458026
     atom    4 type  1   force =     0.00000000    0.00000000    0.01458026
     atom    5 type  1   force =     0.00000000    0.00000000    0.03881859
     The non-local contrib.  to forces
     atom    1 type  2   force =     0.00000000    0.00000000   -0.01818317
     atom    2 type  3   force =     0.00000000    0.00000000    0.05361262
     atom    3 type  1   force =     0.00000000    0.00000000    0.20681046
     atom    4 type  1   force =     0.00000000    0.00000000    0.20681046
     atom    5 type  1   force =     0.00000000    0.00000000   -0.43144670
     The ionic contribution  to forces
     atom    1 type  2   force =     0.00000000    0.00000000    1.58964626
     atom    2 type  3   force =     0.00000000    0.00000000   -3.02201963
     atom    3 type  1   force =     0.00000000   -0.00000000   -1.75014946
     atom    4 type  1   force =    -0.00000000    0.00000000   -1.75014946
     atom    5 type  1   force =    -0.00000000   -0.00000000    4.93267229
     The local contribution  to forces
     atom    1 type  2   force =     0.00000000   -0.00000000   -1.54066683
     atom    2 type  3   force =    -0.00000000   -0.00000000    2.86956391
     atom    3 type  1   force =     0.00000000   -0.00000000    1.55785443
     atom    4 type  1   force =    -0.00000000    0.00000000    1.55785443
     atom    5 type  1   force =    -0.00000000   -0.00000000   -4.46243057
     The core correction contribution to forces
     atom    1 type  2   force =     0.00000000    0.00000000    0.00000000
     atom    2 type  3   force =     0.00000000    0.00000000    0.00000000
     atom    3 type  1   force =     0.00000000    0.00000000    0.00000000
     atom    4 type  1   force =     0.00000000    0.00000000    0.00000000
     atom    5 type  1   force =     0.00000000    0.00000000    0.00000000
     The Hubbard contrib.    to forces
     atom    1 type  2   force =     0.00000000    0.00000000    0.00000000
     atom    2 type  3   force =     0.00000000    0.00000000    0.00000000
     atom    3 type  1   force =     0.00000000    0.00000000    0.00000000
     atom    4 type  1   force =     0.00000000    0.00000000    0.00000000
     atom    5 type  1   force =     0.00000000    0.00000000    0.00000000
     The SCF correction term to forces
     atom    1 type  2   force =    -0.00000000   -0.00000000   -0.00000000
     atom    2 type  3   force =     0.00000000   -0.00000000    0.00000000
     atom    3 type  1   force =    -0.00000000   -0.00000000    0.00003744
     atom    4 type  1   force =     0.00000000   -0.00000000    0.00003744
     atom    5 type  1   force =    -0.00000000    0.00000000   -0.00000382

     Total force =     0.043955     Total SCF correction =     0.000053


     Computing stress (Cartesian axis) and pressure

          total   stress  (Ry/bohr**3)                   (kbar)     P=        4.36
  -0.00012722   0.00000000   0.00000000          -18.71        0.00        0.00
   0.00000000  -0.00012722   0.00000000            0.00      -18.71        0.00
   0.00000000   0.00000000   0.00034329            0.00        0.00       50.50

     Energy error            =      7.9E-03 Ry
     Gradient error          =      3.9E-02 Ry/Bohr

     number of scf cycles    =   2
     number of bfgs steps    =   1

     energy             old  =    -333.1607444778 Ry
     energy             new  =    -333.1686187627 Ry

     CASE: energy            _new < energy            _old

     new trust radius        =       0.0688194557 bohr
     new conv_thr            =       0.0000000388 Ry


ATOMIC_POSITIONS (angstrom)
Pb            0.0000000000        0.0000000000        0.0000000000    0   0   0
Ti            1.9400000000        1.9400000000        2.2054700000    0   0   0
O             0.0000000000        1.9400000000        1.9564641567
O             1.9400000000        0.0000000000        1.9564641567
O             1.9400000000        1.9400000000        0.0934006812



     Writing config-only to output data dir /home/gridsan/epan1/labutil/lab3_samples/problem2/Lab3/PbTiO3_a_3.88_ecut_30_nk_4_displ_0.06842105263157894/pwscf.save/
     NEW-OLD atomic charge density approx. for the potential

     total cpu time spent up to now is       11.5 secs

     Self-consistent Calculation

     iteration #  1     ecut=    30.00 Ry     beta= 0.70
     Davidson diagonalization with overlap
     ethr =  1.00E-06,  avg # of iterations =  8.7

     total cpu time spent up to now is       12.0 secs

     total energy              =    -333.17047578 Ry
     estimated scf accuracy    <       0.00125361 Ry

     iteration #  2     ecut=    30.00 Ry     beta= 0.70
     Davidson diagonalization with overlap
     ethr =  2.85E-06,  avg # of iterations =  5.7

     total cpu time spent up to now is       12.3 secs

     total energy              =    -333.17035736 Ry
     estimated scf accuracy    <       0.00270970 Ry

     iteration #  3     ecut=    30.00 Ry     beta= 0.70
     Davidson diagonalization with overlap
     ethr =  2.85E-06,  avg # of iterations =  4.5

     total cpu time spent up to now is       12.7 secs

     total energy              =    -333.17091625 Ry
     estimated scf accuracy    <       0.00009318 Ry

     iteration #  4     ecut=    30.00 Ry     beta= 0.70
     Davidson diagonalization with overlap
     ethr =  2.12E-07,  avg # of iterations =  2.3

     total cpu time spent up to now is       13.0 secs

     total energy              =    -333.17092547 Ry
     estimated scf accuracy    <       0.00002245 Ry

     iteration #  5     ecut=    30.00 Ry     beta= 0.70
     Davidson diagonalization with overlap
     ethr =  5.10E-08,  avg # of iterations =  4.3

     total cpu time spent up to now is       13.3 secs

     total energy              =    -333.17093000 Ry
     estimated scf accuracy    <       0.00000096 Ry

     iteration #  6     ecut=    30.00 Ry     beta= 0.70
     Davidson diagonalization with overlap
     ethr =  2.17E-09,  avg # of iterations =  5.8

     total cpu time spent up to now is       13.7 secs

     total energy              =    -333.17093058 Ry
     estimated scf accuracy    <       0.00000063 Ry

     iteration #  7     ecut=    30.00 Ry     beta= 0.70
     Davidson diagonalization with overlap
     ethr =  1.43E-09,  avg # of iterations =  3.0

     total cpu time spent up to now is       14.0 secs

     total energy              =    -333.17093062 Ry
     estimated scf accuracy    <       0.00000010 Ry

     iteration #  8     ecut=    30.00 Ry     beta= 0.70
     Davidson diagonalization with overlap
     ethr =  2.38E-10,  avg # of iterations =  4.7

     total cpu time spent up to now is       14.3 secs

     End of self-consistent calculation

          k = 0.1250 0.1250 0.1250 (  1096 PWs)   bands (ev):

   -44.5906 -21.3121 -21.1863 -21.1855  -6.3820  -5.3258  -5.2084  -4.0751
    -4.0544  -4.0436  -3.8747  -3.8565   4.5435   7.2036   7.2746   8.0004
     8.8138   8.9960   9.5052   9.7237  10.0892  10.1366

          k = 0.1250 0.1250 0.3750 (  1095 PWs)   bands (ev):

   -44.5893 -21.3701 -21.1839 -21.1830  -5.9013  -5.2257  -5.0755  -4.1273
    -4.0708  -4.0358  -3.9550  -3.8507   3.7686   6.7406   7.0232   7.7134
     8.5245   8.5391   9.4347   9.7646  10.2048  10.9337

          k = 0.1250 0.3750 0.3750 (  1093 PWs)   bands (ev):

   -44.5881 -21.3667 -21.2377 -21.1816  -5.6899  -5.1386  -4.9622  -4.1021
    -4.0588  -4.0007  -3.9062  -3.7238   3.4551   6.5478   7.0183   7.1017
     7.5343   8.7082   9.2661   9.5467   9.9842  10.5998

          k = 0.3750 0.3750 0.3750 (  1082 PWs)   bands (ev):

   -44.5868 -21.3640 -21.2352 -21.2349  -5.4133  -5.2044  -5.1423  -4.0180
    -3.9975  -3.7395  -3.6527  -3.6202   4.0787   5.8380   5.9554   6.5901
     7.2238   7.3054   7.9711  10.4927  10.5635  10.7614

          k = 0.3750-0.1250 0.1250 (  1095 PWs)   bands (ev):

   -44.5894 -21.3097 -21.2411 -21.1837  -6.0096  -5.1778  -5.0799  -4.1201
    -4.0601  -4.0433  -3.9689  -3.8389   3.8234   6.9165   7.3691   7.7762
     8.3694   8.8078   9.2031   9.7836   9.8866  10.7847

          k = 0.3750-0.3750 0.1250 (  1093 PWs)   bands (ev):

   -44.5881 -21.3077 -21.2383 -21.2375  -5.8687  -5.0111  -4.9343  -4.0834
    -4.0500  -3.9834  -3.9007  -3.7972   3.4998   6.8104   6.8991   7.1368
     7.4698   8.6579   9.4999   9.5144   9.9484  10.7606

     highest occupied level (ev):    10.9337

!    total energy              =    -333.17093065 Ry
     estimated scf accuracy    <       0.00000003 Ry

     The total energy is the sum of the following terms:
     one-electron contribution =     -77.42468455 Ry
     hartree contribution      =      66.61652599 Ry
     xc contribution           =     -49.65271675 Ry
     ewald contribution        =    -272.71005533 Ry

     convergence has been achieved in   8 iterations

     Forces acting on atoms (cartesian axes, Ry/au):

     atom    1 type  2   force =     0.00000000    0.00000000    0.03030368
     atom    2 type  3   force =     0.00000000    0.00000000   -0.07326578
     atom    3 type  1   force =     0.00000000    0.00000000    0.01799919
     atom    4 type  1   force =     0.00000000    0.00000000    0.01799919
     atom    5 type  1   force =     0.00000000    0.00000000    0.00696371
     The non-local contrib.  to forces
     atom    1 type  2   force =     0.00000000    0.00000000   -0.02726512
     atom    2 type  3   force =     0.00000000    0.00000000    0.04264434
     atom    3 type  1   force =     0.00000000    0.00000000    0.21617586
     atom    4 type  1   force =     0.00000000    0.00000000    0.21617586
     atom    5 type  1   force =     0.00000000    0.00000000   -0.39349960
     The ionic contribution  to forces
     atom    1 type  2   force =     0.00000000    0.00000000    1.63223084
     atom    2 type  3   force =     0.00000000    0.00000000   -2.28010214
     atom    3 type  1   force =     0.00000000   -0.00000000   -1.68329932
     atom    4 type  1   force =    -0.00000000    0.00000000   -1.68329932
     atom    5 type  1   force =    -0.00000000   -0.00000000    4.01446994
     The local contribution  to forces
     atom    1 type  2   force =    -0.00000000   -0.00000000   -1.57464162
     atom    2 type  3   force =    -0.00000000   -0.00000000    2.16405344
     atom    3 type  1   force =     0.00000000   -0.00000000    1.48505732
     atom    4 type  1   force =    -0.00000000    0.00000000    1.48505732
     atom    5 type  1   force =    -0.00000000   -0.00000000   -3.61398613
     The core correction contribution to forces
     atom    1 type  2   force =     0.00000000    0.00000000    0.00000000
     atom    2 type  3   force =     0.00000000    0.00000000    0.00000000
     atom    3 type  1   force =     0.00000000    0.00000000    0.00000000
     atom    4 type  1   force =     0.00000000    0.00000000    0.00000000
     atom    5 type  1   force =     0.00000000    0.00000000    0.00000000
     The Hubbard contrib.    to forces
     atom    1 type  2   force =     0.00000000    0.00000000    0.00000000
     atom    2 type  3   force =     0.00000000    0.00000000    0.00000000
     atom    3 type  1   force =     0.00000000    0.00000000    0.00000000
     atom    4 type  1   force =     0.00000000    0.00000000    0.00000000
     atom    5 type  1   force =     0.00000000    0.00000000    0.00000000
     The SCF correction term to forces
     atom    1 type  2   force =    -0.00000000    0.00000000   -0.00000000
     atom    2 type  3   force =    -0.00000000    0.00000000    0.00000000
     atom    3 type  1   force =     0.00000000   -0.00000000    0.00003890
     atom    4 type  1   force =    -0.00000000    0.00000000    0.00003890
     atom    5 type  1   force =     0.00000000   -0.00000000   -0.00004693

     Total force =     0.026390     Total SCF correction =     0.000072


     Computing stress (Cartesian axis) and pressure

          total   stress  (Ry/bohr**3)                   (kbar)     P=       -7.68
  -0.00014358   0.00000000   0.00000000          -21.12        0.00        0.00
   0.00000000  -0.00014358   0.00000000            0.00      -21.12        0.00
   0.00000000   0.00000000   0.00013049            0.00        0.00       19.20

     Energy error            =      2.3E-03 Ry
     Gradient error          =      1.8E-02 Ry/Bohr

     number of scf cycles    =   3
     number of bfgs steps    =   2

     energy             old  =    -333.1686187627 Ry
     energy             new  =    -333.1709306458 Ry

     CASE: energy            _new < energy            _old

     new trust radius        =       0.0506412966 bohr
     new conv_thr            =       0.0000000180 Ry


ATOMIC_POSITIONS (angstrom)
Pb            0.0000000000        0.0000000000        0.0000000000    0   0   0
Ti            1.9400000000        1.9400000000        2.2054700000    0   0   0
O             0.0000000000        1.9400000000        1.9779220525
O             1.9400000000        0.0000000000        1.9779220525
O             1.9400000000        1.9400000000        0.1201989013



     Writing config-only to output data dir /home/gridsan/epan1/labutil/lab3_samples/problem2/Lab3/PbTiO3_a_3.88_ecut_30_nk_4_displ_0.06842105263157894/pwscf.save/
     NEW-OLD atomic charge density approx. for the potential

     total cpu time spent up to now is       15.5 secs

     Self-consistent Calculation

     iteration #  1     ecut=    30.00 Ry     beta= 0.70
     Davidson diagonalization with overlap
     ethr =  1.00E-06,  avg # of iterations =  8.8

     total cpu time spent up to now is       16.0 secs

     total energy              =    -333.17215749 Ry
     estimated scf accuracy    <       0.00074190 Ry

     iteration #  2     ecut=    30.00 Ry     beta= 0.70
     Davidson diagonalization with overlap
     ethr =  1.69E-06,  avg # of iterations =  5.2

     total cpu time spent up to now is       16.3 secs

     total energy              =    -333.17208526 Ry
     estimated scf accuracy    <       0.00108262 Ry

     iteration #  3     ecut=    30.00 Ry     beta= 0.70
     Davidson diagonalization with overlap
     ethr =  1.69E-06,  avg # of iterations =  4.5

     total cpu time spent up to now is       16.7 secs

     total energy              =    -333.17234934 Ry
     estimated scf accuracy    <       0.00011466 Ry

     iteration #  4     ecut=    30.00 Ry     beta= 0.70
     Davidson diagonalization with overlap
     ethr =  2.61E-07,  avg # of iterations =  2.7

     total cpu time spent up to now is       16.9 secs

     total energy              =    -333.17235560 Ry
     estimated scf accuracy    <       0.00002012 Ry

     iteration #  5     ecut=    30.00 Ry     beta= 0.70
     Davidson diagonalization with overlap
     ethr =  4.57E-08,  avg # of iterations =  4.5

     total cpu time spent up to now is       17.3 secs

     total energy              =    -333.17236340 Ry
     estimated scf accuracy    <       0.00000156 Ry

     iteration #  6     ecut=    30.00 Ry     beta= 0.70
     Davidson diagonalization with overlap
     ethr =  3.55E-09,  avg # of iterations =  2.7

     total cpu time spent up to now is       17.6 secs

     total energy              =    -333.17236333 Ry
     estimated scf accuracy    <       0.00000062 Ry

     iteration #  7     ecut=    30.00 Ry     beta= 0.70
     Davidson diagonalization with overlap
     ethr =  1.40E-09,  avg # of iterations =  4.7

     total cpu time spent up to now is       17.9 secs

     total energy              =    -333.17236352 Ry
     estimated scf accuracy    <       0.00000005 Ry

     iteration #  8     ecut=    30.00 Ry     beta= 0.70
     Davidson diagonalization with overlap
     ethr =  1.15E-10,  avg # of iterations =  3.7

     total cpu time spent up to now is       18.2 secs

     total energy              =    -333.17236352 Ry
     estimated scf accuracy    <       0.00000002 Ry

     iteration #  9     ecut=    30.00 Ry     beta= 0.70
     Davidson diagonalization with overlap
     ethr =  4.54E-11,  avg # of iterations =  4.7

     total cpu time spent up to now is       18.6 secs

     End of self-consistent calculation

          k = 0.1250 0.1250 0.1250 (  1096 PWs)   bands (ev):

   -44.6369 -21.3210 -21.2358 -21.2350  -6.3827  -5.3219  -5.2340  -4.0642
    -4.0471  -4.0365  -3.8676  -3.8514   4.5529   7.2153   7.2628   8.0077
     8.8726   9.0360   9.5677   9.7420  10.0577  10.1404

          k = 0.1250 0.1250 0.3750 (  1095 PWs)   bands (ev):

   -44.6356 -21.3786 -21.2334 -21.2325  -5.9197  -5.2055  -5.1052  -4.1168
    -4.0597  -4.0291  -3.9491  -3.8426   3.7958   6.7490   7.0790   7.7171
     8.5010   8.5769   9.4197   9.7891  10.1747  10.9157

          k = 0.1250 0.3750 0.3750 (  1093 PWs)   bands (ev):

   -44.6344 -21.3752 -21.2874 -21.2311  -5.7081  -5.1164  -4.9788  -4.0920
    -4.0486  -3.9924  -3.8984  -3.7213   3.4688   6.5870   6.9810   7.1068
     7.5064   8.6923   9.3014   9.5236  10.0057  10.6115

          k = 0.3750 0.3750 0.3750 (  1082 PWs)   bands (ev):

   -44.6330 -21.3726 -21.2848 -21.2846  -5.3973  -5.2072  -5.1568  -4.0075
    -3.9905  -3.7258  -3.6481  -3.6183   4.0815   5.8600   5.9412   6.6006
     7.1840   7.2421   7.9831  10.5285  10.5938  10.7373

          k = 0.3750-0.1250 0.1250 (  1095 PWs)   bands (ev):

   -44.6356 -21.3186 -21.2907 -21.2332  -6.0012  -5.1845  -5.0986  -4.1118
    -4.0506  -4.0359  -3.9579  -3.8325   3.8329   6.8880   7.3626   7.7768
     8.3731   8.7983   9.2297   9.8150   9.9187  10.7917

          k = 0.3750-0.3750 0.1250 (  1093 PWs)   bands (ev):

   -44.6344 -21.3167 -21.2879 -21.2871  -5.8431  -5.0284  -4.9539  -4.0767
    -4.0408  -3.9758  -3.8928  -3.7834   3.4951   6.7976   6.8920   7.1510
     7.4653   8.6509   9.4893   9.5049   9.9560  10.7389

     highest occupied level (ev):    10.9157

!    total energy              =    -333.17236353 Ry
     estimated scf accuracy    <          4.2E-09 Ry

     The total energy is the sum of the following terms:
     one-electron contribution =     -77.31673897 Ry
     hartree contribution      =      66.55081901 Ry
     xc contribution           =     -49.64417495 Ry
     ewald contribution        =    -272.76226862 Ry

     convergence has been achieved in   9 iterations

     Forces acting on atoms (cartesian axes, Ry/au):

     atom    1 type  2   force =     0.00000000    0.00000000    0.02893281
     atom    2 type  3   force =     0.00000000    0.00000000   -0.05793000
     atom    3 type  1   force =     0.00000000    0.00000000    0.01892290
     atom    4 type  1   force =     0.00000000    0.00000000    0.01892290
     atom    5 type  1   force =     0.00000000    0.00000000   -0.00884861
     The non-local contrib.  to forces
     atom    1 type  2   force =     0.00000000    0.00000000   -0.04290331
     atom    2 type  3   force =     0.00000000    0.00000000    0.03584753
     atom    3 type  1   force =     0.00000000    0.00000000    0.21707644
     atom    4 type  1   force =     0.00000000    0.00000000    0.21707644
     atom    5 type  1   force =     0.00000000    0.00000000   -0.35578087
     The ionic contribution  to forces
     atom    1 type  2   force =     0.00000000    0.00000000    1.83153926
     atom    2 type  3   force =     0.00000000    0.00000000   -1.91116247
     atom    3 type  1   force =     0.00000000   -0.00000000   -1.67034676
     atom    4 type  1   force =    -0.00000000    0.00000000   -1.67034676
     atom    5 type  1   force =    -0.00000000   -0.00000000    3.42031672
     The local contribution  to forces
     atom    1 type  2   force =    -0.00000000   -0.00000000   -1.75973593
     atom    2 type  3   force =    -0.00000000   -0.00000000    1.81736051
     atom    3 type  1   force =     0.00000000   -0.00000000    1.47219716
     atom    4 type  1   force =    -0.00000000    0.00000000    1.47219716
     atom    5 type  1   force =    -0.00000000   -0.00000000   -3.07342829
     The core correction contribution to forces
     atom    1 type  2   force =     0.00000000    0.00000000    0.00000000
     atom    2 type  3   force =     0.00000000    0.00000000    0.00000000
     atom    3 type  1   force =     0.00000000    0.00000000    0.00000000
     atom    4 type  1   force =     0.00000000    0.00000000    0.00000000
     atom    5 type  1   force =     0.00000000    0.00000000    0.00000000
     The Hubbard contrib.    to forces
     atom    1 type  2   force =     0.00000000    0.00000000    0.00000000
     atom    2 type  3   force =     0.00000000    0.00000000    0.00000000
     atom    3 type  1   force =     0.00000000    0.00000000    0.00000000
     atom    4 type  1   force =     0.00000000    0.00000000    0.00000000
     atom    5 type  1   force =     0.00000000    0.00000000    0.00000000
     The SCF correction term to forces
     atom    1 type  2   force =    -0.00000000   -0.00000000    0.00000000
     atom    2 type  3   force =    -0.00000000   -0.00000000    0.00000000
     atom    3 type  1   force =     0.00000000   -0.00000000   -0.00001604
     atom    4 type  1   force =    -0.00000000   -0.00000000   -0.00001604
     atom    5 type  1   force =     0.00000000    0.00000000    0.00003174

     Total force =     0.028186     Total SCF correction =     0.000039


     Computing stress (Cartesian axis) and pressure

          total   stress  (Ry/bohr**3)                   (kbar)     P=      -12.70
  -0.00013918   0.00000000   0.00000000          -20.47        0.00        0.00
   0.00000000  -0.00013918   0.00000000            0.00      -20.47        0.00
   0.00000000   0.00000000   0.00001941            0.00        0.00        2.86

     Energy error            =      1.4E-03 Ry
     Gradient error          =      1.9E-02 Ry/Bohr

     number of scf cycles    =   4
     number of bfgs steps    =   3

     energy             old  =    -333.1709306458 Ry
     energy             new  =    -333.1723635257 Ry

     CASE: energy            _new < energy            _old

     new trust radius        =       0.0557054262 bohr
     new conv_thr            =       0.0000000143 Ry


ATOMIC_POSITIONS (angstrom)
Pb            0.0000000000        0.0000000000        0.0000000000    0   0   0
Ti            1.9400000000        1.9400000000        2.2054700000    0   0   0
O             0.0000000000        1.9400000000        2.0074000945
O             1.9400000000        0.0000000000        2.0074000945
O             1.9400000000        1.9400000000        0.1433601029



     Writing config-only to output data dir /home/gridsan/epan1/labutil/lab3_samples/problem2/Lab3/PbTiO3_a_3.88_ecut_30_nk_4_displ_0.06842105263157894/pwscf.save/
     NEW-OLD atomic charge density approx. for the potential

     total cpu time spent up to now is       19.9 secs

     Self-consistent Calculation

     iteration #  1     ecut=    30.00 Ry     beta= 0.70
     Davidson diagonalization with overlap
     ethr =  1.00E-06,  avg # of iterations =  9.3

     total cpu time spent up to now is       20.4 secs

     total energy              =    -333.17370242 Ry
     estimated scf accuracy    <       0.00076959 Ry

     iteration #  2     ecut=    30.00 Ry     beta= 0.70
     Davidson diagonalization with overlap
     ethr =  1.75E-06,  avg # of iterations =  4.2

     total cpu time spent up to now is       20.7 secs

     total energy              =    -333.17367743 Ry
     estimated scf accuracy    <       0.00062823 Ry

     iteration #  3     ecut=    30.00 Ry     beta= 0.70
     Davidson diagonalization with overlap
     ethr =  1.43E-06,  avg # of iterations =  4.5

     total cpu time spent up to now is       21.0 secs

     total energy              =    -333.17384297 Ry
     estimated scf accuracy    <       0.00022031 Ry

     iteration #  4     ecut=    30.00 Ry     beta= 0.70
     Davidson diagonalization with overlap
     ethr =  5.01E-07,  avg # of iterations =  3.0

     total cpu time spent up to now is       21.3 secs

     total energy              =    -333.17385972 Ry
     estimated scf accuracy    <       0.00002340 Ry

     iteration #  5     ecut=    30.00 Ry     beta= 0.70
     Davidson diagonalization with overlap
     ethr =  5.32E-08,  avg # of iterations =  5.0

     total cpu time spent up to now is       21.7 secs

     total energy              =    -333.17387659 Ry
     estimated scf accuracy    <       0.00002063 Ry

     iteration #  6     ecut=    30.00 Ry     beta= 0.70
     Davidson diagonalization with overlap
     ethr =  4.69E-08,  avg # of iterations =  1.0

     total cpu time spent up to now is       21.9 secs

     total energy              =    -333.17387278 Ry
     estimated scf accuracy    <       0.00001255 Ry

     iteration #  7     ecut=    30.00 Ry     beta= 0.70
     Davidson diagonalization with overlap
     ethr =  2.85E-08,  avg # of iterations =  2.8

     total cpu time spent up to now is       22.2 secs

     total energy              =    -333.17387470 Ry
     estimated scf accuracy    <       0.00000080 Ry

     iteration #  8     ecut=    30.00 Ry     beta= 0.70
     Davidson diagonalization with overlap
     ethr =  1.81E-09,  avg # of iterations =  4.8

     total cpu time spent up to now is       22.6 secs

     total energy              =    -333.17387506 Ry
     estimated scf accuracy    <       0.00000004 Ry

     iteration #  9     ecut=    30.00 Ry     beta= 0.70
     Davidson diagonalization with overlap
     ethr =  1.01E-10,  avg # of iterations =  4.8

     total cpu time spent up to now is       22.9 secs

     total energy              =    -333.17387505 Ry
     estimated scf accuracy    <       0.00000008 Ry

     iteration # 10     ecut=    30.00 Ry     beta= 0.70
     Davidson diagonalization with overlap
     ethr =  1.01E-10,  avg # of iterations =  3.5

     total cpu time spent up to now is       23.2 secs

     End of self-consistent calculation

          k = 0.1250 0.1250 0.1250 (  1096 PWs)   bands (ev):

   -44.6709 -21.3284 -21.2733 -21.2725  -6.3853  -5.3209  -5.2658  -4.0541
    -4.0402  -4.0298  -3.8618  -3.8446   4.5612   7.2262   7.2551   8.0199
     8.9192   9.0559   9.6366   9.7636  10.0197  10.1297

          k = 0.1250 0.1250 0.3750 (  1095 PWs)   bands (ev):

   -44.6697 -21.3857 -21.2710 -21.2701  -5.9415  -5.1874  -5.1418  -4.1062
    -4.0492  -4.0228  -3.9414  -3.8352   3.8213   6.7599   7.1385   7.7266
     8.4618   8.6030   9.3964   9.8146  10.1388  10.8919

          k = 0.1250 0.3750 0.3750 (  1093 PWs)   bands (ev):

   -44.6685 -21.3824 -21.3253 -21.2687  -5.7301  -5.0986  -4.9975  -4.0824
    -4.0393  -3.9839  -3.8902  -3.7174   3.4797   6.6260   6.9303   7.1167
     7.4754   8.6722   9.3209   9.4966  10.0192  10.6217

          k = 0.3750 0.3750 0.3750 (  1082 PWs)   bands (ev):

   -44.6671 -21.3798 -21.3228 -21.3225  -5.3856  -5.2094  -5.1749  -3.9977
    -3.9837  -3.7136  -3.6422  -3.6147   4.0770   5.8755   5.9208   6.6157
     7.1345   7.1692   7.9952  10.5563  10.6143  10.7101

          k = 0.3750-0.1250 0.1250 (  1095 PWs)   bands (ev):

   -44.6697 -21.3292 -21.3256 -21.2706  -5.9948  -5.1962  -5.1207  -4.1042
    -4.0416  -4.0289  -3.9451  -3.8251   3.8391   6.8547   7.3477   7.7786
     8.3754   8.7731   9.2514   9.8346   9.9518  10.7959

          k = 0.3750-0.3750 0.1250 (  1093 PWs)   bands (ev):

   -44.6685 -21.3269 -21.3250 -21.3231  -5.8176  -5.0502  -4.9786  -4.0704
    -4.0313  -3.9659  -3.8825  -3.7703   3.4853   6.7814   6.8725   7.1511
     7.4512   8.6438   9.4768   9.4839   9.9677  10.7123

     highest occupied level (ev):    10.8919

!    total energy              =    -333.17387505 Ry
     estimated scf accuracy    <       0.00000001 Ry

     The total energy is the sum of the following terms:
     one-electron contribution =     -77.39951558 Ry
     hartree contribution      =      66.58194476 Ry
     xc contribution           =     -49.64118417 Ry
     ewald contribution        =    -272.71512006 Ry

     convergence has been achieved in  10 iterations

     Forces acting on atoms (cartesian axes, Ry/au):

     atom    1 type  2   force =     0.00000000    0.00000000    0.02684090
     atom    2 type  3   force =     0.00000000    0.00000000   -0.04703014
     atom    3 type  1   force =     0.00000000    0.00000000    0.01829058
     atom    4 type  1   force =     0.00000000    0.00000000    0.01829058
     atom    5 type  1   force =     0.00000000    0.00000000   -0.01639191
     The non-local contrib.  to forces
     atom    1 type  2   force =     0.00000000    0.00000000   -0.06443493
     atom    2 type  3   force =     0.00000000    0.00000000    0.03067864
     atom    3 type  1   force =     0.00000000    0.00000000    0.21266520
     atom    4 type  1   force =     0.00000000    0.00000000    0.21266520
     atom    5 type  1   force =     0.00000000    0.00000000   -0.31467813
     The ionic contribution  to forces
     atom    1 type  2   force =     0.00000000    0.00000000    2.15375750
     atom    2 type  3   force =    -0.00000000   -0.00000000   -1.75441622
     atom    3 type  1   force =     0.00000000   -0.00000000   -1.68773862
     atom    4 type  1   force =    -0.00000000    0.00000000   -1.68773862
     atom    5 type  1   force =    -0.00000000   -0.00000000    2.97613595
     The local contribution  to forces
     atom    1 type  2   force =    -0.00000000   -0.00000000   -2.06244174
     atom    2 type  3   force =    -0.00000000   -0.00000000    1.67668147
     atom    3 type  1   force =     0.00000000   -0.00000000    1.49333982
     atom    4 type  1   force =    -0.00000000    0.00000000    1.49333982
     atom    5 type  1   force =    -0.00000000   -0.00000000   -2.67778985
     The core correction contribution to forces
     atom    1 type  2   force =     0.00000000    0.00000000    0.00000000
     atom    2 type  3   force =     0.00000000    0.00000000    0.00000000
     atom    3 type  1   force =     0.00000000    0.00000000    0.00000000
     atom    4 type  1   force =     0.00000000    0.00000000    0.00000000
     atom    5 type  1   force =     0.00000000    0.00000000    0.00000000
     The Hubbard contrib.    to forces
     atom    1 type  2   force =     0.00000000    0.00000000    0.00000000
     atom    2 type  3   force =     0.00000000    0.00000000    0.00000000
     atom    3 type  1   force =     0.00000000    0.00000000    0.00000000
     atom    4 type  1   force =     0.00000000    0.00000000    0.00000000
     atom    5 type  1   force =     0.00000000    0.00000000    0.00000000
     The SCF correction term to forces
     atom    1 type  2   force =     0.00000000    0.00000000   -0.00000000
     atom    2 type  3   force =    -0.00000000    0.00000000    0.00000000
     atom    3 type  1   force =    -0.00000000   -0.00000000    0.00003277
     atom    4 type  1   force =     0.00000000   -0.00000000    0.00003277
     atom    5 type  1   force =     0.00000000    0.00000000   -0.00005128

     Total force =     0.030623     Total SCF correction =     0.000069


     Computing stress (Cartesian axis) and pressure

          total   stress  (Ry/bohr**3)                   (kbar)     P=      -14.98
  -0.00012835   0.00000000   0.00000000          -18.88        0.00        0.00
   0.00000000  -0.00012835   0.00000000            0.00      -18.88        0.00
   0.00000000   0.00000000  -0.00004875            0.00        0.00       -7.17

     Energy error            =      1.5E-03 Ry
     Gradient error          =      1.8E-02 Ry/Bohr

     number of scf cycles    =   5
     number of bfgs steps    =   4

     energy             old  =    -333.1723635257 Ry
     energy             new  =    -333.1738750487 Ry

     CASE: energy            _new < energy            _old

     new trust radius        =       0.0835581394 bohr
     new conv_thr            =       0.0000000151 Ry


ATOMIC_POSITIONS (angstrom)
Pb            0.0000000000        0.0000000000        0.0000000000    0   0   0
Ti            1.9400000000        1.9400000000        2.2054700000    0   0   0
O             0.0000000000        1.9400000000        2.0516171577
O             1.9400000000        0.0000000000        2.0516171577
O             1.9400000000        1.9400000000        0.1700824315



     Writing config-only to output data dir /home/gridsan/epan1/labutil/lab3_samples/problem2/Lab3/PbTiO3_a_3.88_ecut_30_nk_4_displ_0.06842105263157894/pwscf.save/
     NEW-OLD atomic charge density approx. for the potential

     total cpu time spent up to now is       24.7 secs

     Self-consistent Calculation

     iteration #  1     ecut=    30.00 Ry     beta= 0.70
     Davidson diagonalization with overlap
     ethr =  1.00E-06,  avg # of iterations =  9.5

     total cpu time spent up to now is       25.2 secs

     total energy              =    -333.17557527 Ry
     estimated scf accuracy    <       0.00136841 Ry

     iteration #  2     ecut=    30.00 Ry     beta= 0.70
     Davidson diagonalization with overlap
     ethr =  3.11E-06,  avg # of iterations =  4.0

     total cpu time spent up to now is       25.5 secs

     total energy              =    -333.17561482 Ry
     estimated scf accuracy    <       0.00061693 Ry

     iteration #  3     ecut=    30.00 Ry     beta= 0.70
     Davidson diagonalization with overlap
     ethr =  1.40E-06,  avg # of iterations =  4.5

     total cpu time spent up to now is       25.8 secs

     total energy              =    -333.17577065 Ry
     estimated scf accuracy    <       0.00044099 Ry

     iteration #  4     ecut=    30.00 Ry     beta= 0.70
     Davidson diagonalization with overlap
     ethr =  1.00E-06,  avg # of iterations =  3.0

     total cpu time spent up to now is       26.1 secs

     total energy              =    -333.17582164 Ry
     estimated scf accuracy    <       0.00002221 Ry

     iteration #  5     ecut=    30.00 Ry     beta= 0.70
     Davidson diagonalization with overlap
     ethr =  5.05E-08,  avg # of iterations =  6.2

     total cpu time spent up to now is       26.5 secs

     total energy              =    -333.17584603 Ry
     estimated scf accuracy    <       0.00004774 Ry

     iteration #  6     ecut=    30.00 Ry     beta= 0.70
     Davidson diagonalization with overlap
     ethr =  5.05E-08,  avg # of iterations =  2.3

     total cpu time spent up to now is       26.8 secs

     total energy              =    -333.17583902 Ry
     estimated scf accuracy    <       0.00002791 Ry

     iteration #  7     ecut=    30.00 Ry     beta= 0.70
     Davidson diagonalization with overlap
     ethr =  5.05E-08,  avg # of iterations =  3.8

     total cpu time spent up to now is       27.1 secs

     total energy              =    -333.17584319 Ry
     estimated scf accuracy    <       0.00000100 Ry

     iteration #  8     ecut=    30.00 Ry     beta= 0.70
     Davidson diagonalization with overlap
     ethr =  2.27E-09,  avg # of iterations =  4.7

     total cpu time spent up to now is       27.4 secs

     total energy              =    -333.17584329 Ry
     estimated scf accuracy    <       0.00000030 Ry

     iteration #  9     ecut=    30.00 Ry     beta= 0.70
     Davidson diagonalization with overlap
     ethr =  6.81E-10,  avg # of iterations =  3.3

     total cpu time spent up to now is       27.7 secs

     total energy              =    -333.17584332 Ry
     estimated scf accuracy    <       0.00000002 Ry

     iteration # 10     ecut=    30.00 Ry     beta= 0.70
     Davidson diagonalization with overlap
     ethr =  4.79E-11,  avg # of iterations =  5.0

     total cpu time spent up to now is       28.1 secs

     End of self-consistent calculation

          k = 0.1250 0.1250 0.1250 (  1096 PWs)   bands (ev):

   -44.7071 -21.3393 -21.3137 -21.3129  -6.3946  -5.3196  -5.3132  -4.0391
    -4.0292  -4.0184  -3.8526  -3.8292   4.5720   7.2351   7.2487   8.0364
     8.9666   9.0639   9.7293   9.7900   9.9646  10.1003

          k = 0.1250 0.1250 0.3750 (  1095 PWs)   bands (ev):

   -44.7058 -21.3962 -21.3114 -21.3105  -5.9766  -5.1963  -5.1639  -4.0896
    -4.0331  -4.0120  -3.9247  -3.8235   3.8537   6.7746   7.2112   7.7346
     8.4026   8.6317   9.3569   9.8435  10.0861  10.8606

          k = 0.1250 0.3750 0.3750 (  1093 PWs)   bands (ev):

   -44.7046 -21.3929 -21.3663 -21.3090  -5.7646  -5.0882  -5.0178  -4.0676
    -4.0252  -3.9696  -3.8756  -3.7066   3.4933   6.6711   6.8621   7.1201
     7.4410   8.6401   9.3293   9.4636  10.0313  10.6335

          k = 0.3750 0.3750 0.3750 (  1082 PWs)   bands (ev):

   -44.7033 -21.3903 -21.3637 -21.3635  -5.3823  -5.2074  -5.2043  -3.9827
    -3.9722  -3.6976  -3.6295  -3.6046   4.0628   5.8913   5.8914   6.6320
     7.0694   7.0754   8.0191  10.5831  10.6194  10.6821

          k = 0.3750-0.1250 0.1250 (  1095 PWs)   bands (ev):

   -44.7058 -21.3697 -21.3369 -21.3110  -5.9932  -5.2152  -5.1537  -4.0921
    -4.0274  -4.0168  -3.9229  -3.8109   3.8448   6.8094   7.3213   7.7813
     8.3765   8.7319   9.2725   9.8450   9.9908  10.8018

          k = 0.3750-0.3750 0.1250 (  1093 PWs)   bands (ev):

   -44.7046 -21.3668 -21.3659 -21.3349  -5.7869  -5.0857  -5.0193  -4.0597
    -4.0151  -3.9462  -3.8619  -3.7515   3.4666   6.7566   6.8371   7.1403
     7.4305   8.6372   9.4515   9.4617   9.9889  10.6721

     highest occupied level (ev):    10.8606

!    total energy              =    -333.17584333 Ry
     estimated scf accuracy    <          3.6E-09 Ry

     The total energy is the sum of the following terms:
     one-electron contribution =     -77.67395018 Ry
     hartree contribution      =      66.70869873 Ry
     xc contribution           =     -49.64204899 Ry
     ewald contribution        =    -272.56854289 Ry

     convergence has been achieved in  10 iterations

     Forces acting on atoms (cartesian axes, Ry/au):

     atom    1 type  2   force =     0.00000000    0.00000000    0.02418318
     atom    2 type  3   force =     0.00000000    0.00000000   -0.03755361
     atom    3 type  1   force =     0.00000000    0.00000000    0.01605400
     atom    4 type  1   force =     0.00000000    0.00000000    0.01605400
     atom    5 type  1   force =     0.00000000    0.00000000   -0.01873757
     The non-local contrib.  to forces
     atom    1 type  2   force =     0.00000000    0.00000000   -0.09626959
     atom    2 type  3   force =     0.00000000    0.00000000    0.02578225
     atom    3 type  1   force =     0.00000000    0.00000000    0.20315827
     atom    4 type  1   force =     0.00000000    0.00000000    0.20315827
     atom    5 type  1   force =     0.00000000    0.00000000   -0.25952525
     The ionic contribution  to forces
     atom    1 type  2   force =     0.00000000    0.00000000    2.66344027
     atom    2 type  3   force =    -0.00000000   -0.00000000   -1.73641852
     atom    3 type  1   force =     0.00000000   -0.00000000   -1.72764822
     atom    4 type  1   force =    -0.00000000    0.00000000   -1.72764822
     atom    5 type  1   force =    -0.00000000   -0.00000000    2.52827468
     The local contribution  to forces
     atom    1 type  2   force =    -0.00000000    0.00000000   -2.54301243
     atom    2 type  3   force =    -0.00000000   -0.00000000    1.67307127
     atom    3 type  1   force =     0.00000000   -0.00000000    1.54055317
     atom    4 type  1   force =    -0.00000000    0.00000000    1.54055317
     atom    5 type  1   force =    -0.00000000   -0.00000000   -2.28750703
     The core correction contribution to forces
     atom    1 type  2   force =     0.00000000    0.00000000    0.00000000
     atom    2 type  3   force =     0.00000000    0.00000000    0.00000000
     atom    3 type  1   force =     0.00000000    0.00000000    0.00000000
     atom    4 type  1   force =     0.00000000    0.00000000    0.00000000
     atom    5 type  1   force =     0.00000000    0.00000000    0.00000000
     The Hubbard contrib.    to forces
     atom    1 type  2   force =     0.00000000    0.00000000    0.00000000
     atom    2 type  3   force =     0.00000000    0.00000000    0.00000000
     atom    3 type  1   force =     0.00000000    0.00000000    0.00000000
     atom    4 type  1   force =     0.00000000    0.00000000    0.00000000
     atom    5 type  1   force =     0.00000000    0.00000000    0.00000000
     The SCF correction term to forces
     atom    1 type  2   force =    -0.00000000    0.00000000    0.00000000
     atom    2 type  3   force =    -0.00000000    0.00000000    0.00000000
     atom    3 type  1   force =    -0.00000000    0.00000000   -0.00001296
     atom    4 type  1   force =     0.00000000    0.00000000   -0.00001296
     atom    5 type  1   force =     0.00000000    0.00000000    0.00001629

     Total force =     0.029437     Total SCF correction =     0.000025


     Computing stress (Cartesian axis) and pressure

          total   stress  (Ry/bohr**3)                   (kbar)     P=      -14.44
  -0.00010182   0.00000000   0.00000000          -14.98        0.00        0.00
   0.00000000  -0.00010182   0.00000000            0.00      -14.98        0.00
   0.00000000   0.00000000  -0.00009090            0.00        0.00      -13.37

     Energy error            =      2.0E-03 Ry
     Gradient error          =      1.9E-02 Ry/Bohr

     number of scf cycles    =   6
     number of bfgs steps    =   5

     energy             old  =    -333.1738750487 Ry
     energy             new  =    -333.1758433300 Ry

     CASE: energy            _new < energy            _old

     new trust radius        =       0.1253372090 bohr
     new conv_thr            =       0.0000000187 Ry


ATOMIC_POSITIONS (angstrom)
Pb            0.0000000000        0.0000000000        0.0000000000    0   0   0
Ti            1.9400000000        1.9400000000        2.2054700000    0   0   0
O             0.0000000000        1.9400000000        2.1179427524
O             1.9400000000        0.0000000000        2.1179427524
O             1.9400000000        1.9400000000        0.2048223542



     Writing config-only to output data dir /home/gridsan/epan1/labutil/lab3_samples/problem2/Lab3/PbTiO3_a_3.88_ecut_30_nk_4_displ_0.06842105263157894/pwscf.save/
     NEW-OLD atomic charge density approx. for the potential

     total cpu time spent up to now is       32.6 secs

     Self-consistent Calculation

     iteration #  1     ecut=    30.00 Ry     beta= 0.70
     Davidson diagonalization with overlap
     ethr =  1.00E-06,  avg # of iterations = 10.5

     total cpu time spent up to now is       33.2 secs

     total energy              =    -333.17766976 Ry
     estimated scf accuracy    <       0.00284510 Ry

     iteration #  2     ecut=    30.00 Ry     beta= 0.70
     Davidson diagonalization with overlap
     ethr =  6.47E-06,  avg # of iterations =  4.0

     total cpu time spent up to now is       33.5 secs

     total energy              =    -333.17785023 Ry
     estimated scf accuracy    <       0.00097758 Ry

     iteration #  3     ecut=    30.00 Ry     beta= 0.70
     Davidson diagonalization with overlap
     ethr =  2.22E-06,  avg # of iterations =  4.5

     total cpu time spent up to now is       33.9 secs

     total energy              =    -333.17808281 Ry
     estimated scf accuracy    <       0.00078413 Ry

     iteration #  4     ecut=    30.00 Ry     beta= 0.70
     Davidson diagonalization with overlap
     ethr =  1.78E-06,  avg # of iterations =  3.2

     total cpu time spent up to now is       34.2 secs

     total energy              =    -333.17819115 Ry
     estimated scf accuracy    <       0.00002202 Ry

     iteration #  5     ecut=    30.00 Ry     beta= 0.70
     Davidson diagonalization with overlap
     ethr =  5.00E-08,  avg # of iterations =  7.0

     total cpu time spent up to now is       34.6 secs

     total energy              =    -333.17822362 Ry
     estimated scf accuracy    <       0.00008131 Ry

     iteration #  6     ecut=    30.00 Ry     beta= 0.70
     Davidson diagonalization with overlap
     ethr =  5.00E-08,  avg # of iterations =  3.8

     total cpu time spent up to now is       34.9 secs

     total energy              =    -333.17821973 Ry
     estimated scf accuracy    <       0.00002881 Ry

     iteration #  7     ecut=    30.00 Ry     beta= 0.70
     Davidson diagonalization with overlap
     ethr =  5.00E-08,  avg # of iterations =  4.3

     total cpu time spent up to now is       35.2 secs

     total energy              =    -333.17822376 Ry
     estimated scf accuracy    <       0.00000073 Ry

     iteration #  8     ecut=    30.00 Ry     beta= 0.70
     Davidson diagonalization with overlap
     ethr =  1.66E-09,  avg # of iterations =  5.3

     total cpu time spent up to now is       35.5 secs

     total energy              =    -333.17822429 Ry
     estimated scf accuracy    <       0.00000080 Ry

     iteration #  9     ecut=    30.00 Ry     beta= 0.70
     Davidson diagonalization with overlap
     ethr =  1.66E-09,  avg # of iterations =  3.0

     total cpu time spent up to now is       35.8 secs

     total energy              =    -333.17822432 Ry
     estimated scf accuracy    <       0.00000014 Ry

     iteration # 10     ecut=    30.00 Ry     beta= 0.70
     Davidson diagonalization with overlap
     ethr =  3.13E-10,  avg # of iterations =  5.0

     total cpu time spent up to now is       36.2 secs

     total energy              =    -333.17822439 Ry
     estimated scf accuracy    <       0.00000005 Ry

     iteration # 11     ecut=    30.00 Ry     beta= 0.70
     Davidson diagonalization with overlap
     ethr =  1.05E-10,  avg # of iterations =  1.2

     total cpu time spent up to now is       36.4 secs

     total energy              =    -333.17822439 Ry
     estimated scf accuracy    <       0.00000003 Ry

     iteration # 12     ecut=    30.00 Ry     beta= 0.70
     Davidson diagonalization with overlap
     ethr =  6.54E-11,  avg # of iterations =  2.2

     total cpu time spent up to now is       36.7 secs

     End of self-consistent calculation

          k = 0.1250 0.1250 0.1250 (  1096 PWs)   bands (ev):

   -44.7488 -21.3608 -21.3599 -21.3558  -6.4222  -5.3877  -5.3130  -4.0131
    -4.0076  -3.9943  -3.8341  -3.7926   4.5877   7.2302   7.2421   8.0522
     9.0152   9.0547   9.8069   9.8528   9.8912  10.0446

          k = 0.1250 0.1250 0.3750 (  1095 PWs)   bands (ev):

   -44.7476 -21.4123 -21.3585 -21.3575  -6.0396  -5.2813  -5.1280  -4.0598
    -4.0039  -3.9896  -3.8859  -3.8010   3.8978   6.7945   7.2813   7.7210
     8.3324   8.6715   9.2923   9.8677  10.0050  10.8270

          k = 0.1250 0.3750 0.3750 (  1093 PWs)   bands (ev):

   -44.7464 -21.4141 -21.4089 -21.3560  -5.8241  -5.1276  -5.0084  -4.0403
    -3.9991  -3.9418  -3.8457  -3.6775   3.5147   6.7065   6.7879   7.0941
     7.4147   8.5855   9.3085   9.4380  10.0484  10.6460

          k = 0.3750 0.3750 0.3750 (  1082 PWs)   bands (ev):

   -44.7451 -21.4115 -21.4111 -21.4063  -5.4073  -5.2579  -5.1899  -3.9552
    -3.9488  -3.6728  -3.6005  -3.5782   4.0296   5.8525   5.9098   6.6353
     6.9648   6.9985   8.0737  10.5669  10.6074  10.6818

          k = 0.3750-0.1250 0.1250 (  1095 PWs)   bands (ev):

   -44.7476 -21.4173 -21.3580 -21.3535  -6.0082  -5.2501  -5.2006  -4.0685
    -4.0019  -3.9909  -3.8802  -3.7795   3.8503   6.7483   7.2790   7.7798
     8.3699   8.6780   9.2912   9.8397  10.0267  10.8175

          k = 0.3750-0.3750 0.1250 (  1093 PWs)   bands (ev):

   -44.7464 -21.4144 -21.4135 -21.3516  -5.7515  -5.1473  -5.0930  -4.0374
    -3.9840  -3.9049  -3.8176  -3.7192   3.4312   6.7159   6.7797   7.1208
     7.4120   8.6359   9.4119   9.4464  10.0280  10.6070

     highest occupied level (ev):    10.8270

!    total energy              =    -333.17822438 Ry
     estimated scf accuracy    <          8.1E-09 Ry

     The total energy is the sum of the following terms:
     one-electron contribution =     -78.22652079 Ry
     hartree contribution      =      66.97303478 Ry
     xc contribution           =     -49.64803430 Ry
     ewald contribution        =    -272.27670408 Ry

     convergence has been achieved in  12 iterations

     Forces acting on atoms (cartesian axes, Ry/au):

     atom    1 type  2   force =     0.00000000    0.00000000    0.02137843
     atom    2 type  3   force =     0.00000000    0.00000000   -0.03053917
     atom    3 type  1   force =     0.00000000    0.00000000    0.01177538
     atom    4 type  1   force =     0.00000000    0.00000000    0.01177538
     atom    5 type  1   force =     0.00000000    0.00000000   -0.01439002
     The non-local contrib.  to forces
     atom    1 type  2   force =     0.00000000    0.00000000   -0.14300607
     atom    2 type  3   force =     0.00000000    0.00000000    0.02122555
     atom    3 type  1   force =     0.00000000    0.00000000    0.18878383
     atom    4 type  1   force =     0.00000000    0.00000000    0.18878383
     atom    5 type  1   force =     0.00000000    0.00000000   -0.18142211
     The ionic contribution  to forces
     atom    1 type  2   force =     0.00000000    0.00000000    3.43790632
     atom    2 type  3   force =     0.00000000    0.00000000   -1.87383053
     atom    3 type  1   force =     0.00000000    0.00000000   -1.78372641
     atom    4 type  1   force =     0.00000000    0.00000000   -1.78372641
     atom    5 type  1   force =    -0.00000000   -0.00000000    2.00337702
     The local contribution  to forces
     atom    1 type  2   force =    -0.00000000    0.00000000   -3.27351999
     atom    2 type  3   force =    -0.00000000   -0.00000000    1.82206977
     atom    3 type  1   force =    -0.00000000   -0.00000000    1.60673131
     atom    4 type  1   force =    -0.00000000    0.00000000    1.60673131
     atom    5 type  1   force =    -0.00000000   -0.00000000   -1.83635827
     The core correction contribution to forces
     atom    1 type  2   force =     0.00000000    0.00000000    0.00000000
     atom    2 type  3   force =     0.00000000    0.00000000    0.00000000
     atom    3 type  1   force =     0.00000000    0.00000000    0.00000000
     atom    4 type  1   force =     0.00000000    0.00000000    0.00000000
     atom    5 type  1   force =     0.00000000    0.00000000    0.00000000
     The Hubbard contrib.    to forces
     atom    1 type  2   force =     0.00000000    0.00000000    0.00000000
     atom    2 type  3   force =     0.00000000    0.00000000    0.00000000
     atom    3 type  1   force =     0.00000000    0.00000000    0.00000000
     atom    4 type  1   force =     0.00000000    0.00000000    0.00000000
     atom    5 type  1   force =     0.00000000    0.00000000    0.00000000
     The SCF correction term to forces
     atom    1 type  2   force =    -0.00000000   -0.00000000    0.00000000
     atom    2 type  3   force =    -0.00000000    0.00000000   -0.00000000
     atom    3 type  1   force =    -0.00000000   -0.00000000   -0.00000978
     atom    4 type  1   force =    -0.00000000    0.00000000   -0.00000978
     atom    5 type  1   force =    -0.00000000    0.00000000    0.00001693

     Total force =     0.022009     Total SCF correction =     0.000022


     Computing stress (Cartesian axis) and pressure

          total   stress  (Ry/bohr**3)                   (kbar)     P=      -11.50
  -0.00006273   0.00000000   0.00000000           -9.23        0.00        0.00
   0.00000000  -0.00006273   0.00000000            0.00       -9.23        0.00
   0.00000000   0.00000000  -0.00010901            0.00        0.00      -16.04

     Energy error            =      2.4E-03 Ry
     Gradient error          =      1.4E-02 Ry/Bohr

     number of scf cycles    =   7
     number of bfgs steps    =   6

     energy             old  =    -333.1758433300 Ry
     energy             new  =    -333.1782243804 Ry

     CASE: energy            _new < energy            _old

     new trust radius        =       0.1880058136 bohr
     new conv_thr            =       0.0000000144 Ry


ATOMIC_POSITIONS (angstrom)
Pb            0.0000000000        0.0000000000        0.0000000000    0   0   0
Ti            1.9400000000        1.9400000000        2.2054700000    0   0   0
O             0.0000000000        1.9400000000        2.2174311445
O             1.9400000000        0.0000000000        2.2174311445
O             1.9400000000        1.9400000000        0.2559555696



     Writing config-only to output data dir /home/gridsan/epan1/labutil/lab3_samples/problem2/Lab3/PbTiO3_a_3.88_ecut_30_nk_4_displ_0.06842105263157894/pwscf.save/
     NEW-OLD atomic charge density approx. for the potential

     total cpu time spent up to now is       37.9 secs

     Self-consistent Calculation

     iteration #  1     ecut=    30.00 Ry     beta= 0.70
     Davidson diagonalization with overlap
     ethr =  1.00E-06,  avg # of iterations = 10.5

     total cpu time spent up to now is       38.5 secs

     total energy              =    -333.17930176 Ry
     estimated scf accuracy    <       0.00627237 Ry

     iteration #  2     ecut=    30.00 Ry     beta= 0.70
     Davidson diagonalization with overlap
     ethr =  1.43E-05,  avg # of iterations =  4.2

     total cpu time spent up to now is       38.8 secs

     total energy              =    -333.17974953 Ry
     estimated scf accuracy    <       0.00192836 Ry

     iteration #  3     ecut=    30.00 Ry     beta= 0.70
     Davidson diagonalization with overlap
     ethr =  4.38E-06,  avg # of iterations =  5.0

     total cpu time spent up to now is       39.2 secs

     total energy              =    -333.18017932 Ry
     estimated scf accuracy    <       0.00167830 Ry

     iteration #  4     ecut=    30.00 Ry     beta= 0.70
     Davidson diagonalization with overlap
     ethr =  3.81E-06,  avg # of iterations =  4.2

     total cpu time spent up to now is       39.5 secs

     total energy              =    -333.18047857 Ry
     estimated scf accuracy    <       0.00001266 Ry

     iteration #  5     ecut=    30.00 Ry     beta= 0.70
     Davidson diagonalization with overlap
     ethr =  2.88E-08,  avg # of iterations =  7.8

     total cpu time spent up to now is       39.9 secs

     total energy              =    -333.18050148 Ry
     estimated scf accuracy    <       0.00003723 Ry

     iteration #  6     ecut=    30.00 Ry     beta= 0.70
     Davidson diagonalization with overlap
     ethr =  2.88E-08,  avg # of iterations =  4.5

     total cpu time spent up to now is       40.2 secs

     total energy              =    -333.18050300 Ry
     estimated scf accuracy    <       0.00000688 Ry

     iteration #  7     ecut=    30.00 Ry     beta= 0.70
     Davidson diagonalization with overlap
     ethr =  1.56E-08,  avg # of iterations =  4.7

     total cpu time spent up to now is       40.5 secs

     total energy              =    -333.18050480 Ry
     estimated scf accuracy    <       0.00000062 Ry

     iteration #  8     ecut=    30.00 Ry     beta= 0.70
     Davidson diagonalization with overlap
     ethr =  1.42E-09,  avg # of iterations =  2.7

     total cpu time spent up to now is       40.8 secs

     total energy              =    -333.18050471 Ry
     estimated scf accuracy    <       0.00000040 Ry

     iteration #  9     ecut=    30.00 Ry     beta= 0.70
     Davidson diagonalization with overlap
     ethr =  9.12E-10,  avg # of iterations =  4.8

     total cpu time spent up to now is       41.2 secs

     total energy              =    -333.18050484 Ry
     estimated scf accuracy    <       0.00000006 Ry

     iteration # 10     ecut=    30.00 Ry     beta= 0.70
     Davidson diagonalization with overlap
     ethr =  1.45E-10,  avg # of iterations =  3.0

     total cpu time spent up to now is       41.4 secs

     total energy              =    -333.18050484 Ry
     estimated scf accuracy    <       0.00000002 Ry

     iteration # 11     ecut=    30.00 Ry     beta= 0.70
     Davidson diagonalization with overlap
     ethr =  3.85E-11,  avg # of iterations =  4.8

     total cpu time spent up to now is       41.8 secs

     End of self-consistent calculation

          k = 0.1250 0.1250 0.1250 (  1096 PWs)   bands (ev):

   -44.8012 -21.4183 -21.4174 -21.3856  -6.4913  -5.5057  -5.2939  -3.9652
    -3.9616  -3.9383  -3.7938  -3.7069   4.6119   7.1775   7.2292   8.0532
     9.0132   9.0503   9.7223   9.8671   9.8707  10.0822

          k = 0.1250 0.1250 0.3750 (  1095 PWs)   bands (ev):

   -44.7999 -21.4415 -21.4160 -21.4150  -6.1533  -5.4141  -5.0733  -4.0045
    -3.9494  -3.9368  -3.7949  -3.7549   3.9579   6.8173   7.2655   7.6434
     8.3130   8.7004   9.2127   9.8377   9.9051  10.8160

          k = 0.1250 0.3750 0.3750 (  1093 PWs)   bands (ev):

   -44.7987 -21.4719 -21.4381 -21.4135  -5.9276  -5.2457  -4.9680  -3.9877
    -3.9450  -3.8853  -3.7808  -3.6049   3.5528   6.6335   6.7845   7.0160
     7.4000   8.5021   9.2261   9.4400  10.0940  10.6496

          k = 0.3750 0.3750 0.3750 (  1082 PWs)   bands (ev):

   -44.7974 -21.4693 -21.4690 -21.4354  -5.4933  -5.3601  -5.1475  -3.9003
    -3.8976  -3.6280  -3.5380  -3.5132   3.9551   5.8100   5.9281   6.5879
     6.8727   6.9617   8.1988  10.4503  10.6187  10.6893

          k = 0.3750-0.1250 0.1250 (  1095 PWs)   bands (ev):

   -44.7999 -21.4752 -21.4155 -21.3833  -6.0671  -5.3469  -5.2347  -4.0182
[...]
     Davidson diagonalization with overlap
     ethr =  1.39E-07,  avg # of iterations =  3.5

     total cpu time spent up to now is       66.8 secs

     total energy              =    -333.18213258 Ry
     estimated scf accuracy    <       0.00000334 Ry

     iteration #  5     ecut=    30.00 Ry     beta= 0.70
     Davidson diagonalization with overlap
     ethr =  7.59E-09,  avg # of iterations =  5.5

     total cpu time spent up to now is       67.1 secs

     total energy              =    -333.18213541 Ry
     estimated scf accuracy    <       0.00000418 Ry

     iteration #  6     ecut=    30.00 Ry     beta= 0.70
     Davidson diagonalization with overlap
     ethr =  7.59E-09,  avg # of iterations =  2.0

     total cpu time spent up to now is       67.4 secs

     total energy              =    -333.18213491 Ry
     estimated scf accuracy    <       0.00000216 Ry

     iteration #  7     ecut=    30.00 Ry     beta= 0.70
     Davidson diagonalization with overlap
     ethr =  4.90E-09,  avg # of iterations =  4.0

     total cpu time spent up to now is       67.7 secs

     total energy              =    -333.18213537 Ry
     estimated scf accuracy    <       0.00000007 Ry

     iteration #  8     ecut=    30.00 Ry     beta= 0.70
     Davidson diagonalization with overlap
     ethr =  1.56E-10,  avg # of iterations =  6.2

     total cpu time spent up to now is       68.1 secs

     total energy              =    -333.18213542 Ry
     estimated scf accuracy    <       0.00000008 Ry

     iteration #  9     ecut=    30.00 Ry     beta= 0.70
     Davidson diagonalization with overlap
     ethr =  1.56E-10,  avg # of iterations =  2.5

     total cpu time spent up to now is       68.3 secs

     total energy              =    -333.18213542 Ry
     estimated scf accuracy    <       0.00000002 Ry

     iteration # 10     ecut=    30.00 Ry     beta= 0.70
     Davidson diagonalization with overlap
     ethr =  4.76E-11,  avg # of iterations =  4.7

     total cpu time spent up to now is       68.7 secs

     total energy              =    -333.18213542 Ry
     estimated scf accuracy    <          2.6E-09 Ry

     iteration # 11     ecut=    30.00 Ry     beta= 0.70
     Davidson diagonalization with overlap
     ethr =  5.85E-12,  avg # of iterations =  3.3

     total cpu time spent up to now is       69.0 secs

     End of self-consistent calculation

          k = 0.1250 0.1250 0.1250 (  1096 PWs)   bands (ev):

   -44.7889 -21.4096 -21.4078 -21.4032  -6.6198  -5.6703  -5.2852  -3.8886
    -3.8838  -3.8407  -3.7300  -3.5344   4.6344   7.0444   7.1811   8.0633
     8.9205   8.9656   9.5730   9.5873   9.7847  10.2146

          k = 0.1250 0.1250 0.3750 (  1095 PWs)   bands (ev):

   -44.7876 -21.4602 -21.4062 -21.4054  -6.3196  -5.5956  -5.0343  -3.9205
    -3.8635  -3.8392  -3.6885  -3.6113   3.9966   6.8076   7.0337   7.5145
     8.4058   8.5599   9.1660   9.6760   9.8028  10.8834

          k = 0.1250 0.3750 0.3750 (  1093 PWs)   bands (ev):

   -44.7864 -21.4625 -21.4562 -21.4038  -6.0771  -5.4490  -4.9582  -3.9057
    -3.8497  -3.7954  -3.6645  -3.4542   3.6079   6.4510   6.7500   6.9623
     7.3439   8.4405   9.0917   9.3729  10.2085  10.5803

          k = 0.3750 0.3750 0.3750 (  1082 PWs)   bands (ev):

   -44.7851 -21.4601 -21.4591 -21.4531  -5.6589  -5.5331  -5.1134  -3.8128
    -3.8042  -3.5727  -3.4315  -3.3788   3.8002   5.7710   5.9251   6.4800
     6.9247   7.0133   8.4479  10.2825  10.5303  10.6176

          k = 0.3750-0.1250 0.1250 (  1095 PWs)   bands (ev):

   -44.7876 -21.4653 -21.4063 -21.4011  -6.1944  -5.5295  -5.2794  -3.9274
    -3.8729  -3.8371  -3.6678  -3.5492   3.8578   6.6015   7.1542   7.6974
     8.2155   8.6278   9.2197   9.6965   9.8486  10.9409

          k = 0.3750-0.3750 0.1250 (  1093 PWs)   bands (ev):

   -44.7864 -21.4625 -21.4615 -21.3995  -5.7797  -5.4427  -5.3806  -3.8947
    -3.8264  -3.6889  -3.5642  -3.5454   3.2371   6.5536   6.6604   7.1108
     7.4861   8.6752   9.3654   9.3715  10.1942  10.3374

     highest occupied level (ev):    10.9409

!    total energy              =    -333.18213542 Ry
     estimated scf accuracy    <          3.2E-10 Ry

     The total energy is the sum of the following terms:
     one-electron contribution =     -81.02016036 Ry
     hartree contribution      =      68.36221030 Ry
     xc contribution           =     -49.70408048 Ry
     ewald contribution        =    -270.82010489 Ry

     convergence has been achieved in  11 iterations

     Forces acting on atoms (cartesian axes, Ry/au):

     atom    1 type  2   force =     0.00000000    0.00000000    0.02855690
     atom    2 type  3   force =     0.00000000    0.00000000   -0.02820701
     atom    3 type  1   force =     0.00000000    0.00000000   -0.00043771
     atom    4 type  1   force =     0.00000000    0.00000000   -0.00043771
     atom    5 type  1   force =     0.00000000    0.00000000    0.00052554
     The non-local contrib.  to forces
     atom    1 type  2   force =     0.00000000    0.00000000   -0.30169041
     atom    2 type  3   force =     0.00000000    0.00000000    0.00213745
     atom    3 type  1   force =     0.00000000    0.00000000    0.15495305
     atom    4 type  1   force =     0.00000000    0.00000000    0.15495305
     atom    5 type  1   force =     0.00000000    0.00000000    0.15667252
     The ionic contribution  to forces
     atom    1 type  2   force =     0.00000000    0.00000000    5.91257452
     atom    2 type  3   force =     0.00000000    0.00000000   -1.32667940
     atom    3 type  1   force =     0.00000000   -0.00000000   -1.71341302
     atom    4 type  1   force =    -0.00000000    0.00000000   -1.71341302
     atom    5 type  1   force =     0.00000000    0.00000000   -1.15906908
     The local contribution  to forces
     atom    1 type  2   force =    -0.00000000    0.00000000   -5.58233691
     atom    2 type  3   force =    -0.00000000   -0.00000000    1.29632020
     atom    3 type  1   force =     0.00000000   -0.00000000    1.55801320
     atom    4 type  1   force =    -0.00000000    0.00000000    1.55801320
     atom    5 type  1   force =    -0.00000000   -0.00000000    1.00290332
     The core correction contribution to forces
     atom    1 type  2   force =     0.00000000    0.00000000    0.00000000
     atom    2 type  3   force =     0.00000000    0.00000000    0.00000000
     atom    3 type  1   force =     0.00000000    0.00000000    0.00000000
     atom    4 type  1   force =     0.00000000    0.00000000    0.00000000
     atom    5 type  1   force =     0.00000000    0.00000000    0.00000000
     The Hubbard contrib.    to forces
     atom    1 type  2   force =     0.00000000    0.00000000    0.00000000
     atom    2 type  3   force =     0.00000000    0.00000000    0.00000000
     atom    3 type  1   force =     0.00000000    0.00000000    0.00000000
     atom    4 type  1   force =     0.00000000    0.00000000    0.00000000
     atom    5 type  1   force =     0.00000000    0.00000000    0.00000000
     The SCF correction term to forces
     atom    1 type  2   force =    -0.00000000   -0.00000000   -0.00000000
     atom    2 type  3   force =     0.00000000    0.00000000    0.00000000
     atom    3 type  1   force =    -0.00000000    0.00000000   -0.00000279
     atom    4 type  1   force =     0.00000000    0.00000000   -0.00000279
     atom    5 type  1   force =    -0.00000000    0.00000000    0.00000694

     Total force =     0.000812     Total SCF correction =     0.000008


     Computing stress (Cartesian axis) and pressure

          total   stress  (Ry/bohr**3)                   (kbar)     P=       17.06
   0.00009004   0.00000000   0.00000000           13.25        0.00        0.00
   0.00000000   0.00009004   0.00000000            0.00       13.25        0.00
   0.00000000   0.00000000   0.00016789            0.00        0.00       24.70

     Energy error            =      1.2E-04 Ry
     Gradient error          =      5.3E-04 Ry/Bohr

     number of scf cycles    =  14
     number of bfgs steps    =  13

     energy             old  =    -333.1820201865 Ry
     energy             new  =    -333.1821354240 Ry

     CASE: energy            _new < energy            _old

     new trust radius        =       0.0079336486 bohr
     new conv_thr            =       0.0000000010 Ry


ATOMIC_POSITIONS (angstrom)
Pb            0.0000000000        0.0000000000        0.0000000000    0   0   0
Ti            1.9400000000        1.9400000000        2.2054700000    0   0   0
O             0.0000000000        1.9400000000        2.3537461215
O             1.9400000000        0.0000000000        2.3537461215
O             1.9400000000        1.9400000000        0.3757270910



     Writing config-only to output data dir /home/gridsan/epan1/labutil/lab3_samples/problem2/Lab3/PbTiO3_a_3.88_ecut_30_nk_4_displ_0.06842105263157894/pwscf.save/
     NEW-OLD atomic charge density approx. for the potential

     total cpu time spent up to now is       70.1 secs

     Self-consistent Calculation

     iteration #  1     ecut=    30.00 Ry     beta= 0.70
     Davidson diagonalization with overlap
     ethr =  1.00E-06,  avg # of iterations =  3.2

     Threshold (ethr) on eigenvalues was too large:
     Diagonalizing with lowered threshold

     Davidson diagonalization with overlap
     ethr =  1.79E-08,  avg # of iterations =  5.7

     total cpu time spent up to now is       70.7 secs

     total energy              =    -333.18213518 Ry
     estimated scf accuracy    <       0.00001031 Ry

     iteration #  2     ecut=    30.00 Ry     beta= 0.70
     Davidson diagonalization with overlap
     ethr =  2.34E-08,  avg # of iterations =  2.2

     total cpu time spent up to now is       71.0 secs

     total energy              =    -333.18213675 Ry
     estimated scf accuracy    <       0.00000046 Ry

     iteration #  3     ecut=    30.00 Ry     beta= 0.70
     Davidson diagonalization with overlap
     ethr =  1.05E-09,  avg # of iterations =  3.3

     total cpu time spent up to now is       71.3 secs

     total energy              =    -333.18213687 Ry
     estimated scf accuracy    <       0.00000005 Ry

     iteration #  4     ecut=    30.00 Ry     beta= 0.70
     Davidson diagonalization with overlap
     ethr =  1.23E-10,  avg # of iterations =  4.8

     total cpu time spent up to now is       71.7 secs

     total energy              =    -333.18213687 Ry
     estimated scf accuracy    <       0.00000003 Ry

     iteration #  5     ecut=    30.00 Ry     beta= 0.70
     Davidson diagonalization with overlap
     ethr =  7.81E-11,  avg # of iterations =  4.5

     total cpu time spent up to now is       72.0 secs

     total energy              =    -333.18213688 Ry
     estimated scf accuracy    <          9.6E-09 Ry

     iteration #  6     ecut=    30.00 Ry     beta= 0.70
     Davidson diagonalization with overlap
     ethr =  2.19E-11,  avg # of iterations =  4.0

     total cpu time spent up to now is       72.3 secs

     End of self-consistent calculation

          k = 0.1250 0.1250 0.1250 (  1096 PWs)   bands (ev):

   -44.7892 -21.4098 -21.4081 -21.4027  -6.6153  -5.6653  -5.2854  -3.8915
    -3.8866  -3.8442  -3.7325  -3.5407   4.6332   7.0499   7.1827   8.0649
     8.9234   8.9688   9.5797   9.5910   9.7882  10.2131

          k = 0.1250 0.1250 0.3750 (  1095 PWs)   bands (ev):

   -44.7880 -21.4595 -21.4066 -21.4058  -6.3142  -5.5901  -5.0350  -3.9234
    -3.8666  -3.8428  -3.6911  -3.6179   3.9949   6.8096   7.0435   7.5184
     8.4011   8.5662   9.1655   9.6808   9.8070  10.8802

          k = 0.1250 0.3750 0.3750 (  1093 PWs)   bands (ev):

   -44.7868 -21.4628 -21.4556 -21.4042  -6.0724  -5.4424  -4.9579  -3.9085
    -3.8532  -3.7988  -3.6686  -3.4596   3.6061   6.4560   6.7521   6.9622
     7.3473   8.4413   9.0953   9.3750  10.2044  10.5828

          k = 0.3750 0.3750 0.3750 (  1082 PWs)   bands (ev):

   -44.7855 -21.4604 -21.4595 -21.4526  -5.6533  -5.5275  -5.1138  -3.8159
    -3.8076  -3.5751  -3.4353  -3.3836   3.8055   5.7715   5.9255   6.4834
     6.9205   7.0103   8.4394  10.2876  10.5337  10.6206

          k = 0.3750-0.1250 0.1250 (  1095 PWs)   bands (ev):

   -44.7880 -21.4658 -21.4066 -21.4005  -6.1898  -5.5235  -5.2781  -3.9307
    -3.8758  -3.8406  -3.6720  -3.5550   3.8580   6.6026   7.1557   7.7003
     8.2185   8.6267   9.2222   9.7004   9.8544  10.9389

          k = 0.3750-0.3750 0.1250 (  1093 PWs)   bands (ev):

   -44.7868 -21.4629 -21.4619 -21.3988  -5.7764  -5.4360  -5.3772  -3.8981
    -3.8297  -3.6931  -3.5681  -3.5515   3.2413   6.5560   6.6608   7.1103
     7.4837   8.6742   9.3666   9.3705  10.1908  10.3424

     highest occupied level (ev):    10.9389

!    total energy              =    -333.18213688 Ry
     estimated scf accuracy    <          3.3E-10 Ry

     The total energy is the sum of the following terms:
     one-electron contribution =     -80.95998242 Ry
     hartree contribution      =      68.33180111 Ry
     xc contribution           =     -49.70277937 Ry
     ewald contribution        =    -270.85117620 Ry

     convergence has been achieved in   6 iterations

     Forces acting on atoms (cartesian axes, Ry/au):

     atom    1 type  2   force =     0.00000000    0.00000000    0.02825570
     atom    2 type  3   force =     0.00000000    0.00000000   -0.02845725
     atom    3 type  1   force =     0.00000000    0.00000000    0.00012737
     atom    4 type  1   force =     0.00000000    0.00000000    0.00012737
     atom    5 type  1   force =     0.00000000    0.00000000   -0.00005319
     The non-local contrib.  to forces
     atom    1 type  2   force =     0.00000000    0.00000000   -0.29903628
     atom    2 type  3   force =     0.00000000    0.00000000    0.00275473
     atom    3 type  1   force =     0.00000000    0.00000000    0.15710828
     atom    4 type  1   force =     0.00000000    0.00000000    0.15710828
     atom    5 type  1   force =     0.00000000    0.00000000    0.15208905
     The ionic contribution  to forces
     atom    1 type  2   force =     0.00000000    0.00000000    5.86903756
     atom    2 type  3   force =     0.00000000    0.00000000   -1.30963026
     atom    3 type  1   force =     0.00000000   -0.00000000   -1.71214974
     atom    4 type  1   force =    -0.00000000    0.00000000   -1.71214974
     atom    5 type  1   force =    -0.00000000   -0.00000000   -1.13510782
     The local contribution  to forces
     atom    1 type  2   force =    -0.00000000    0.00000000   -5.54178044
     atom    2 type  3   force =    -0.00000000   -0.00000000    1.27843572
     atom    3 type  1   force =     0.00000000   -0.00000000    1.55516464
     atom    4 type  1   force =    -0.00000000    0.00000000    1.55516464
     atom    5 type  1   force =    -0.00000000   -0.00000000    0.98294058
     The core correction contribution to forces
     atom    1 type  2   force =     0.00000000    0.00000000    0.00000000
     atom    2 type  3   force =     0.00000000    0.00000000    0.00000000
     atom    3 type  1   force =     0.00000000    0.00000000    0.00000000
     atom    4 type  1   force =     0.00000000    0.00000000    0.00000000
     atom    5 type  1   force =     0.00000000    0.00000000    0.00000000
     The Hubbard contrib.    to forces
     atom    1 type  2   force =     0.00000000    0.00000000    0.00000000
     atom    2 type  3   force =     0.00000000    0.00000000    0.00000000
     atom    3 type  1   force =     0.00000000    0.00000000    0.00000000
     atom    4 type  1   force =     0.00000000    0.00000000    0.00000000
     atom    5 type  1   force =     0.00000000    0.00000000    0.00000000
     The SCF correction term to forces
     atom    1 type  2   force =    -0.00000000   -0.00000000    0.00000000
     atom    2 type  3   force =     0.00000000   -0.00000000   -0.00000000
     atom    3 type  1   force =    -0.00000000   -0.00000000   -0.00000092
     atom    4 type  1   force =    -0.00000000   -0.00000000   -0.00000092
     atom    5 type  1   force =    -0.00000000   -0.00000000    0.00001990

     Total force =     0.000188     Total SCF correction =     0.000020
     SCF correction compared to forces is large: reduce conv_thr to get better values


     Computing stress (Cartesian axis) and pressure

          total   stress  (Ry/bohr**3)                   (kbar)     P=       16.42
   0.00008765   0.00000000   0.00000000           12.89        0.00        0.00
   0.00000000   0.00008765   0.00000000            0.00       12.89        0.00
   0.00000000   0.00000000   0.00015964            0.00        0.00       23.48

     Energy error            =      1.5E-06 Ry
     Gradient error          =      1.3E-04 Ry/Bohr

     bfgs converged in  15 scf cycles and  14 bfgs steps
     (criteria: energy <  1.0E-04 Ry, force <  1.0E-03 Ry/Bohr)

     End of BFGS Geometry Optimization

     Final energy             =    -333.1821368847 Ry

     File /home/gridsan/epan1/labutil/lab3_samples/problem2/Lab3/PbTiO3_a_3.88_ecut_30_nk_4_displ_0.06842105263157894/pwscf.bfgs deleted, as requested
Begin final coordinates

ATOMIC_POSITIONS (angstrom)
Pb            0.0000000000        0.0000000000        0.0000000000    0   0   0
Ti            1.9400000000        1.9400000000        2.2054700000    0   0   0
O             0.0000000000        1.9400000000        2.3537461215
O             1.9400000000        0.0000000000        2.3537461215
O             1.9400000000        1.9400000000        0.3757270910
End final coordinates



     init_run     :      0.71s CPU      0.70s WALL (       1 calls)
     electrons    :     59.09s CPU     48.68s WALL (      15 calls)
     update_pot   :      0.44s CPU      0.43s WALL (      14 calls)
     forces       :      2.05s CPU      1.68s WALL (      15 calls)
     stress       :     15.89s CPU     13.68s WALL (      15 calls)

     Called by init_run:
     wfcinit      :      0.10s CPU      0.08s WALL (       1 calls)
     potinit      :      0.05s CPU      0.05s WALL (       1 calls)
     hinit0       :      0.45s CPU      0.47s WALL (       1 calls)

     Called by electrons:
     c_bands      :     34.36s CPU     26.92s WALL (     146 calls)
     sum_band     :     15.40s CPU     13.24s WALL (     146 calls)
     v_of_rho     :      0.50s CPU      0.49s WALL (     158 calls)
     newd         :      8.97s CPU      8.15s WALL (     158 calls)
     mix_rho      :      0.33s CPU      0.30s WALL (     146 calls)

     Called by c_bands:
     init_us_2    :      1.03s CPU      0.81s WALL (    1938 calls)
     init_us_2:cp :      1.02s CPU      0.81s WALL (    1938 calls)
     cegterg      :     31.76s CPU     24.54s WALL (     876 calls)

     Called by *egterg:
     cdiaghg      :      5.62s CPU      4.21s WALL (    4663 calls)
     h_psi        :     21.02s CPU     16.54s WALL (    4771 calls)
     s_psi        :      0.92s CPU      0.70s WALL (    4771 calls)
     g_psi        :      0.22s CPU      0.16s WALL (    3889 calls)

     Called by h_psi:
     h_psi:calbec :      1.28s CPU      1.02s WALL (    4771 calls)
     vloc_psi     :     18.66s CPU     14.69s WALL (    4771 calls)
     add_vuspsi   :      0.94s CPU      0.73s WALL (    4771 calls)

     General routines
     calbec       :      1.75s CPU      1.39s WALL (    6097 calls)
     fft          :      0.92s CPU      0.81s WALL (    1010 calls)
     ffts         :      0.09s CPU      0.08s WALL (     304 calls)
     fftw         :     17.70s CPU     13.96s WALL (  139752 calls)
     interpolate  :      0.19s CPU      0.17s WALL (     158 calls)

     Parallel routines

     PWSCF        :   1m19.91s CPU   1m13.53s WALL


   This run was terminated on:  18:12:41   2Nov2023            

=------------------------------------------------------------------------------=
   JOB DONE.
=------------------------------------------------------------------------------=
