
     Program PWSCF v.7.2 starts on 10Oct2023 at 16:34:49 

     This program is part of the open-source Quantum ESPRESSO suite
     for quantum simulation of materials; please cite
         "P. Giannozzi et al., J. Phys.:Condens. Matter 21 395502 (2009);
         "P. Giannozzi et al., J. Phys.:Condens. Matter 29 465901 (2017);
         "P. Giannozzi et al., J. Chem. Phys. 152 154105 (2020);
          URL http://www.quantum-espresso.org", 
     in publications or presentations arising from this work. More details at
     http://www.quantum-espresso.org/quote

     Parallel version (MPI), running on     1 processors

     MPI processes distributed on     1 nodes
     32074 MiB available memory on the printing compute node when the environment starts

     Waiting for input...
     Reading input from standard input
Warning: card &CELL ignored
Warning: card / ignored

     Current dimensions of program PWSCF are:
     Max number of different atomic species (ntypx) = 10
     Max number of k-points (npk) =  40000
     Max angular momentum in pseudopotentials (lmaxx) =  4
     file Ge.pz-dn-rrkjus_psl.0.2.2.UPF: wavefunction(s)  3D renormalized
     Message from routine setup:
     using ibrav=0 with symmetry is DISCOURAGED, use correct ibrav instead

     Subspace diagonalization in iterative solution of the eigenvalue problem:
     a serial algorithm will be used


     G-vector sticks info
     --------------------
     sticks:   dense  smooth     PW     G-vecs:    dense   smooth      PW
     Sum         253     253     85                 2637     2637     459

     Using Slab Decomposition



     bravais-lattice index     =            0
     lattice parameter (alat)  =       6.6812  a.u.
     unit-cell volume          =     210.8855 (a.u.)^3
     number of atoms/cell      =            2
     number of atomic types    =            1
     number of electrons       =        28.00
     number of Kohn-Sham states=           14
     kinetic-energy cutoff     =      20.0000  Ry
     charge density cutoff     =      80.0000  Ry
     scf convergence threshold =      1.0E-07
     mixing beta               =       0.5000
     number of iterations used =            8  plain     mixing
     Exchange-correlation= LDA
                           (   1   1   0   0   0   0   0)

     celldm(1)=   6.681191  celldm(2)=   0.000000  celldm(3)=   0.000000
     celldm(4)=   0.000000  celldm(5)=   0.000000  celldm(6)=   0.000000

     crystal axes: (cart. coord. in units of alat)
               a(1) = (   0.000000   0.707107   0.707107 )  
               a(2) = (   0.707107   0.000000   0.707107 )  
               a(3) = (   0.707107   0.707107   0.000000 )  

     reciprocal axes: (cart. coord. in units 2 pi/alat)
               b(1) = ( -0.707107  0.707107  0.707107 )  
               b(2) = (  0.707107 -0.707107  0.707107 )  
               b(3) = (  0.707107  0.707107 -0.707107 )  


     PseudoPot. # 1 for Ge read from file:
     ./Ge.pz-dn-rrkjus_psl.0.2.2.UPF
     MD5 check sum: 9948ad5293734715c8cf6021b6c26e6d
     Pseudo is Ultrasoft + core correction, Zval = 14.0
     Generated using "atomic" code by A. Dal Corso  v.5.0.2 svn rev. 9415
     Using radial grid of 1207 points,  6 beta functions with: 
                l(1) =   0
                l(2) =   0
                l(3) =   1
                l(4) =   1
                l(5) =   2
                l(6) =   2
     Q(r) pseudized with 0 coefficients 


     atomic species   valence    mass     pseudopotential
        Ge            14.00    72.63000     Ge( 1.00)

     48 Sym. Ops., with inversion, found (24 have fractional translation)



   Cartesian axes

     site n.     atom                  positions (alat units)
         1           Ge  tau(   1) = (   0.0000000   0.0000000   0.0000000  )
         2           Ge  tau(   2) = (   0.3535534   0.3535534   0.3535534  )

     number of k points=     4
                       cart. coord. in units 2pi/alat
        k(    1) = (   0.0000000   0.0000000   0.0000000), wk =   0.0740741
        k(    2) = (   0.2357023   0.2357023  -0.2357023), wk =   0.5925926
        k(    3) = (   0.4714045   0.0000000   0.0000000), wk =   0.4444444
        k(    4) = (  -0.0000000  -0.4714045   0.4714045), wk =   0.8888889

     Dense  grid:     2637 G-vectors     FFT dimensions: (  20,  20,  20)

     Estimated max dynamical RAM per process >      10.97 MB

     Check: negative core charge=   -0.000896

     Initial potential from superposition of free atoms

     starting charge      27.9988, renormalised to      28.0000
     Starting wfcs are   18 randomized atomic wfcs

     total cpu time spent up to now is        0.6 secs

     Self-consistent Calculation

     iteration #  1     ecut=    20.00 Ry     beta= 0.50
     Davidson diagonalization with overlap
     ethr =  1.00E-02,  avg # of iterations =  2.0

     total cpu time spent up to now is        0.7 secs

     total energy              =    -419.52747525 Ry
     estimated scf accuracy    <       0.31272141 Ry

     iteration #  2     ecut=    20.00 Ry     beta= 0.50
     Davidson diagonalization with overlap
     ethr =  1.12E-03,  avg # of iterations =  2.0

     total cpu time spent up to now is        0.8 secs

     total energy              =    -419.56030293 Ry
     estimated scf accuracy    <       0.02222443 Ry

     iteration #  3     ecut=    20.00 Ry     beta= 0.50
     Davidson diagonalization with overlap
     ethr =  7.94E-05,  avg # of iterations =  2.0

     total cpu time spent up to now is        0.8 secs

     total energy              =    -419.56130748 Ry
     estimated scf accuracy    <       0.00141685 Ry

     iteration #  4     ecut=    20.00 Ry     beta= 0.50
     Davidson diagonalization with overlap
     ethr =  5.06E-06,  avg # of iterations =  2.2

     total cpu time spent up to now is        0.9 secs

     total energy              =    -419.56155052 Ry
     estimated scf accuracy    <       0.00001522 Ry

     iteration #  5     ecut=    20.00 Ry     beta= 0.50
     Davidson diagonalization with overlap
     ethr =  5.44E-08,  avg # of iterations =  3.5

     total cpu time spent up to now is        1.0 secs

     total energy              =    -419.56155146 Ry
     estimated scf accuracy    <       0.00000757 Ry

     iteration #  6     ecut=    20.00 Ry     beta= 0.50
     Davidson diagonalization with overlap
     ethr =  2.70E-08,  avg # of iterations =  2.0

     total cpu time spent up to now is        1.1 secs

     End of self-consistent calculation

          k = 0.0000 0.0000 0.0000 (   331 PWs)   bands (ev):

   -13.2110 -13.2110 -13.0453 -13.0453 -13.0453 -12.9522 -12.9522 -12.9522
   -12.7909 -12.7909  -2.1096  14.1085  14.1085  14.1085

          k = 0.2357 0.2357-0.2357 (   308 PWs)   bands (ev):

   -12.8768 -12.6722 -12.6722 -12.4812 -12.4812 -12.4722 -12.2648 -12.2648
   -12.1323 -12.1323  -0.2943   6.4240  12.3704  12.3704

          k = 0.4714 0.0000 0.0000 (   323 PWs)   bands (ev):

   -13.1274 -12.8951 -12.8951 -12.8604 -12.8048 -12.7767 -12.7143 -12.7143
   -12.6407 -12.4668   0.3760   7.1533  10.1737  10.1737

          k =-0.0000-0.4714 0.4714 (   323 PWs)   bands (ev):

   -13.1547 -13.0408 -12.9983 -12.8827 -12.7171 -12.6657 -12.6237 -12.5561
   -12.3726 -12.3668   2.2480   4.7154   7.2911  10.6346

     highest occupied level (ev):    14.1085

!    total energy              =    -419.56155259 Ry
     estimated scf accuracy    <          1.9E-09 Ry

     The total energy is the sum of the following terms:
     one-electron contribution =    -227.69868984 Ry
     hartree contribution      =     142.87423465 Ry
     xc contribution           =    -111.25234944 Ry
     ewald contribution        =    -223.48474796 Ry

     convergence has been achieved in   6 iterations

     Forces acting on atoms (cartesian axes, Ry/au):

     atom    1 type  1   force =     0.00000000   -0.00000000   -0.00000000
     atom    2 type  1   force =    -0.00000000    0.00000000    0.00000000
     The non-local contrib.  to forces
     atom    1 type  1   force =     0.00000000    0.00000000   -0.00000000
     atom    2 type  1   force =    -0.00000000   -0.00000000    0.00000000
     The ionic contribution  to forces
     atom    1 type  1   force =     0.00000000    0.00000000    0.00000000
     atom    2 type  1   force =    -0.00000000   -0.00000000   -0.00000000
     The local contribution  to forces
     atom    1 type  1   force =    -0.00000000   -0.00000000   -0.00000000
     atom    2 type  1   force =    -0.00000000   -0.00000000   -0.00000000
     The core correction contribution to forces
     atom    1 type  1   force =    -0.00000000   -0.00000000   -0.00000000
     atom    2 type  1   force =    -0.00000000   -0.00000000   -0.00000000
     The Hubbard contrib.    to forces
     atom    1 type  1   force =     0.00000000    0.00000000    0.00000000
     atom    2 type  1   force =     0.00000000    0.00000000    0.00000000
     The SCF correction term to forces
     atom    1 type  1   force =    -0.00000000   -0.00000000    0.00000000
     atom    2 type  1   force =     0.00000000    0.00000000    0.00000000

     Total force =     0.000000     Total SCF correction =     0.000000


     Computing stress (Cartesian axis) and pressure

          total   stress  (Ry/bohr**3)                   (kbar)     P=    -6367.86
  -0.04328786  -0.00000000  -0.00000000        -6367.86       -0.00       -0.00
  -0.00000000  -0.04328786  -0.00000000           -0.00    -6367.86       -0.00
  -0.00000000  -0.00000000  -0.04328786           -0.00       -0.00    -6367.86


     init_run     :      0.52s CPU      0.48s WALL (       1 calls)
     electrons    :      0.75s CPU      0.49s WALL (       1 calls)
     forces       :      0.04s CPU      0.02s WALL (       1 calls)
     stress       :      0.28s CPU      0.19s WALL (       1 calls)

     Called by init_run:
     wfcinit      :      0.21s CPU      0.17s WALL (       1 calls)
     potinit      :      0.00s CPU      0.00s WALL (       1 calls)
     hinit0       :      0.30s CPU      0.30s WALL (       1 calls)

     Called by electrons:
     c_bands      :      0.47s CPU      0.30s WALL (       6 calls)
     sum_band     :      0.19s CPU      0.12s WALL (       6 calls)
     v_of_rho     :      0.01s CPU      0.01s WALL (       7 calls)
     newd         :      0.07s CPU      0.06s WALL (       7 calls)
     mix_rho      :      0.01s CPU      0.00s WALL (       6 calls)

     Called by c_bands:
     init_us_2    :      0.03s CPU      0.02s WALL (      60 calls)
     init_us_2:cp :      0.03s CPU      0.02s WALL (      60 calls)
     cegterg      :      0.39s CPU      0.25s WALL (      24 calls)

     Called by *egterg:
     cdiaghg      :      0.07s CPU      0.04s WALL (      79 calls)
     h_psi        :      0.48s CPU      0.34s WALL (      83 calls)
     s_psi        :      0.01s CPU      0.01s WALL (      83 calls)
     g_psi        :      0.00s CPU      0.00s WALL (      55 calls)

     Called by h_psi:
     h_psi:calbec :      0.01s CPU      0.01s WALL (      83 calls)
     vloc_psi     :      0.45s CPU      0.32s WALL (      83 calls)
     add_vuspsi   :      0.01s CPU      0.01s WALL (      83 calls)

     General routines
     calbec       :      0.02s CPU      0.01s WALL (     127 calls)
     fft          :      0.14s CPU      0.14s WALL (      36 calls)
     ffts         :      0.00s CPU      0.00s WALL (       6 calls)
     fftw         :      0.42s CPU      0.30s WALL (    2196 calls)

     Parallel routines

     PWSCF        :      1.70s CPU      1.31s WALL


   This run was terminated on:  16:34:50  10Oct2023            

=------------------------------------------------------------------------------=
   JOB DONE.
=------------------------------------------------------------------------------=
