LAMMPS (29 Oct 2020)
Reading data file ...
  orthogonal box = (0.0000000 0.0000000 0.0000000) to (14.598200 14.598200 28.258000)
  1 by 1 by 1 MPI processor grid
  reading atoms ...
  124 atoms
  read_data CPU = 0.000 seconds
WARNING: No fixes defined, atoms won't move (../verlet.cpp:54)
Neighbor list info ...
  update every 1 steps, delay 10 steps, check yes
  max neighbors/atom: 2000, page size: 100000
  master list distance cutoff = 6.5
  ghost atom cutoff = 6.5
  binsize = 3.25, bins = 5 5 9
  1 neighbor lists, perpetual/occasional/extra = 1 0 0
  (1) pair lj/cut, perpetual
      attributes: half, newton on
      pair build: half/bin/atomonly/newton
      stencil: half/bin/3d/newton
      bin: standard
Setting up Verlet run ...
  Unit style    : metal
  Current step  : 0
  Time step     : 0.001
Per MPI rank memory allocation (min/avg/max) = 3.065 | 3.065 | 3.065 Mbytes
Step PotEng Lx Ly Lz Press Pxx Pyy Pzz 
       0   -248.01824      14.5982      14.5982       28.258    207.70699    -1339.311    -1339.311    3301.7429 
Loop time of 9.53674e-07 on 1 procs for 0 steps with 124 atoms

104.9% CPU use with 1 MPI tasks x no OpenMP threads

MPI task timing breakdown:
Section |  min time  |  avg time  |  max time  |%varavg| %total
---------------------------------------------------------------
Pair    | 0          | 0          | 0          |   0.0 |  0.00
Neigh   | 0          | 0          | 0          |   0.0 |  0.00
Comm    | 0          | 0          | 0          |   0.0 |  0.00
Output  | 0          | 0          | 0          |   0.0 |  0.00
Modify  | 0          | 0          | 0          |   0.0 |  0.00
Other   |            | 9.537e-07  |            |       |100.00

Nlocal:        124.000 ave         124 max         124 min
Histogram: 1 0 0 0 0 0 0 0 0 0
Nghost:        334.000 ave         334 max         334 min
Histogram: 1 0 0 0 0 0 0 0 0 0
Neighs:        2592.00 ave        2592 max        2592 min
Histogram: 1 0 0 0 0 0 0 0 0 0

Total # of neighbors = 2592
Ave neighs/atom = 20.903226
Neighbor list builds = 0
Dangerous builds = 0
Total energy (eV) = -248.018239201732
Number of atoms = 124
Lattice constant (Angstoms) = 14.5982
Total wall time: 0:00:00
