LAMMPS (29 Oct 2020)
Reading data file ...
  orthogonal box = (0.0000000 0.0000000 0.0000000) to (8.2666667 8.2666667 8.2666667)
  1 by 1 by 1 MPI processor grid
  reading atoms ...
  32 atoms
  read_data CPU = 0.000 seconds
Reading eam potential file /home/gridsan/epan1/3320_atomistic_shared/lammps/potentials/Ag_u3.eam with DATE: 2007-06-11
WARNING: No fixes defined, atoms won't move (../verlet.cpp:54)
Neighbor list info ...
  update every 1 steps, delay 10 steps, check yes
  max neighbors/atom: 2000, page size: 100000
  master list distance cutoff = 7.55
  ghost atom cutoff = 7.55
  binsize = 3.775, bins = 3 3 3
  1 neighbor lists, perpetual/occasional/extra = 1 0 0
  (1) pair eam, perpetual
      attributes: half, newton on
      pair build: half/bin/atomonly/newton
      stencil: half/bin/3d/newton
      bin: standard
Setting up Verlet run ...
  Unit style    : metal
  Current step  : 0
  Time step     : 0.001
Per MPI rank memory allocation (min/avg/max) = 3.331 | 3.331 | 3.331 Mbytes
Step Temp E_pair E_mol TotEng Press 
       0            0   -91.028181            0   -91.028181   -30352.076 
Loop time of 9.53674e-07 on 1 procs for 0 steps with 32 atoms

0.0% CPU use with 1 MPI tasks x no OpenMP threads

MPI task timing breakdown:
Section |  min time  |  avg time  |  max time  |%varavg| %total
---------------------------------------------------------------
Pair    | 0          | 0          | 0          |   0.0 |  0.00
Neigh   | 0          | 0          | 0          |   0.0 |  0.00
Comm    | 0          | 0          | 0          |   0.0 |  0.00
Output  | 0          | 0          | 0          |   0.0 |  0.00
Modify  | 0          | 0          | 0          |   0.0 |  0.00
Other   |            | 9.537e-07  |            |       |100.00

Nlocal:        32.0000 ave          32 max          32 min
Histogram: 1 0 0 0 0 0 0 0 0 0
Nghost:        633.000 ave         633 max         633 min
Histogram: 1 0 0 0 0 0 0 0 0 0
Neighs:        1376.00 ave        1376 max        1376 min
Histogram: 1 0 0 0 0 0 0 0 0 0

Total # of neighbors = 1376
Ave neighs/atom = 43.000000
Neighbor list builds = 0
Dangerous builds = 0
WARNING: Using 'neigh_modify every 1 delay 0 check yes' setting during minimization (../min.cpp:187)
Setting up cg style minimization ...
  Unit style    : metal
  Current step  : 0
WARNING: Energy due to 1 extra global DOFs will be included in minimizer energies
Per MPI rank memory allocation (min/avg/max) = 4.456 | 4.456 | 4.456 Mbytes
Step Temp E_pair E_mol TotEng Press Volume 
       0            0   -91.028181            0   -91.028181   -30352.076    564.92563 
      12            0        -91.2            0        -91.2 -0.018308458    547.34341 
Loop time of 0.000952005 on 1 procs for 12 steps with 32 atoms

99.9% CPU use with 1 MPI tasks x no OpenMP threads

Minimization stats:
  Stopping criterion = energy tolerance
  Energy initial, next-to-last, final = 
       -91.02818112792  -91.2000000442319  -91.2000000478153
  Force two-norm initial, final = 32.106324 0.00021464025
  Force max component initial, final = 32.106324 2.9459989e-05
  Final line search alpha, max atom move = 0.20732908 6.1079122e-06
  Iterations, force evaluations = 12 14

MPI task timing breakdown:
Section |  min time  |  avg time  |  max time  |%varavg| %total
---------------------------------------------------------------
Pair    | 0.00075054 | 0.00075054 | 0.00075054 |   0.0 | 78.84
Neigh   | 0          | 0          | 0          |   0.0 |  0.00
Comm    | 3.9339e-05 | 3.9339e-05 | 3.9339e-05 |   0.0 |  4.13
Output  | 0          | 0          | 0          |   0.0 |  0.00
Modify  | 0          | 0          | 0          |   0.0 |  0.00
Other   |            | 0.0001621  |            |       | 17.03

Nlocal:        32.0000 ave          32 max          32 min
Histogram: 1 0 0 0 0 0 0 0 0 0
Nghost:        633.000 ave         633 max         633 min
Histogram: 1 0 0 0 0 0 0 0 0 0
Neighs:        1376.00 ave        1376 max        1376 min
Histogram: 1 0 0 0 0 0 0 0 0 0

Total # of neighbors = 1376
Ave neighs/atom = 43.000000
Neighbor list builds = 0
Dangerous builds = 0
Total energy (eV) = -91.2000000478153
Number of atoms = 32
Lattice constant (Angstoms) = 8.179999895374
Total wall time: 0:00:00
