LAMMPS (29 Oct 2020)
Reading data file ...
  orthogonal box = (0.0000000 0.0000000 0.0000000) to (40.900000 40.900000 40.900000)
  1 by 1 by 1 MPI processor grid
  reading atoms ...
  4000 atoms
  read_data CPU = 0.003 seconds
Reading eam potential file /home/gridsan/epan1/3320_atomistic_shared/lammps/potentials/Ag_u3.eam with DATE: 2007-06-11
WARNING: Using 'neigh_modify every 1 delay 0 check yes' setting during minimization (../min.cpp:187)
Neighbor list info ...
  update every 1 steps, delay 0 steps, check yes
  max neighbors/atom: 2000, page size: 100000
  master list distance cutoff = 7.55
  ghost atom cutoff = 7.55
  binsize = 3.775, bins = 11 11 11
  1 neighbor lists, perpetual/occasional/extra = 1 0 0
  (1) pair eam, perpetual
      attributes: half, newton on
      pair build: half/bin/atomonly/newton
      stencil: half/bin/3d/newton
      bin: standard
Setting up cg style minimization ...
  Unit style    : metal
  Current step  : 0
WARNING: Energy due to 1 extra global DOFs will be included in minimizer energies
Per MPI rank memory allocation (min/avg/max) = 5.094 | 5.094 | 5.094 Mbytes
Step PotEng Lx Ly Lz Press Pxx Pyy Pzz 
       0       -11400         40.9         40.9         40.9 -0.058146225 -0.058146225 -0.058146225 -0.058146225 
       1       -11400    40.899999    40.899999    40.899999 -0.00033946192 -0.00033946193 -0.00033946192 -0.00033946193 
Loop time of 0.0159862 on 1 procs for 1 steps with 4000 atoms

86.3% CPU use with 1 MPI tasks x no OpenMP threads

Minimization stats:
  Stopping criterion = energy tolerance
  Energy initial, next-to-last, final = 
      -11400.000006288   -11400.000006288  -11400.0000063033
  Force two-norm initial, final = 0.007449075 4.3488244e-05
  Force max component initial, final = 0.007449075 4.3488244e-05
  Final line search alpha, max atom move = 0.13424486 5.8380731e-06
  Iterations, force evaluations = 1 2

MPI task timing breakdown:
Section |  min time  |  avg time  |  max time  |%varavg| %total
---------------------------------------------------------------
Pair    | 0.015024   | 0.015024   | 0.015024   |   0.0 | 93.98
Neigh   | 0          | 0          | 0          |   0.0 |  0.00
Comm    | 7.391e-05  | 7.391e-05  | 7.391e-05  |   0.0 |  0.46
Output  | 0          | 0          | 0          |   0.0 |  0.00
Modify  | 0          | 0          | 0          |   0.0 |  0.00
Other   |            | 0.0008881  |            |       |  5.56

Nlocal:        4000.00 ave        4000 max        4000 min
Histogram: 1 0 0 0 0 0 0 0 0 0
Nghost:        5841.00 ave        5841 max        5841 min
Histogram: 1 0 0 0 0 0 0 0 0 0
Neighs:       172000.0 ave      172000 max      172000 min
Histogram: 1 0 0 0 0 0 0 0 0 0

Total # of neighbors = 172000
Ave neighs/atom = 43.000000
Neighbor list builds = 0
Dangerous builds = 0
Total energy (eV) = -11400.0000063033
Number of atoms = 4000
Lattice constant (Angstoms) = 40.8999992403149
Total wall time: 0:00:00
