Header of the LAMMPS data file 

4 atoms 
1 atom types

0.0 4.103030303030303  xlo xhi
0.0 4.103030303030303  ylo yhi
0.0 4.103030303030303  zlo zhi

Masses 

1  107.8682

Atoms # atomic 

1 1 0.00000 0.00000 0.00000 
2 1 0.00000 2.05152 2.05152 
3 1 2.05152 0.00000 2.05152 
4 1 2.05152 2.05152 0.00000 
