Header of the LAMMPS data file 

4 atoms 
1 atom types

0.0 4.294949494949495  xlo xhi
0.0 4.294949494949495  ylo yhi
0.0 4.294949494949495  zlo zhi

Masses 

1  107.8682

Atoms # atomic 

1 1 0.00000 0.00000 0.00000 
2 1 0.00000 2.14747 2.14747 
3 1 2.14747 0.00000 2.14747 
4 1 2.14747 2.14747 0.00000 
