
     Program PWSCF v.7.2 starts on  1Nov2023 at 17:24:47 

     This program is part of the open-source Quantum ESPRESSO suite
     for quantum simulation of materials; please cite
         "P. Giannozzi et al., J. Phys.:Condens. Matter 21 395502 (2009);
         "P. Giannozzi et al., J. Phys.:Condens. Matter 29 465901 (2017);
         "P. Giannozzi et al., J. Chem. Phys. 152 154105 (2020);
          URL http://www.quantum-espresso.org", 
     in publications or presentations arising from this work. More details at
     http://www.quantum-espresso.org/quote

     Parallel version (MPI), running on     4 processors

     MPI processes distributed on     4 nodes
     186286 MiB available memory on the printing compute node when the environment starts

     Waiting for input...
     Reading input from standard input

     Current dimensions of program PWSCF are:
     Max number of different atomic species (ntypx) = 10
     Max number of k-points (npk) =  40000
     Max angular momentum in pseudopotentials (lmaxx) =  4
     file Fe.pbe-nd-rrkjus.UPF: wavefunction(s)  4S renormalized
     Message from routine setup:
     using ibrav=0 with symmetry is DISCOURAGED, use correct ibrav instead

     R & G space division:  proc/nbgrp/npool/nimage =       4
     Subspace diagonalization in iterative solution of the eigenvalue problem:
     a serial algorithm will be used


     Parallelization info
     --------------------
     sticks:   dense  smooth     PW     G-vecs:    dense   smooth      PW
     Min          95      45     16                 1181      400      91
     Max          96      46     17                 1183      401      93
     Sum         383     181     67                 4729     1601     369

     Using Slab Decomposition



     bravais-lattice index     =            0
     lattice parameter (alat)  =       4.5899  a.u.
     unit-cell volume          =      74.4385 (a.u.)^3
     number of atoms/cell      =            1
     number of atomic types    =            1
     number of electrons       =         8.00
     number of Kohn-Sham states=            8
     kinetic-energy cutoff     =      30.0000  Ry
     charge density cutoff     =     240.0000  Ry
     scf convergence threshold =      1.0E-07
     mixing beta               =       0.5000
     number of iterations used =            8  plain     mixing
     energy convergence thresh.=      1.0E-04
     force convergence thresh. =      1.0E-03
     press convergence thresh. =      5.0E-01
     Exchange-correlation=  SLA  PW   PBE  PBE
                           (   1   4   3   4   0   0   0)
     nstep                     =           50


     celldm(1)=   4.589935  celldm(2)=   0.000000  celldm(3)=   0.000000
     celldm(4)=   0.000000  celldm(5)=   0.000000  celldm(6)=   0.000000

     crystal axes: (cart. coord. in units of alat)
               a(1) = (  -0.577350   0.577350   0.577350 )  
               a(2) = (   0.577350  -0.577350   0.577350 )  
               a(3) = (   0.577350   0.577350  -0.577350 )  

     reciprocal axes: (cart. coord. in units 2 pi/alat)
               b(1) = (  0.000000  0.866025  0.866025 )  
               b(2) = (  0.866025  0.000000  0.866025 )  
               b(3) = (  0.866025  0.866025  0.000000 )  


     PseudoPot. # 1 for Fe read from file:
     /home/gridsan/epan1/labutil/lab3_samples/pseudopotentials/Fe.pbe-nd-rrkjus.UPF
     MD5 check sum: 398036227a04b607635f6f5e8dfd8242
     Pseudo is Ultrasoft + core correction, Zval =  8.0
     Generated by new atomic code, or converted to UPF format
     Using radial grid of  957 points,  6 beta functions with: 
                l(1) =   0
                l(2) =   0
                l(3) =   1
                l(4) =   1
                l(5) =   2
                l(6) =   2
     Q(r) pseudized with 0 coefficients 


     atomic species   valence    mass     pseudopotential
        Fe             8.00    55.84500     Fe( 1.00)

     Starting magnetic structure 
     atomic species   magnetization
        Fe           0.700

     48 Sym. Ops., with inversion, found



   Cartesian axes

     site n.     atom                  positions (alat units)
         1           Fe  tau(   1) = (   0.0000000   0.0000000   0.0000000  )

     number of k points=    35  Methfessel-Paxton smearing, width (Ry)=  0.0200
                       cart. coord. in units 2pi/alat
        k(    1) = (   0.0000000   0.0000000   0.0000000), wk =   0.0013717
        k(    2) = (   0.0962250   0.0962250   0.0000000), wk =   0.0164609
        k(    3) = (   0.1924501   0.1924501   0.0000000), wk =   0.0164609
        k(    4) = (   0.2886751   0.2886751   0.0000000), wk =   0.0164609
        k(    5) = (   0.3849002   0.3849002   0.0000000), wk =   0.0164609
        k(    6) = (   0.1924501   0.0962250   0.0962250), wk =   0.0329218
        k(    7) = (   0.2886751   0.1924501   0.0962250), wk =   0.0658436
        k(    8) = (   0.3849002   0.2886751   0.0962250), wk =   0.0658436
        k(    9) = (   0.4811252   0.3849002   0.0962250), wk =   0.0329218
        k(   10) = (   0.3849002   0.1924501   0.1924501), wk =   0.0329218
        k(   11) = (   0.4811252   0.2886751   0.1924501), wk =   0.0658436
        k(   12) = (   0.5773503   0.2886751   0.2886751), wk =   0.0109739
        k(   13) = (   0.1924501   0.1924501   0.1924501), wk =   0.0109739
        k(   14) = (   0.2886751   0.2886751   0.1924501), wk =   0.0329218
        k(   15) = (   0.3849002   0.3849002   0.1924501), wk =   0.0329218
        k(   16) = (  -0.0000000  -0.0000000   0.1924501), wk =   0.0082305
        k(   17) = (   0.3849002   0.2886751   0.2886751), wk =   0.0329218
        k(   18) = (   0.4811252   0.3849002   0.2886751), wk =   0.0329218
        k(   19) = (   0.0000000  -0.0962250   0.2886751), wk =   0.0329218
        k(   20) = (  -0.0000000  -0.1924501   0.3849002), wk =   0.0329218
        k(   21) = (   0.0962250  -0.0962250   0.3849002), wk =   0.0329218
        k(   22) = (   0.0000000  -0.2886751   0.4811252), wk =   0.0329218
        k(   23) = (   0.0962250  -0.1924501   0.4811252), wk =   0.0658436
        k(   24) = (  -0.7698004  -0.2886751  -0.2886751), wk =   0.0329218
        k(   25) = (  -0.6735753  -0.1924501  -0.2886751), wk =   0.0329218
        k(   26) = (   0.3849002   0.3849002   0.3849002), wk =   0.0109739
        k(   27) = (   0.0000000   0.0000000   0.3849002), wk =   0.0082305
        k(   28) = (  -0.0000000  -0.0962250   0.4811252), wk =   0.0329218
        k(   29) = (   0.0000000  -0.1924501   0.5773503), wk =   0.0329218
        k(   30) = (   0.0962250  -0.0962250   0.5773503), wk =   0.0329218
        k(   31) = (  -0.7698004  -0.1924501  -0.1924501), wk =   0.0329218
        k(   32) = (  -0.0000000  -0.0000000   0.5773503), wk =   0.0082305
        k(   33) = (   0.0000000  -0.0962250   0.6735753), wk =   0.0329218
        k(   34) = (  -0.7698004  -0.0962250  -0.0962250), wk =   0.0109739
        k(   35) = (   0.0000000   0.0000000   0.7698004), wk =   0.0082305

     Dense  grid:     4729 G-vectors     FFT dimensions: (  24,  24,  24)

     Smooth grid:     1601 G-vectors     FFT dimensions: (  15,  15,  15)

     Estimated max dynamical RAM per process >       7.82 MB

     Estimated total dynamical RAM >      31.26 MB
     Generating pointlists ...
     new r_m :   0.4125 (alat units)  1.8933 (a.u.) for type    1

     Initial potential from superposition of free atoms

     starting charge       7.9994, renormalised to       8.0000
     Starting wfcs are    6 randomized atomic wfcs +    2 random wfcs

     total cpu time spent up to now is        3.8 secs

     Self-consistent Calculation

     iteration #  1     ecut=    30.00 Ry     beta= 0.50
     Davidson diagonalization with overlap
     ethr =  1.00E-02,  avg # of iterations =  4.4

     total cpu time spent up to now is        8.3 secs

     total energy              =     -55.67181393 Ry
     estimated scf accuracy    <       0.31816788 Ry

     total magnetization       =     3.04 Bohr mag/cell
     absolute magnetization    =     3.04 Bohr mag/cell

     iteration #  2     ecut=    30.00 Ry     beta= 0.50
     Davidson diagonalization with overlap
     ethr =  3.98E-03,  avg # of iterations =  1.7

     total cpu time spent up to now is       13.3 secs

     total energy              =     -55.76832452 Ry
     estimated scf accuracy    <       0.04567029 Ry

     total magnetization       =     2.80 Bohr mag/cell
     absolute magnetization    =     2.81 Bohr mag/cell

     iteration #  3     ecut=    30.00 Ry     beta= 0.50
     Davidson diagonalization with overlap
     ethr =  5.71E-04,  avg # of iterations =  1.4

     total cpu time spent up to now is       17.5 secs

     total energy              =     -55.79448687 Ry
     estimated scf accuracy    <       0.01060608 Ry

     total magnetization       =     2.60 Bohr mag/cell
     absolute magnetization    =     2.65 Bohr mag/cell

     iteration #  4     ecut=    30.00 Ry     beta= 0.50
     Davidson diagonalization with overlap
     ethr =  1.33E-04,  avg # of iterations =  1.9

     total cpu time spent up to now is       20.0 secs

     total energy              =     -55.80011999 Ry
     estimated scf accuracy    <       0.00053012 Ry

     total magnetization       =     2.27 Bohr mag/cell
     absolute magnetization    =     2.42 Bohr mag/cell

     iteration #  5     ecut=    30.00 Ry     beta= 0.50
     Davidson diagonalization with overlap
     ethr =  6.63E-06,  avg # of iterations =  5.4

     total cpu time spent up to now is       27.8 secs

     total energy              =     -55.80032739 Ry
     estimated scf accuracy    <       0.00023127 Ry

     total magnetization       =     2.26 Bohr mag/cell
     absolute magnetization    =     2.40 Bohr mag/cell

     iteration #  6     ecut=    30.00 Ry     beta= 0.50
     Davidson diagonalization with overlap
     ethr =  2.89E-06,  avg # of iterations =  2.2

     total cpu time spent up to now is       34.2 secs

     total energy              =     -55.80066283 Ry
     estimated scf accuracy    <       0.00007828 Ry

     total magnetization       =     2.20 Bohr mag/cell
     absolute magnetization    =     2.34 Bohr mag/cell

     iteration #  7     ecut=    30.00 Ry     beta= 0.50
     Davidson diagonalization with overlap
     ethr =  9.79E-07,  avg # of iterations =  1.1

     total cpu time spent up to now is       45.8 secs

     total energy              =     -55.80066645 Ry
     estimated scf accuracy    <       0.00007662 Ry

     total magnetization       =     2.20 Bohr mag/cell
     absolute magnetization    =     2.34 Bohr mag/cell

     iteration #  8     ecut=    30.00 Ry     beta= 0.50
     Davidson diagonalization with overlap
     ethr =  9.58E-07,  avg # of iterations =  1.0

     total cpu time spent up to now is       51.8 secs

     total energy              =     -55.80049185 Ry
     estimated scf accuracy    <       0.00007257 Ry

     total magnetization       =     2.21 Bohr mag/cell
     absolute magnetization    =     2.34 Bohr mag/cell

     iteration #  9     ecut=    30.00 Ry     beta= 0.50
     Davidson diagonalization with overlap
     ethr =  9.07E-07,  avg # of iterations =  1.5

     total cpu time spent up to now is       57.3 secs

     total energy              =     -55.80029198 Ry
     estimated scf accuracy    <       0.00010388 Ry

     total magnetization       =     2.23 Bohr mag/cell
     absolute magnetization    =     2.37 Bohr mag/cell

     iteration # 10     ecut=    30.00 Ry     beta= 0.50
     Davidson diagonalization with overlap
     ethr =  9.07E-07,  avg # of iterations =  1.6

     total cpu time spent up to now is       61.3 secs

     total energy              =     -55.79996109 Ry
     estimated scf accuracy    <       0.00025142 Ry

     total magnetization       =     2.26 Bohr mag/cell
     absolute magnetization    =     2.41 Bohr mag/cell

     iteration # 11     ecut=    30.00 Ry     beta= 0.50
     Davidson diagonalization with overlap
     ethr =  9.07E-07,  avg # of iterations =  1.8

     total cpu time spent up to now is       66.1 secs

     total energy              =     -55.80031021 Ry
     estimated scf accuracy    <       0.00052554 Ry

     total magnetization       =     2.28 Bohr mag/cell
     absolute magnetization    =     2.42 Bohr mag/cell

     iteration # 12     ecut=    30.00 Ry     beta= 0.50
     Davidson diagonalization with overlap
     ethr =  9.07E-07,  avg # of iterations =  2.2

     total cpu time spent up to now is       74.2 secs

     total energy              =     -55.80062216 Ry
     estimated scf accuracy    <       0.00003770 Ry

     total magnetization       =     2.20 Bohr mag/cell
     absolute magnetization    =     2.33 Bohr mag/cell

     iteration # 13     ecut=    30.00 Ry     beta= 0.50
     Davidson diagonalization with overlap
     ethr =  4.71E-07,  avg # of iterations =  2.0

     total cpu time spent up to now is       79.4 secs

     total energy              =     -55.80068567 Ry
     estimated scf accuracy    <       0.00000253 Ry

     total magnetization       =     2.17 Bohr mag/cell
     absolute magnetization    =     2.30 Bohr mag/cell

     iteration # 14     ecut=    30.00 Ry     beta= 0.50
     Davidson diagonalization with overlap
     ethr =  3.16E-08,  avg # of iterations =  1.9

     Magnetic moment per site  (integrated on atomic sphere of radius R)
     atom   1 (R=0.413)  charge=  6.4374  magn=  2.2331

     total cpu time spent up to now is       84.9 secs

     End of self-consistent calculation

 ------ SPIN UP ------------


          k = 0.0000 0.0000 0.0000 (   201 PWs)   bands (ev):

     5.5395  11.6706  11.6706  11.6706  12.9106  12.9106  39.1087  39.1088

          k = 0.0962 0.0962 0.0000 (   205 PWs)   bands (ev):

     6.0598  11.5294  11.6495  11.9519  12.7884  12.9230  36.4810  38.3639

          k = 0.1925 0.1925 0.0000 (   201 PWs)   bands (ev):

     7.4432  11.1838  11.5334  12.7116  12.7227  12.9670  31.5793  36.1460

          k = 0.2887 0.2887 0.0000 (   194 PWs)   bands (ev):

     8.7528  10.8093  12.0987  12.9198  13.0399  13.6737  26.4960  34.0078

          k = 0.3849 0.3849 0.0000 (   202 PWs)   bands (ev):

     8.9788  10.5745  12.9587  13.1011  14.2455  14.3769  22.4725  32.7996

          k = 0.1925 0.0962 0.0962 (   202 PWs)   bands (ev):

     7.0280  11.3651  11.4224  12.5442  12.6424  13.0009  33.8303  35.1063

          k = 0.2887 0.1925 0.0962 (   202 PWs)   bands (ev):

     8.5338  10.9938  11.3104  12.6891  13.1101  13.6103  29.1982  32.5868

          k = 0.3849 0.2887 0.0962 (   203 PWs)   bands (ev):

     9.2306  10.6981  12.0605  12.9249  13.3495  15.0621  24.4272  31.0876

          k = 0.4811 0.3849 0.0962 (   201 PWs)   bands (ev):

     9.2260  10.5918  12.5198  12.9649  13.7326  16.4031  21.7907  30.5390

          k = 0.3849 0.1925 0.1925 (   202 PWs)   bands (ev):

     9.6481  10.6937  11.2439  12.7785  13.2769  15.3396  27.0279  27.9240

          k = 0.4811 0.2887 0.1925 (   205 PWs)   bands (ev):

     9.8623  10.6386  11.4864  12.9813  13.4352  17.8269  22.9978  26.5225

          k = 0.5774 0.2887 0.2887 (   210 PWs)   bands (ev):

    10.2486  10.8584  10.8584  13.2423  13.2423  21.1510  21.1510  23.8765

          k = 0.1925 0.1925 0.1925 (   210 PWs)   bands (ev):

     8.3023  11.0040  11.0040  12.8964  12.8964  13.6395  31.6530  31.6530

          k = 0.2887 0.2887 0.1925 (   200 PWs)   bands (ev):

     9.5885  10.6756  11.0596  12.9547  13.0509  15.1982  27.0497  29.9991

          k = 0.3849 0.3849 0.1925 (   204 PWs)   bands (ev):

     9.6609  10.5024  12.0712  13.0539  13.1181  17.2704  22.8269  29.1022

          k =-0.0000-0.0000 0.1925 (   209 PWs)   bands (ev):

     6.5599  11.6862  11.6862  11.9520  12.4453  13.0936  35.6113  37.7641

          k = 0.3849 0.2887 0.2887 (   208 PWs)   bands (ev):

    10.2154  10.5897  11.1016  13.0524  13.1447  17.5426  25.2210  26.1525

          k = 0.4811 0.3849 0.2887 (   206 PWs)   bands (ev):

    10.1845  10.6007  11.3701  13.1194  13.1684  19.9671  22.2181  25.3286

          k = 0.0000-0.0962 0.2887 (   206 PWs)   bands (ev):

     7.8734  11.4514  11.5235  12.2818  12.6432  13.2873  31.8928  35.2201

          k =-0.0000-0.1925 0.3849 (   201 PWs)   bands (ev):

     9.0944  11.1146  11.3999  12.6810  13.6187  13.8790  26.8356  33.4245

          k = 0.0962-0.0962 0.3849 (   204 PWs)   bands (ev):

     9.1148  10.9881  11.5625  12.3215  13.2610  13.9984  29.5596  30.4815

          k = 0.0000-0.2887 0.4811 (   208 PWs)   bands (ev):

     9.2673  10.8995  11.8073  12.7796  14.3401  15.7727  22.6404  32.4462

          k = 0.0962-0.1925 0.4811 (   210 PWs)   bands (ev):

     9.7249  10.7628  11.3993  12.6853  13.7677  16.0353  25.0099  28.5790

          k =-0.7698-0.2887-0.2887 (   210 PWs)   bands (ev):

     9.6739  11.0681  11.1240  12.7826  14.0971  18.1207  21.9716  27.9963

          k =-0.6736-0.1925-0.2887 (   211 PWs)   bands (ev):

    10.3468  10.3473  11.0533  13.1381  13.6842  19.2152  23.2504  24.6532

          k = 0.3849 0.3849 0.3849 (   216 PWs)   bands (ev):

    10.6024  10.6024  10.9624  13.1398  13.1398  20.5261  24.2803  24.2803

          k = 0.0000 0.0000 0.3849 (   205 PWs)   bands (ev):

     8.8975  11.2650  11.9775  11.9775  12.6824  13.8416  32.4097  32.9739

          k =-0.0000-0.0962 0.4811 (   210 PWs)   bands (ev):

     9.6906  10.5975  11.9395  12.4226  13.4966  15.2062  27.8141  30.6866

          k = 0.0000-0.1925 0.5774 (   209 PWs)   bands (ev):

     9.7006  10.4889  11.8019  12.6047  14.2478  17.9059  23.2599  29.3019

          k = 0.0962-0.0962 0.5774 (   208 PWs)   bands (ev):

     9.9179  10.0421  12.0082  12.9489  13.8829  17.7259  25.9251  26.5297

          k =-0.7698-0.1925-0.1925 (   208 PWs)   bands (ev):

     9.7757  10.0231  11.9028  13.2564  14.0851  20.5874  22.5291  25.6559

          k =-0.0000-0.0000 0.5774 (   212 PWs)   bands (ev):

     9.7121   9.9479  12.8570  12.8570  13.5403  17.1616  28.1348  28.1348

          k = 0.0000-0.0962 0.6736 (   216 PWs)   bands (ev):

     9.4899   9.5773  13.0242  13.2668  14.1451  20.1739  24.4123  26.5785

          k =-0.7698-0.0962-0.0962 (   218 PWs)   bands (ev):

     9.3431   9.3431  13.1378  14.0123  14.0123  23.2327  23.2327  24.2336

          k = 0.0000 0.0000 0.7698 (   220 PWs)   bands (ev):

     9.1146   9.1225  13.9787  13.9787  14.1152  22.7304  24.8668  24.8668

 ------ SPIN DOWN ----------


          k = 0.0000 0.0000 0.0000 (   201 PWs)   bands (ev):

     5.6346  13.7493  13.7493  13.7493  15.9263  15.9263  38.8450  38.8450

          k = 0.0962 0.0962 0.0000 (   205 PWs)   bands (ev):

     6.1590  13.5768  13.7061  14.0575  15.7522  15.9405  36.6079  38.2510

          k = 0.1925 0.1925 0.0000 (   201 PWs)   bands (ev):

     7.6024  13.1584  13.4850  14.8968  15.5582  15.9974  32.1408  36.1992

          k = 0.2887 0.2887 0.0000 (   194 PWs)   bands (ev):

     9.3849  12.7111  13.4443  15.6401  15.9783  16.1004  27.3885  34.0482

          k = 0.3849 0.3849 0.0000 (   202 PWs)   bands (ev):

    10.2681  12.4333  14.4576  15.7628  16.1913  16.7866  23.7812  32.7960

          k = 0.1925 0.0962 0.0962 (   202 PWs)   bands (ev):

     7.1507  13.3598  13.4426  14.6885  15.5167  16.0244  34.1977  35.4247

          k = 0.2887 0.1925 0.0962 (   202 PWs)   bands (ev):

     8.8484  12.9215  13.1391  15.4498  15.7509  16.1721  29.8999  32.9925

          k = 0.3849 0.2887 0.0962 (   203 PWs)   bands (ev):

    10.2967  12.5548  13.3900  15.6356  16.2241  17.0587  25.4618  31.4811

          k = 0.4811 0.3849 0.0962 (   201 PWs)   bands (ev):

    10.6255  12.4246  13.9876  15.7287  16.3422  17.8707  23.1813  30.9154

          k = 0.3849 0.1925 0.1925 (   202 PWs)   bands (ev):

    10.4370  12.5476  12.8782  15.4940  16.1899  17.3366  27.8557  28.5648

          k = 0.4811 0.2887 0.1925 (   205 PWs)   bands (ev):

    11.2917  12.4079  12.9842  15.7075  16.2083  19.2907  24.0978  27.2121

          k = 0.5774 0.2887 0.2887 (   210 PWs)   bands (ev):

    11.8858  12.4735  12.4735  15.9741  15.9741  22.2816  22.2816  24.7633

          k = 0.1925 0.1925 0.1925 (   210 PWs)   bands (ev):

     8.4968  12.9267  12.9267  15.7926  15.8485  15.8485  32.1363  32.1363

          k = 0.2887 0.2887 0.1925 (   200 PWs)   bands (ev):

    10.2188  12.4981  12.6672  15.8492  16.0889  17.1966  27.8271  30.4999

          k = 0.3849 0.3849 0.1925 (   204 PWs)   bands (ev):

    11.0116  12.2663  13.2418  15.9319  16.2110  18.7524  23.9682  29.5872

          k =-0.0000-0.0000 0.1925 (   209 PWs)   bands (ev):

     6.6676  13.7277  13.7277  14.0620  15.3072  16.1473  35.7532  37.9800

          k = 0.3849 0.2887 0.2887 (   208 PWs)   bands (ev):

    11.4941  12.2615  12.4584  16.0000  16.1926  19.1264  26.0720  26.8604

          k = 0.4811 0.3849 0.2887 (   206 PWs)   bands (ev):

    11.7029  12.2136  12.7349  16.0813  16.2132  21.0970  23.3321  26.0692

          k = 0.0000-0.0962 0.2887 (   206 PWs)   bands (ev):

     8.0606  13.4408  13.5760  14.8190  14.9076  16.3137  32.4562  35.4810

          k =-0.0000-0.1925 0.3849 (   201 PWs)   bands (ev):

     9.7764  13.0390  13.2279  15.1553  15.9141  16.5539  27.7049  33.6737

          k = 0.0962-0.0962 0.3849 (   204 PWs)   bands (ev):

     9.5839  13.0926  13.4593  14.7408  15.6153  16.6444  30.3081  31.0527

          k = 0.0000-0.2887 0.4811 (   208 PWs)   bands (ev):

    10.6403  12.7843  13.5089  15.3850  16.7446  17.3929  23.8892  32.6758

          k = 0.0962-0.1925 0.4811 (   210 PWs)   bands (ev):

    10.9252  12.6499  13.2525  15.1182  16.2466  17.8762  25.9694  29.2236

          k =-0.7698-0.2887-0.2887 (   210 PWs)   bands (ev):

    11.2586  12.8744  12.9523  15.2676  16.5302  19.3990  23.2481  28.6261

          k =-0.6736-0.1925-0.2887 (   211 PWs)   bands (ev):

    11.9277  12.2204  12.8925  15.5543  16.1416  20.5368  24.3047  25.4435

          k = 0.3849 0.3849 0.3849 (   216 PWs)   bands (ev):

    12.1652  12.1652  12.2814  16.2283  16.2283  21.6730  25.1304  25.1304

          k = 0.0000 0.0000 0.3849 (   205 PWs)   bands (ev):

     9.2666  13.7704  13.9774  13.9774  14.8776  16.6547  33.0067  33.5648

          k =-0.0000-0.0962 0.4811 (   210 PWs)   bands (ev):

    10.6429  12.7951  13.9297  14.5761  15.7761  17.3325  28.6003  31.2678

          k = 0.0000-0.1925 0.5774 (   209 PWs)   bands (ev):

    11.3623  12.3591  13.7709  14.8598  16.6391  19.2338  24.3116  29.8204

          k = 0.0962-0.0962 0.5774 (   208 PWs)   bands (ev):

    11.4444  12.1233  13.9953  15.1220  16.2329  19.1427  26.7861  27.1711

          k =-0.7698-0.1925-0.1925 (   208 PWs)   bands (ev):

    11.6900  11.9053  13.8233  15.4911  16.4518  21.6136  23.5392  26.3307

          k =-0.0000-0.0000 0.5774 (   212 PWs)   bands (ev):

    11.2091  12.1181  14.9289  14.9289  15.8429  18.5960  28.6628  28.6628

          k = 0.0000-0.0962 0.6736 (   216 PWs)   bands (ev):

    11.3732  11.5658  15.1506  15.4063  16.5225  21.1005  25.0986  27.0063

          k =-0.7698-0.0962-0.0962 (   218 PWs)   bands (ev):

    11.3051  11.3051  15.2527  16.3415  16.3415  23.8794  23.8794  24.7366

          k = 0.0000 0.0000 0.7698 (   220 PWs)   bands (ev):

    11.0637  11.1047  16.2946  16.2946  16.4943  23.2104  25.1347  25.1347

     the Fermi energy is    14.0354 ev

!    total energy              =     -55.80068964 Ry
     estimated scf accuracy    <       0.00000004 Ry
     smearing contrib. (-TS)   =      -0.00019460 Ry
     internal energy E=F+TS    =     -55.80049505 Ry

     The total energy is F=E-TS. E is the sum of the following terms:
     one-electron contribution =       8.27204195 Ry
     hartree contribution      =       6.33435078 Ry
     xc contribution           =     -26.46143041 Ry
     ewald contribution        =     -43.94545736 Ry

     total magnetization       =     2.18 Bohr mag/cell
     absolute magnetization    =     2.31 Bohr mag/cell

     convergence has been achieved in  14 iterations

     Forces acting on atoms (cartesian axes, Ry/au):

     atom    1 type  1   force =     0.00000000    0.00000000    0.00000000
     The non-local contrib.  to forces
     atom    1 type  1   force =    -0.00000000    0.00000000   -0.00000000
     The ionic contribution  to forces
     atom    1 type  1   force =    -0.00000000   -0.00000000   -0.00000000
     The local contribution  to forces
     atom    1 type  1   force =    -0.00000000   -0.00000000   -0.00000000
     The core correction contribution to forces
     atom    1 type  1   force =     0.00000000   -0.00000000    0.00000000
     The Hubbard contrib.    to forces
     atom    1 type  1   force =     0.00000000    0.00000000    0.00000000
     The SCF correction term to forces
     atom    1 type  1   force =    -0.00000000   -0.00000000   -0.00000000

     Total force =     0.000000     Total SCF correction =     0.000000


     Computing stress (Cartesian axis) and pressure

          total   stress  (Ry/bohr**3)                   (kbar)     P=       68.86
   0.00046813   0.00000000   0.00000000           68.86        0.00        0.00
   0.00000000   0.00046813   0.00000000            0.00       68.86        0.00
   0.00000000   0.00000000   0.00046813            0.00        0.00       68.86


     BFGS Geometry Optimization
     Energy error            =      0.0E+00 Ry
     Gradient error          =      0.0E+00 Ry/Bohr
     Cell gradient error     =      6.9E+01 kbar

     number of scf cycles    =   1
     number of bfgs steps    =   0

     enthalpy           new  =     -55.8006896445 Ry

     new trust radius        =       0.0201943991 bohr
     new conv_thr            =       0.0000001000 Ry

     new unit-cell volume =     77.08271 a.u.^3 (    11.42248 Ang^3 )
     density =      8.11845 g/cm^3

CELL_PARAMETERS (angstrom)
  -1.418731242   1.418731242   1.418731242
   1.418731242  -1.418731242   1.418731242
   1.418731242   1.418731242  -1.418731242

ATOMIC_POSITIONS (angstrom)
Fe            0.0000000000        0.0000000000        0.0000000000



     Writing config-only to output data dir /home/gridsan/epan1/labutil/lab3_samples/problem1/Lab3/Fe_bcc_a_2.8046394196999995_ecut_30_nk_9/pwscf.save/
     NEW-OLD atomic charge density approx. for the potential
     extrapolated charge    8.27441, renormalised to    8.00000
     Generating pointlists ...

     total cpu time spent up to now is       88.3 secs

     Self-consistent Calculation

     iteration #  1     ecut=    30.00 Ry     beta= 0.50
     Davidson diagonalization with overlap
     ethr =  1.00E-06,  avg # of iterations =  5.0

     total cpu time spent up to now is       94.7 secs

     total energy              =     -55.74679273 Ry
     estimated scf accuracy    <       0.05767518 Ry

     total magnetization       =     2.11 Bohr mag/cell
     absolute magnetization    =     2.23 Bohr mag/cell

     iteration #  2     ecut=    30.00 Ry     beta= 0.50
     Davidson diagonalization with overlap
     ethr =  7.21E-04,  avg # of iterations =  2.3

     total cpu time spent up to now is      100.5 secs

     total energy              =     -55.79707372 Ry
     estimated scf accuracy    <       0.13763889 Ry

     total magnetization       =     2.41 Bohr mag/cell
     absolute magnetization    =     2.50 Bohr mag/cell

     iteration #  3     ecut=    30.00 Ry     beta= 0.50
     Davidson diagonalization with overlap
     ethr =  7.21E-04,  avg # of iterations =  1.1

     total cpu time spent up to now is      104.5 secs

     total energy              =     -55.79743634 Ry
     estimated scf accuracy    <       0.02063056 Ry

     total magnetization       =     2.30 Bohr mag/cell
     absolute magnetization    =     2.42 Bohr mag/cell

     iteration #  4     ecut=    30.00 Ry     beta= 0.50
     Davidson diagonalization with overlap
     ethr =  2.58E-04,  avg # of iterations =  1.4

     total cpu time spent up to now is      111.8 secs

     total energy              =     -55.80202532 Ry
     estimated scf accuracy    <       0.00005223 Ry

     total magnetization       =     2.26 Bohr mag/cell
     absolute magnetization    =     2.39 Bohr mag/cell

     iteration #  5     ecut=    30.00 Ry     beta= 0.50
     Davidson diagonalization with overlap
     ethr =  6.53E-07,  avg # of iterations =  4.8

     total cpu time spent up to now is      117.6 secs

     total energy              =     -55.80297493 Ry
     estimated scf accuracy    <       0.01008602 Ry

     total magnetization       =     2.26 Bohr mag/cell
     absolute magnetization    =     2.40 Bohr mag/cell

     iteration #  6     ecut=    30.00 Ry     beta= 0.50
     Davidson diagonalization with overlap
     ethr =  6.53E-07,  avg # of iterations =  2.1

     total cpu time spent up to now is      122.2 secs

     total energy              =     -55.79773069 Ry
     estimated scf accuracy    <       0.00654945 Ry

     total magnetization       =     2.28 Bohr mag/cell
     absolute magnetization    =     2.41 Bohr mag/cell

     iteration #  7     ecut=    30.00 Ry     beta= 0.50
     Davidson diagonalization with overlap
     ethr =  6.53E-07,  avg # of iterations =  4.8

     total cpu time spent up to now is      130.2 secs

     total energy              =     -55.80155751 Ry
     estimated scf accuracy    <       0.01542369 Ry

     total magnetization       =     2.43 Bohr mag/cell
     absolute magnetization    =     2.56 Bohr mag/cell

     iteration #  8     ecut=    30.00 Ry     beta= 0.50
     Davidson diagonalization with overlap
     ethr =  6.53E-07,  avg # of iterations =  3.5

     total cpu time spent up to now is      136.1 secs

     total energy              =     -55.80058393 Ry
     estimated scf accuracy    <       0.00331671 Ry

     total magnetization       =     2.41 Bohr mag/cell
     absolute magnetization    =     2.55 Bohr mag/cell

     iteration #  9     ecut=    30.00 Ry     beta= 0.50
     Davidson diagonalization with overlap
     ethr =  6.53E-07,  avg # of iterations =  3.7

     total cpu time spent up to now is      144.8 secs

     total energy              =     -55.80146236 Ry
     estimated scf accuracy    <       0.00033247 Ry

     total magnetization       =     2.35 Bohr mag/cell
     absolute magnetization    =     2.49 Bohr mag/cell

     iteration # 10     ecut=    30.00 Ry     beta= 0.50
     Davidson diagonalization with overlap
     ethr =  6.53E-07,  avg # of iterations =  2.1

     Magnetic moment per site  (integrated on atomic sphere of radius R)
     atom   1 (R=0.413)  charge=  6.3963  magn=  2.4148

     total cpu time spent up to now is      151.2 secs

     End of self-consistent calculation

 ------ SPIN UP ------------


          k = 0.0000 0.0000 0.0000 (   201 PWs)   bands (ev):

     5.1014  11.0496  11.0496  11.0496  12.2653  12.2653  38.1470  38.1470

          k = 0.0951 0.0951 0.0000 (   205 PWs)   bands (ev):

     5.6077  10.9169  11.0318  11.3166  12.1496  12.2767  35.4671  37.3786

          k = 0.1902 0.1902 0.0000 (   201 PWs)   bands (ev):

     6.9597  10.5914  10.9348  12.0369  12.0785  12.3175  30.5394  35.1552

          k = 0.2853 0.2853 0.0000 (   194 PWs)   bands (ev):

     8.2626  10.2379  11.4952  12.2546  12.3847  12.9480  25.4880  33.0552

          k = 0.3804 0.3804 0.0000 (   202 PWs)   bands (ev):

     8.5044  10.0159  12.2956  12.4411  13.6038  13.6126  21.4914  31.8771

          k = 0.1902 0.0951 0.0951 (   202 PWs)   bands (ev):

     6.5521  10.7637  10.8226  11.8788  12.0085  12.3485  32.8160  34.0353

          k = 0.2853 0.1902 0.0951 (   202 PWs)   bands (ev):

     8.0319  10.4164  10.7262  12.0431  12.4474  12.8963  28.1752  31.5435

          k = 0.3804 0.2853 0.0951 (   203 PWs)   bands (ev):

     8.7386  10.1346  11.4581  12.2608  12.6697  14.3072  23.4417  30.0728

          k = 0.4756 0.3804 0.0951 (   201 PWs)   bands (ev):

     8.7434  10.0332  11.8983  12.2998  13.0270  15.6589  20.8132  29.5354

          k = 0.3804 0.1902 0.1902 (   202 PWs)   bands (ev):

     9.1286  10.1483  10.6564  12.1243  12.6000  14.5687  26.0561  26.8746

          k = 0.4756 0.2853 0.1902 (   205 PWs)   bands (ev):

     9.3475  10.0869  10.9071  12.3142  12.7428  17.0164  22.0438  25.5197

          k = 0.5707 0.2853 0.2853 (   210 PWs)   bands (ev):

     9.7066  10.3098  10.3098  12.5590  12.5590  20.2804  20.2804  22.8569

          k = 0.1902 0.1902 0.1902 (   210 PWs)   bands (ev):

     7.7974  10.4277  10.4277  12.2463  12.2463  12.9215  30.6443  30.6443

          k = 0.2853 0.2853 0.1902 (   200 PWs)   bands (ev):

     9.0667  10.1149  10.4856  12.2960  12.3927  14.4240  26.0541  29.0143

          k = 0.3804 0.3804 0.1902 (   204 PWs)   bands (ev):

     9.1547   9.9491  11.4540  12.3871  12.4567  16.4710  21.8614  28.1358

          k =-0.0000-0.0000 0.1902 (   209 PWs)   bands (ev):

     6.0952  11.0663  11.0663  11.3172  11.8285  12.4365  34.6509  36.6567

          k = 0.3804 0.2853 0.2853 (   208 PWs)   bands (ev):

     9.6768  10.0409  10.5231  12.3891  12.4798  16.7168  24.2802  25.1351

          k = 0.4756 0.3804 0.2853 (   206 PWs)   bands (ev):

     9.6494  10.0484  10.7841  12.4520  12.5014  19.1230  21.2796  24.3390

          k = 0.0000-0.0951 0.2853 (   206 PWs)   bands (ev):

     7.3815  10.8455  10.9331  11.6576  11.9727  12.6179  30.8591  34.1818

          k =-0.0000-0.1902 0.3804 (   201 PWs)   bands (ev):

     8.5965  10.5276  10.8349  12.0270  12.8963  13.1852  25.8252  32.4388

          k = 0.0951-0.0951 0.3804 (   204 PWs)   bands (ev):

     8.6069  10.4387  10.9547  11.6844  12.5661  13.2896  28.5518  29.3940

          k = 0.0000-0.2853 0.4756 (   208 PWs)   bands (ev):

     8.7855  10.3243  11.2273  12.1232  13.5779  15.0531  21.6646  31.4858

          k = 0.0951-0.1902 0.4756 (   210 PWs)   bands (ev):

     9.2212  10.2234  10.8106  12.0282  13.0456  15.2677  24.0265  27.5463

          k =-0.7609-0.2853-0.2853 (   210 PWs)   bands (ev):

     9.1816  10.4874  10.5769  12.1212  13.3543  17.3368  21.0073  26.9774

          k =-0.6658-0.1902-0.2853 (   211 PWs)   bands (ev):

     9.8215   9.8353  10.4827  12.4520  12.9670  18.3770  22.3332  23.6418

          k = 0.3804 0.3804 0.3804 (   216 PWs)   bands (ev):

    10.0470  10.0470  10.3905  12.4765  12.4765  19.6521  23.3564  23.3564

          k = 0.0000 0.0000 0.3804 (   205 PWs)   bands (ev):

     8.3932  10.7163  11.3454  11.3454  12.0103  13.1434  31.4502  31.8335

          k =-0.0000-0.0951 0.4756 (   210 PWs)   bands (ev):

     9.1884  10.0814  11.3101  11.7734  12.7813  14.4642  26.7920  29.5889

          k = 0.0000-0.1902 0.5707 (   209 PWs)   bands (ev):

     9.2169   9.9755  11.1802  11.9489  13.4909  17.1130  22.2965  28.2404

          k = 0.0951-0.0951 0.5707 (   208 PWs)   bands (ev):

     9.4242   9.5541  11.3778  12.2684  13.1484  16.9226  24.9522  25.5097

          k =-0.7609-0.1902-0.1902 (   208 PWs)   bands (ev):

     9.2977   9.5335  11.2770  12.5597  13.3395  19.7420  21.5887  24.6680

          k =-0.0000-0.0000 0.5707 (   212 PWs)   bands (ev):

     9.2290   9.4682  12.1799  12.1799  12.8226  16.3742  27.1018  27.1018

          k = 0.0000-0.0951 0.6658 (   216 PWs)   bands (ev):

     9.0293   9.1119  12.3375  12.5684  13.3940  19.3275  23.4616  25.5940

          k =-0.7609-0.0951-0.0951 (   218 PWs)   bands (ev):

     8.8907   8.8907  12.4453  13.2699  13.2699  22.3337  22.3337  23.2784

          k = 0.0000 0.0000 0.7609 (   220 PWs)   bands (ev):

     8.6751   8.6811  13.2380  13.2380  13.3657  21.8445  23.9412  23.9412

 ------ SPIN DOWN ----------


          k = 0.0000 0.0000 0.0000 (   201 PWs)   bands (ev):

     5.2099  13.3598  13.3598  13.3598  15.4052  15.4052  37.8718  37.8718

          k = 0.0951 0.0951 0.0000 (   205 PWs)   bands (ev):

     5.7202  13.1932  13.3157  13.6556  15.2391  15.4190  35.6075  37.2582

          k = 0.1902 0.1902 0.0000 (   201 PWs)   bands (ev):

     7.1333  12.7891  13.0844  14.4616  15.0587  15.4738  31.1424  35.1982

          k = 0.2853 0.2853 0.0000 (   194 PWs)   bands (ev):

     8.9265  12.3566  12.9779  15.1437  15.5010  15.5727  26.4481  33.0813

          k = 0.3804 0.3804 0.0000 (   202 PWs)   bands (ev):

     9.8958  12.0878  13.8491  15.2607  15.6599  16.2786  22.9115  31.8569

          k = 0.1902 0.0951 0.0951 (   202 PWs)   bands (ev):

     6.6886  12.9812  13.0573  14.2596  15.0158  15.4998  33.2050  34.3889

          k = 0.2853 0.1902 0.0951 (   202 PWs)   bands (ev):

     8.3658  12.5547  12.7398  14.9586  15.2752  15.6398  28.9274  31.9859

          k = 0.3804 0.2853 0.0951 (   203 PWs)   bands (ev):

     9.8750  12.2001  12.8993  15.1403  15.6969  16.5081  24.5583  30.5038

          k = 0.4756 0.3804 0.0951 (   201 PWs)   bands (ev):

    10.2605  12.0752  13.4382  15.2274  15.8107  17.2685  22.3271  29.9493

          k = 0.3804 0.1902 0.1902 (   202 PWs)   bands (ev):

     9.9672  12.1636  12.4879  15.0048  15.6676  16.7631  26.9384  27.5782

          k = 0.4756 0.2853 0.1902 (   205 PWs)   bands (ev):

    10.9009  12.0314  12.5258  15.2104  15.6882  18.6151  23.2329  26.2710

          k = 0.5707 0.2853 0.2853 (   210 PWs)   bands (ev):

    11.5311  12.0462  12.0462  15.4675  15.4675  21.4993  21.4993  23.8337

          k = 0.1902 0.1902 0.1902 (   210 PWs)   bands (ev):

     8.0109  12.5559  12.5559  15.3121  15.3347  15.3347  31.1596  31.1596

          k = 0.2853 0.2853 0.1902 (   200 PWs)   bands (ev):

     9.7377  12.1401  12.2723  15.3393  15.5635  16.6438  26.8916  29.5522

          k = 0.3804 0.3804 0.1902 (   204 PWs)   bands (ev):

    10.6231  11.9151  12.7527  15.4199  15.6790  18.1137  23.1009  28.6603

          k =-0.0000-0.0000 0.1902 (   209 PWs)   bands (ev):

     6.2158  13.3360  13.3360  13.6611  14.8120  15.6163  34.7815  36.9276

          k = 0.3804 0.2853 0.2853 (   208 PWs)   bands (ev):

    11.0609  11.8821  12.0589  15.4829  15.6631  18.4705  25.1987  25.9082

          k = 0.4756 0.3804 0.2853 (   206 PWs)   bands (ev):

    11.3273  11.8377  12.2891  15.5605  15.6834  20.3628  22.4953  25.1477

          k = 0.0000-0.0951 0.2853 (   206 PWs)   bands (ev):

     7.5817  13.0588  13.1736  14.3874  14.4358  15.7728  31.4589  34.4499

          k =-0.0000-0.1902 0.3804 (   201 PWs)   bands (ev):

     9.3085  12.6704  12.7869  14.6823  15.4395  15.9913  26.7582  32.6858

          k = 0.0951-0.0951 0.3804 (   204 PWs)   bands (ev):

     9.0952  12.6937  13.0660  14.2872  15.1485  16.0776  29.3423  30.0250

          k = 0.0000-0.2853 0.4756 (   208 PWs)   bands (ev):

    10.2579  12.4240  12.9941  14.8998  16.2382  16.7666  23.0172  31.7115

          k = 0.0951-0.1902 0.4756 (   210 PWs)   bands (ev):

    10.4869  12.2364  12.8515  14.6517  15.7430  17.2437  25.0568  28.2467

          k =-0.7609-0.2853-0.2853 (   210 PWs)   bands (ev):

    10.8786  12.4027  12.5767  14.7913  16.0188  18.6959  22.3929  27.6617

          k =-0.6658-0.1902-0.2853 (   211 PWs)   bands (ev):

    11.5105  11.8169  12.4942  15.0757  15.6399  19.7942  23.4559  24.5116

          k = 0.3804 0.3804 0.3804 (   216 PWs)   bands (ev):

    11.7856  11.7856  11.8558  15.6961  15.6961  20.9151  24.2835  24.2835

          k = 0.0000 0.0000 0.3804 (   205 PWs)   bands (ev):

     8.7726  13.3343  13.5691  13.5691  14.4462  16.0866  32.0429  32.4984

          k =-0.0000-0.0951 0.4756 (   210 PWs)   bands (ev):

    10.1702  12.3898  13.5232  14.1358  15.3076  16.7083  27.6357  30.2420

          k = 0.0000-0.1902 0.5707 (   209 PWs)   bands (ev):

    10.9636  11.9308  13.3703  14.4004  16.1370  18.5177  23.4316  28.8257

          k = 0.0951-0.0951 0.5707 (   208 PWs)   bands (ev):

    11.0137  11.7375  13.5782  14.6652  15.7403  18.4296  25.8704  26.2188

          k =-0.7609-0.1902-0.1902 (   208 PWs)   bands (ev):

    11.3062  11.4992  13.4089  15.0185  15.9512  20.8262  22.6800  25.4069

          k =-0.0000-0.0000 0.5707 (   212 PWs)   bands (ev):

    10.7799  11.7387  14.4805  14.4805  15.3738  17.8916  27.6970  27.6970

          k = 0.0000-0.0951 0.6658 (   216 PWs)   bands (ev):

    10.9897  11.1977  14.6973  14.9360  16.0252  20.3120  24.2085  26.0807

          k =-0.7609-0.0951-0.0951 (   218 PWs)   bands (ev):

    10.9424  10.9424  14.7915  15.8471  15.8471  23.0281  23.0281  23.8445

          k = 0.0000 0.0000 0.7609 (   220 PWs)   bands (ev):

    10.7110  10.7573  15.8024  15.8024  15.9986  22.3673  24.2546  24.2546

     the Fermi energy is    13.4332 ev

!    total energy              =     -55.80152103 Ry
     estimated scf accuracy    <       0.00000006 Ry
     smearing contrib. (-TS)   =      -0.00025388 Ry
     internal energy E=F+TS    =     -55.80126715 Ry

     The total energy is F=E-TS. E is the sum of the following terms:
     one-electron contribution =       7.56276164 Ry
     hartree contribution      =       6.53349211 Ry
     xc contribution           =     -26.46041371 Ry
     ewald contribution        =     -43.43710719 Ry

     total magnetization       =     2.36 Bohr mag/cell
     absolute magnetization    =     2.50 Bohr mag/cell

     convergence has been achieved in  10 iterations

     Forces acting on atoms (cartesian axes, Ry/au):

     atom    1 type  1   force =     0.00000000    0.00000000    0.00000000
     The non-local contrib.  to forces
     atom    1 type  1   force =     0.00000000   -0.00000000    0.00000000
     The ionic contribution  to forces
     atom    1 type  1   force =    -0.00000000   -0.00000000   -0.00000000
     The local contribution  to forces
     atom    1 type  1   force =    -0.00000000   -0.00000000   -0.00000000
     The core correction contribution to forces
     atom    1 type  1   force =    -0.00000000   -0.00000000   -0.00000000
     The Hubbard contrib.    to forces
     atom    1 type  1   force =     0.00000000    0.00000000    0.00000000
     The SCF correction term to forces
     atom    1 type  1   force =     0.00000000    0.00000000    0.00000000

     Total force =     0.000000     Total SCF correction =     0.000000


     Computing stress (Cartesian axis) and pressure

          total   stress  (Ry/bohr**3)                   (kbar)     P=       27.12
   0.00018436  -0.00000000  -0.00000000           27.12       -0.00       -0.00
  -0.00000000   0.00018436  -0.00000000           -0.00       27.12       -0.00
  -0.00000000  -0.00000000   0.00018436           -0.00       -0.00       27.12

     Energy error            =      8.3E-04 Ry
     Gradient error          =      0.0E+00 Ry/Bohr
     Cell gradient error     =      2.7E+01 kbar

     number of scf cycles    =   2
     number of bfgs steps    =   1

     enthalpy           old  =     -55.8006896445 Ry
     enthalpy           new  =     -55.8015210270 Ry

     CASE: enthalpy          _new < enthalpy          _old

     new trust radius        =       0.0137170001 bohr
     new conv_thr            =       0.0000000010 Ry

     new unit-cell volume =     78.90332 a.u.^3 (    11.69227 Ang^3 )
     density =      7.93112 g/cm^3

CELL_PARAMETERS (angstrom)
  -1.429814075   1.429814075   1.429814075
   1.429814075  -1.429814075   1.429814075
   1.429814075   1.429814075  -1.429814075

ATOMIC_POSITIONS (angstrom)
Fe            0.0000000000        0.0000000000        0.0000000000



     Writing config-only to output data dir /home/gridsan/epan1/labutil/lab3_samples/problem1/Lab3/Fe_bcc_a_2.8046394196999995_ecut_30_nk_9/pwscf.save/
     NEW-OLD atomic charge density approx. for the potential
     extrapolated charge    8.18458, renormalised to    8.00000
     Generating pointlists ...

     total cpu time spent up to now is      153.9 secs

     Self-consistent Calculation

     iteration #  1     ecut=    30.00 Ry     beta= 0.50
     Davidson diagonalization with overlap
     ethr =  1.00E-06,  avg # of iterations =  4.5

     total cpu time spent up to now is      161.2 secs

     total energy              =     -55.77314006 Ry
     estimated scf accuracy    <       0.03088955 Ry

     total magnetization       =     2.27 Bohr mag/cell
     absolute magnetization    =     2.42 Bohr mag/cell

     iteration #  2     ecut=    30.00 Ry     beta= 0.50
     Davidson diagonalization with overlap
     ethr =  3.86E-04,  avg # of iterations =  2.3

     total cpu time spent up to now is      167.5 secs

     total energy              =     -55.79959598 Ry
     estimated scf accuracy    <       0.07290053 Ry

     total magnetization       =     2.51 Bohr mag/cell
     absolute magnetization    =     2.63 Bohr mag/cell

     iteration #  3     ecut=    30.00 Ry     beta= 0.50
     Davidson diagonalization with overlap
     ethr =  3.86E-04,  avg # of iterations =  1.1

     total cpu time spent up to now is      173.8 secs

     total energy              =     -55.80057470 Ry
     estimated scf accuracy    <       0.01152881 Ry

     total magnetization       =     2.44 Bohr mag/cell
     absolute magnetization    =     2.58 Bohr mag/cell

     iteration #  4     ecut=    30.00 Ry     beta= 0.50
     Davidson diagonalization with overlap
     ethr =  1.44E-04,  avg # of iterations =  1.3

     total cpu time spent up to now is      182.5 secs

     total energy              =     -55.80126096 Ry
     estimated scf accuracy    <       0.00076243 Ry

     total magnetization       =     2.42 Bohr mag/cell
     absolute magnetization    =     2.56 Bohr mag/cell

     iteration #  5     ecut=    30.00 Ry     beta= 0.50
     Davidson diagonalization with overlap
     ethr =  9.53E-06,  avg # of iterations =  3.0

     total cpu time spent up to now is      195.8 secs

     total energy              =     -55.80232893 Ry
     estimated scf accuracy    <       0.00553323 Ry

     total magnetization       =     2.42 Bohr mag/cell
     absolute magnetization    =     2.57 Bohr mag/cell

     iteration #  6     ecut=    30.00 Ry     beta= 0.50
     Davidson diagonalization with overlap
     ethr =  9.53E-06,  avg # of iterations =  1.0

     total cpu time spent up to now is      202.9 secs

     total energy              =     -55.80041793 Ry
     estimated scf accuracy    <       0.00275511 Ry

     total magnetization       =     2.44 Bohr mag/cell
     absolute magnetization    =     2.59 Bohr mag/cell

     iteration #  7     ecut=    30.00 Ry     beta= 0.50
     Davidson diagonalization with overlap
     ethr =  9.53E-06,  avg # of iterations =  2.9

     total cpu time spent up to now is      209.3 secs

     total energy              =     -55.80128839 Ry
     estimated scf accuracy    <       0.00393074 Ry

     total magnetization       =     2.50 Bohr mag/cell
     absolute magnetization    =     2.65 Bohr mag/cell

     iteration #  8     ecut=    30.00 Ry     beta= 0.50
     Davidson diagonalization with overlap
     ethr =  9.53E-06,  avg # of iterations =  2.0

     total cpu time spent up to now is      212.6 secs

     total energy              =     -55.80176482 Ry
     estimated scf accuracy    <       0.00007927 Ry

     total magnetization       =     2.48 Bohr mag/cell
     absolute magnetization    =     2.63 Bohr mag/cell

     iteration #  9     ecut=    30.00 Ry     beta= 0.50
     Davidson diagonalization with overlap
     ethr =  9.91E-07,  avg # of iterations =  2.0

     total cpu time spent up to now is      218.9 secs

     total energy              =     -55.80178515 Ry
     estimated scf accuracy    <       0.00000059 Ry

     total magnetization       =     2.48 Bohr mag/cell
     absolute magnetization    =     2.63 Bohr mag/cell

     iteration # 10     ecut=    30.00 Ry     beta= 0.50
     Davidson diagonalization with overlap
     ethr =  7.42E-09,  avg # of iterations =  4.4

     total cpu time spent up to now is      223.7 secs

     total energy              =     -55.80178650 Ry
     estimated scf accuracy    <       0.00000052 Ry

     total magnetization       =     2.48 Bohr mag/cell
     absolute magnetization    =     2.63 Bohr mag/cell

     iteration # 11     ecut=    30.00 Ry     beta= 0.50
     Davidson diagonalization with overlap
     ethr =  6.45E-09,  avg # of iterations =  1.1

     total cpu time spent up to now is      226.6 secs

     total energy              =     -55.80178615 Ry
     estimated scf accuracy    <       0.00000111 Ry

     total magnetization       =     2.48 Bohr mag/cell
     absolute magnetization    =     2.63 Bohr mag/cell

     iteration # 12     ecut=    30.00 Ry     beta= 0.50
     Davidson diagonalization with overlap
     ethr =  6.45E-09,  avg # of iterations =  1.6

     total cpu time spent up to now is      231.5 secs

     total energy              =     -55.80178634 Ry
     estimated scf accuracy    <       0.00000003 Ry

     total magnetization       =     2.48 Bohr mag/cell
     absolute magnetization    =     2.63 Bohr mag/cell

     iteration # 13     ecut=    30.00 Ry     beta= 0.50
     Davidson diagonalization with overlap
     ethr =  3.81E-10,  avg # of iterations =  4.0

     total cpu time spent up to now is      236.0 secs

     total energy              =     -55.80178635 Ry
     estimated scf accuracy    <          4.0E-09 Ry

     total magnetization       =     2.48 Bohr mag/cell
     absolute magnetization    =     2.63 Bohr mag/cell

     iteration # 14     ecut=    30.00 Ry     beta= 0.50
     Davidson diagonalization with overlap
     ethr =  4.99E-11,  avg # of iterations =  3.9

     Magnetic moment per site  (integrated on atomic sphere of radius R)
     atom   1 (R=0.413)  charge=  6.3712  magn=  2.5389

     total cpu time spent up to now is      246.9 secs

     End of self-consistent calculation

 ------ SPIN UP ------------


          k = 0.0000 0.0000 0.0000 (   201 PWs)   bands (ev):

     4.8250  10.6437  10.6437  10.6437  11.8466  11.8466  37.5239  37.5239

          k = 0.0944 0.0944 0.0000 (   205 PWs)   bands (ev):

     5.3222  10.5164  10.6281  10.9015  11.7350  11.8574  34.8084  36.7392

          k = 0.1887 0.1887 0.0000 (   201 PWs)   bands (ev):

     6.6534  10.2040  10.5443  11.5964  11.6602  11.8960  29.8649  34.5120

          k = 0.2831 0.2831 0.0000 (   194 PWs)   bands (ev):

     7.9480   9.8642  11.1062  11.8222  11.9597  12.4744  24.8363  32.4374

          k = 0.3775 0.3775 0.0000 (   202 PWs)   bands (ev):

     8.1970   9.6505  11.8647  12.0130  13.1140  13.1940  20.8573  31.2789

          k = 0.1887 0.0944 0.0944 (   202 PWs)   bands (ev):

     6.2510  10.3706  10.4305  11.4443  11.5970  11.9253  32.1583  33.3375

          k = 0.2831 0.1887 0.0944 (   202 PWs)   bands (ev):

     7.7121  10.0388  10.3460  11.6234  12.0171  12.4314  27.5126  30.8654

          k = 0.3775 0.2831 0.0944 (   203 PWs)   bands (ev):

     8.4205   9.7661  11.0688  11.8290  12.2282  13.8187  22.8051  29.4131

          k = 0.4719 0.3775 0.0944 (   201 PWs)   bands (ev):

     8.4303   9.6680  11.4957  11.8676  12.5676  15.1818  20.1808  28.8828

          k = 0.3775 0.1887 0.1887 (   202 PWs)   bands (ev):

     8.7938   9.7930  10.2743  11.6990  12.1604  14.0693  25.4286  26.1944

          k = 0.4719 0.2831 0.1887 (   205 PWs)   bands (ev):

     9.0129   9.7272  10.5318  11.8806  12.2927  16.4941  21.4276  24.8714

          k = 0.5662 0.2831 0.2831 (   210 PWs)   bands (ev):

     9.3528   9.9539   9.9539  12.1146  12.1146  19.7199  19.7199  22.1966

          k = 0.1887 0.1887 0.1887 (   210 PWs)   bands (ev):

     7.4767  10.0512  10.0512  11.8243  11.8243  12.4537  29.9913  29.9913

          k = 0.2831 0.2831 0.1887 (   200 PWs)   bands (ev):

     8.7312   9.7485  10.1128  11.8683  11.9656  13.9214  25.4101  28.3772

          k = 0.3775 0.3775 0.1887 (   204 PWs)   bands (ev):

     8.8261   9.5876  11.0537  11.9541  12.0277  15.9555  21.2376  27.5106

          k =-0.0000-0.0000 0.1887 (   209 PWs)   bands (ev):

     5.8016  10.6612  10.6612  10.9023  11.4281  12.0102  34.0300  35.9336

          k = 0.3775 0.2831 0.2831 (   208 PWs)   bands (ev):

     9.3265   9.6833  10.1482  11.9584  12.0483  16.1833  23.6732  24.4757

          k = 0.4719 0.3775 0.2831 (   206 PWs)   bands (ev):

     9.3009   9.6887  10.4036  12.0187  12.0685  18.5797  20.6726  23.6992

          k = 0.0000-0.0944 0.2831 (   206 PWs)   bands (ev):

     7.0696  10.4494  10.5477  11.2523  11.5348  12.1840  30.1880  33.5092

          k =-0.0000-0.1887 0.3775 (   201 PWs)   bands (ev):

     8.2769  10.1439  10.4693  11.6016  12.4248  12.7368  25.1719  31.7998

          k = 0.0944-0.0944 0.3775 (   204 PWs)   bands (ev):

     8.2827  10.0808  10.5581  11.2696  12.1130  12.8309  27.9000  28.6887

          k = 0.0000-0.2831 0.4719 (   208 PWs)   bands (ev):

     8.4731   9.9482  10.8522  11.6963  13.0807  14.5911  21.0343  30.6586

          k = 0.0944-0.1887 0.4719 (   210 PWs)   bands (ev):

     8.8955   9.8729  10.4277  11.6003  12.5751  14.7729  23.3913  26.8781

          k =-0.7550-0.2831-0.2831 (   210 PWs)   bands (ev):

     8.8621  10.1082  10.2231  11.6908  12.8701  16.8336  20.3840  26.3182

          k =-0.6606-0.1887-0.2831 (   211 PWs)   bands (ev):

     9.4804   9.5032  10.1116  12.0050  12.4997  17.8373  21.7424  22.9876

          k = 0.3775 0.3775 0.3775 (   216 PWs)   bands (ev):

     9.6852   9.6852  10.0191  12.0461  12.0461  19.0884  22.7604  22.7604

          k = 0.0000 0.0000 0.3775 (   205 PWs)   bands (ev):

     8.0722  10.3599  10.9325  10.9325  11.5713  12.6917  30.8314  31.0945

          k =-0.0000-0.0944 0.4719 (   210 PWs)   bands (ev):

     8.8660   9.7464  10.8990  11.3501  12.3145  13.9859  26.1311  28.8787

          k = 0.0000-0.1887 0.5662 (   209 PWs)   bands (ev):

     8.9034   9.6436  10.7741  11.5216  12.9971  16.6032  21.6748  27.5542

          k = 0.0944-0.0944 0.5662 (   208 PWs)   bands (ev):

     9.1056   9.2374  10.9663  11.8245  12.6694  16.4057  24.3248  24.8503

          k =-0.7550-0.1887-0.1887 (   208 PWs)   bands (ev):

     8.9877   9.2167  10.8686  12.1054  12.8532  19.1987  20.9815  24.0303

          k =-0.0000-0.0000 0.5662 (   212 PWs)   bands (ev):

     8.9176   9.1568  11.7380  11.7380  12.3540  15.8677  26.4346  26.4346

          k = 0.0000-0.0944 0.6606 (   216 PWs)   bands (ev):

     8.7306   8.8104  11.8893  12.1128  12.9040  18.7829  22.8485  24.9586

          k =-0.7550-0.0944-0.0944 (   218 PWs)   bands (ev):

     8.5975   8.5975  11.9935  12.7856  12.7856  21.7550  21.7550  22.6614

          k = 0.0000 0.0000 0.7550 (   220 PWs)   bands (ev):

     8.3901   8.3950  12.7547  12.7547  12.8767  21.2740  23.3446  23.3446

 ------ SPIN DOWN ----------


          k = 0.0000 0.0000 0.0000 (   201 PWs)   bands (ev):

     4.9321  13.1140  13.1140  13.1140  15.0678  15.0678  37.2268  37.2268

          k = 0.0944 0.0944 0.0000 (   205 PWs)   bands (ev):

     5.4333  12.9510  13.0690  13.4019  14.9068  15.0813  34.9467  36.6003

          k = 0.1887 0.1887 0.0000 (   201 PWs)   bands (ev):

     6.8263  12.5556  12.8296  14.1869  14.7363  15.1349  30.4875  34.5357

          k = 0.2831 0.2831 0.0000 (   194 PWs)   bands (ev):

     8.6244  12.1322  12.6792  14.8246  15.1999  15.2313  25.8354  32.4415

          k = 0.3775 0.3775 0.0000 (   202 PWs)   bands (ev):

     9.6522  11.8689  13.4523  14.9379  15.3163  15.9582  22.3491  31.2352

          k = 0.1887 0.0944 0.0944 (   202 PWs)   bands (ev):

     6.3864  12.7417  12.8130  13.9888  14.6917  15.1603  32.5517  33.7063

          k = 0.2831 0.1887 0.0944 (   202 PWs)   bands (ev):

     8.0493  12.3217  12.4853  14.6420  14.9746  15.2959  28.2913  31.3239

          k = 0.3775 0.2831 0.0944 (   203 PWs)   bands (ev):

     9.5970  11.9748  12.5832  14.8219  15.3563  16.1597  23.9713  29.8610

          k = 0.4719 0.3775 0.0944 (   201 PWs)   bands (ev):

    10.0231  11.8536  13.0783  14.9050  15.4679  16.8856  21.7756  29.3138

          k = 0.3775 0.1887 0.1887 (   202 PWs)   bands (ev):

     9.6580  11.9167  12.2406  14.6902  15.3309  16.3990  26.3399  26.9334

          k = 0.4719 0.2831 0.1887 (   205 PWs)   bands (ev):

    10.6459  11.7887  12.2313  14.8909  15.3537  18.1819  22.6718  25.6571

          k = 0.5662 0.2831 0.2831 (   210 PWs)   bands (ev):

    11.3044  11.7690  11.7690  15.1423  15.1423  20.9930  20.9930  23.2296

          k = 0.1887 0.1887 0.1887 (   210 PWs)   bands (ev):

     7.6930  12.3203  12.3203  15.0027  15.0027  15.0087  30.5186  30.5186

          k = 0.2831 0.2831 0.1887 (   200 PWs)   bands (ev):

     9.4217  11.9125  12.0202  15.0105  15.2238  16.2939  26.2809  28.9310

          k = 0.3775 0.3775 0.1887 (   204 PWs)   bands (ev):

    10.3698  11.6919  12.4359  15.0902  15.3350  17.7064  22.5389  28.0529

          k =-0.0000-0.0000 0.1887 (   209 PWs)   bands (ev):

     5.9204  13.0885  13.0885  13.4081  14.4908  15.2728  34.1396  36.2338

          k = 0.3775 0.2831 0.2831 (   208 PWs)   bands (ev):

    10.7756  11.6386  11.8062  15.1495  15.3210  18.0518  24.6301  25.2860

          k = 0.4719 0.3775 0.2831 (   206 PWs)   bands (ev):

    11.0847  11.5978  12.0007  15.2247  15.3412  19.8894  21.9528  24.5471

          k = 0.0000-0.0944 0.2831 (   206 PWs)   bands (ev):

     7.2682  12.8172  12.9171  14.1150  14.1311  15.4231  30.8041  33.7701

          k =-0.0000-0.1887 0.3775 (   201 PWs)   bands (ev):

     9.0004  12.4370  12.5029  14.3789  15.1400  15.6280  26.1411  32.0334

          k = 0.0944-0.0944 0.3775 (   204 PWs)   bands (ev):

     8.7745  12.4365  12.8169  13.9963  14.8533  15.7119  28.7105  29.3526

          k = 0.0000-0.2831 0.4719 (   208 PWs)   bands (ev):

    10.0077  12.1958  12.6574  14.5881  15.9189  16.3621  22.4528  31.0745

          k = 0.0944-0.1887 0.4719 (   210 PWs)   bands (ev):

    10.1982  11.9675  12.5976  14.3531  15.4219  16.8381  24.4631  27.6086

          k =-0.7550-0.2831-0.2831 (   210 PWs)   bands (ev):

    10.6312  12.0937  12.3378  14.4859  15.6938  18.2417  21.8398  27.0316

          k =-0.6606-0.1887-0.2831 (   211 PWs)   bands (ev):

    11.2375  11.5542  12.2399  14.7704  15.3201  19.3146  22.9045  23.9053

          k = 0.3775 0.3775 0.3775 (   216 PWs)   bands (ev):

    11.5424  11.5424  11.5808  15.3521  15.3521  20.4262  23.7330  23.7330

          k = 0.0000 0.0000 0.3775 (   205 PWs)   bands (ev):

     8.4489  13.0501  13.3107  13.3107  14.1740  15.7197  31.4089  31.8020

          k =-0.0000-0.0944 0.4719 (   210 PWs)   bands (ev):

     9.8591  12.1258  13.2657  13.8555  15.0119  16.3054  27.0064  29.5730

          k = 0.0000-0.1887 0.5662 (   209 PWs)   bands (ev):

    10.7018  11.6510  13.1165  14.1064  15.8204  18.0537  22.8605  28.1770

          k = 0.0944-0.0944 0.5662 (   208 PWs)   bands (ev):

    10.7307  11.4853  13.3131  14.3753  15.4284  17.9686  25.2742  25.5981

          k =-0.7550-0.1887-0.1887 (   208 PWs)   bands (ev):

    11.0549  11.2328  13.1453  14.7182  15.6346  20.3145  22.1222  24.8051

          k =-0.0000-0.0000 0.5662 (   212 PWs)   bands (ev):

    10.4974  11.4901  14.1965  14.1965  15.0778  17.4352  27.0676  27.0676

          k = 0.0000-0.0944 0.6606 (   216 PWs)   bands (ev):

    10.7376  10.9564  14.4103  14.6375  15.7115  19.7991  23.6289  25.4772

          k =-0.7550-0.0944-0.0944 (   218 PWs)   bands (ev):

    10.7042  10.7042  14.4992  15.5348  15.5348  22.4732  22.4732  23.2631

          k = 0.0000 0.0000 0.7550 (   220 PWs)   bands (ev):

    10.4791  10.5289  15.4915  15.4915  15.6860  21.8169  23.6798  23.6798

     the Fermi energy is    13.0624 ev

!    total energy              =     -55.80178636 Ry
     estimated scf accuracy    <          1.3E-11 Ry
     smearing contrib. (-TS)   =       0.00000076 Ry
     internal energy E=F+TS    =     -55.80178711 Ry

     The total energy is F=E-TS. E is the sum of the following terms:
     one-electron contribution =       7.09169076 Ry
     hartree contribution      =       6.66959715 Ry
     xc contribution           =     -26.46265930 Ry
     ewald contribution        =     -43.10041573 Ry

     total magnetization       =     2.48 Bohr mag/cell
     absolute magnetization    =     2.63 Bohr mag/cell

     convergence has been achieved in  14 iterations

     Forces acting on atoms (cartesian axes, Ry/au):

     atom    1 type  1   force =     0.00000000    0.00000000    0.00000000
     The non-local contrib.  to forces
     atom    1 type  1   force =     0.00000000    0.00000000    0.00000000
     The ionic contribution  to forces
     atom    1 type  1   force =    -0.00000000   -0.00000000   -0.00000000
     The local contribution  to forces
     atom    1 type  1   force =     0.00000000    0.00000000   -0.00000000
     The core correction contribution to forces
     atom    1 type  1   force =     0.00000000    0.00000000   -0.00000000
     The Hubbard contrib.    to forces
     atom    1 type  1   force =     0.00000000    0.00000000    0.00000000
     The SCF correction term to forces
     atom    1 type  1   force =    -0.00000000    0.00000000   -0.00000000

     Total force =     0.000000     Total SCF correction =     0.000000


     Computing stress (Cartesian axis) and pressure

          total   stress  (Ry/bohr**3)                   (kbar)     P=       11.52
   0.00007832   0.00000000   0.00000000           11.52        0.00        0.00
   0.00000000   0.00007832   0.00000000            0.00       11.52        0.00
   0.00000000   0.00000000   0.00007832            0.00        0.00       11.52

     Energy error            =      2.7E-04 Ry
     Gradient error          =      0.0E+00 Ry/Bohr
     Cell gradient error     =      1.2E+01 kbar

     number of scf cycles    =   3
     number of bfgs steps    =   2

     enthalpy           old  =     -55.8015210270 Ry
     enthalpy           new  =     -55.8017863557 Ry

     CASE: enthalpy          _new < enthalpy          _old

     new trust radius        =       0.0104526082 bohr
     new conv_thr            =       0.0000000010 Ry

     new unit-cell volume =     80.30425 a.u.^3 (    11.89986 Ang^3 )
     density =      7.79276 g/cm^3

CELL_PARAMETERS (angstrom)
  -1.438226604   1.438226604   1.438226604
   1.438226604  -1.438226604   1.438226604
   1.438226604   1.438226604  -1.438226604

ATOMIC_POSITIONS (angstrom)
Fe            0.0000000000        0.0000000000        0.0000000000



     Writing config-only to output data dir /home/gridsan/epan1/labutil/lab3_samples/problem1/Lab3/Fe_bcc_a_2.8046394196999995_ecut_30_nk_9/pwscf.save/
     NEW-OLD atomic charge density approx. for the potential

     Check: negative core charge=   -0.000001
     extrapolated charge    8.13955, renormalised to    8.00000
     Generating pointlists ...

     total cpu time spent up to now is      249.8 secs

     Self-consistent Calculation

     iteration #  1     ecut=    30.00 Ry     beta= 0.50
     Davidson diagonalization with overlap
     ethr =  1.00E-06,  avg # of iterations =  4.1

     total cpu time spent up to now is      255.5 secs

     total energy              =     -55.78393704 Ry
     estimated scf accuracy    <       0.01946662 Ry

     total magnetization       =     2.41 Bohr mag/cell
     absolute magnetization    =     2.57 Bohr mag/cell

     iteration #  2     ecut=    30.00 Ry     beta= 0.50
     Davidson diagonalization with overlap
     ethr =  2.43E-04,  avg # of iterations =  2.3

     total cpu time spent up to now is      260.7 secs

     total energy              =     -55.80064235 Ry
     estimated scf accuracy    <       0.04430819 Ry

     total magnetization       =     2.56 Bohr mag/cell
     absolute magnetization    =     2.70 Bohr mag/cell

     iteration #  3     ecut=    30.00 Ry     beta= 0.50
     Davidson diagonalization with overlap
     ethr =  2.43E-04,  avg # of iterations =  1.1

     total cpu time spent up to now is      267.2 secs

     total energy              =     -55.80356671 Ry
     estimated scf accuracy    <       0.00737474 Ry

     total magnetization       =     2.53 Bohr mag/cell
     absolute magnetization    =     2.68 Bohr mag/cell

     iteration #  4     ecut=    30.00 Ry     beta= 0.50
     Davidson diagonalization with overlap
     ethr =  9.22E-05,  avg # of iterations =  1.0

     total cpu time spent up to now is      271.6 secs

     total energy              =     -55.80432632 Ry
     estimated scf accuracy    <       0.00781684 Ry

     total magnetization       =     2.53 Bohr mag/cell
     absolute magnetization    =     2.68 Bohr mag/cell

     iteration #  5     ecut=    30.00 Ry     beta= 0.50
     Davidson diagonalization with overlap
     ethr =  9.22E-05,  avg # of iterations =  1.0

     total cpu time spent up to now is      278.2 secs

     total energy              =     -55.79755101 Ry
     estimated scf accuracy    <       0.01040514 Ry

     total magnetization       =     2.53 Bohr mag/cell
     absolute magnetization    =     2.68 Bohr mag/cell

     iteration #  6     ecut=    30.00 Ry     beta= 0.50
     Davidson diagonalization with overlap
     ethr =  9.22E-05,  avg # of iterations =  2.1

     total cpu time spent up to now is      282.8 secs

     total energy              =     -55.80252557 Ry
     estimated scf accuracy    <       0.00715377 Ry

     total magnetization       =     2.50 Bohr mag/cell
     absolute magnetization    =     2.65 Bohr mag/cell

     iteration #  7     ecut=    30.00 Ry     beta= 0.50
     Davidson diagonalization with overlap
     ethr =  8.94E-05,  avg # of iterations =  1.0

     total cpu time spent up to now is      288.6 secs

     total energy              =     -55.80262629 Ry
     estimated scf accuracy    <       0.00416131 Ry

     total magnetization       =     2.51 Bohr mag/cell
     absolute magnetization    =     2.66 Bohr mag/cell

     iteration #  8     ecut=    30.00 Ry     beta= 0.50
     Davidson diagonalization with overlap
     ethr =  5.20E-05,  avg # of iterations =  1.0

     total cpu time spent up to now is      292.2 secs

     total energy              =     -55.80261185 Ry
     estimated scf accuracy    <       0.00418034 Ry

     total magnetization       =     2.51 Bohr mag/cell
     absolute magnetization    =     2.66 Bohr mag/cell

     iteration #  9     ecut=    30.00 Ry     beta= 0.50
     Davidson diagonalization with overlap
     ethr =  5.20E-05,  avg # of iterations =  1.0

     total cpu time spent up to now is      295.2 secs

     total energy              =     -55.80265431 Ry
     estimated scf accuracy    <       0.00418119 Ry

     total magnetization       =     2.51 Bohr mag/cell
     absolute magnetization    =     2.66 Bohr mag/cell

     iteration # 10     ecut=    30.00 Ry     beta= 0.50
     Davidson diagonalization with overlap
     ethr =  5.20E-05,  avg # of iterations =  1.0

     total cpu time spent up to now is      298.9 secs

     total energy              =     -55.80103366 Ry
     estimated scf accuracy    <       0.00432007 Ry

     total magnetization       =     2.51 Bohr mag/cell
     absolute magnetization    =     2.66 Bohr mag/cell

     iteration # 11     ecut=    30.00 Ry     beta= 0.50
     Davidson diagonalization with overlap
     ethr =  5.20E-05,  avg # of iterations =  1.0

     total cpu time spent up to now is      304.4 secs

     total energy              =     -55.80033763 Ry
     estimated scf accuracy    <       0.00035555 Ry

     total magnetization       =     2.54 Bohr mag/cell
     absolute magnetization    =     2.70 Bohr mag/cell

     iteration # 12     ecut=    30.00 Ry     beta= 0.50
     Davidson diagonalization with overlap
     ethr =  4.44E-06,  avg # of iterations =  2.2

     negative rho (up, down):  0.000E+00 1.528E-05

     total cpu time spent up to now is      310.7 secs

     total energy              =     -55.79923541 Ry
     estimated scf accuracy    <       0.01689815 Ry

     total magnetization       =     2.53 Bohr mag/cell
     absolute magnetization    =     2.68 Bohr mag/cell

     iteration # 13     ecut=    30.00 Ry     beta= 0.50
     Davidson diagonalization with overlap
     ethr =  4.44E-06,  avg # of iterations =  3.2

     total cpu time spent up to now is      316.3 secs

     total energy              =     -55.80154326 Ry
     estimated scf accuracy    <       0.00396842 Ry

     total magnetization       =     2.56 Bohr mag/cell
     absolute magnetization    =     2.73 Bohr mag/cell

     iteration # 14     ecut=    30.00 Ry     beta= 0.50
     Davidson diagonalization with overlap
     ethr =  4.44E-06,  avg # of iterations =  2.0

     negative rho (up, down):  0.000E+00 8.864E-06

     total cpu time spent up to now is      319.2 secs

     total energy              =     -55.80148187 Ry
     estimated scf accuracy    <       0.00077793 Ry

     total magnetization       =     2.53 Bohr mag/cell
     absolute magnetization    =     2.70 Bohr mag/cell

     iteration # 15     ecut=    30.00 Ry     beta= 0.50
     Davidson diagonalization with overlap
     ethr =  4.44E-06,  avg # of iterations =  1.5

     total cpu time spent up to now is      327.6 secs

     total energy              =     -55.80127571 Ry
     estimated scf accuracy    <       0.00275098 Ry

     total magnetization       =     2.55 Bohr mag/cell
     absolute magnetization    =     2.72 Bohr mag/cell

     iteration # 16     ecut=    30.00 Ry     beta= 0.50
     Davidson diagonalization with overlap
     ethr =  4.44E-06,  avg # of iterations =  2.1

     total cpu time spent up to now is      332.2 secs

     total energy              =     -55.80179795 Ry
     estimated scf accuracy    <       0.00001265 Ry

     total magnetization       =     2.52 Bohr mag/cell
     absolute magnetization    =     2.68 Bohr mag/cell

     iteration # 17     ecut=    30.00 Ry     beta= 0.50
     Davidson diagonalization with overlap
     ethr =  1.58E-07,  avg # of iterations =  1.6

     total cpu time spent up to now is      344.6 secs

     total energy              =     -55.80180305 Ry
     estimated scf accuracy    <       0.00000185 Ry

     total magnetization       =     2.53 Bohr mag/cell
     absolute magnetization    =     2.69 Bohr mag/cell

     iteration # 18     ecut=    30.00 Ry     beta= 0.50
     Davidson diagonalization with overlap
     ethr =  2.31E-08,  avg # of iterations =  1.3

     total cpu time spent up to now is      347.1 secs

     total energy              =     -55.80180310 Ry
     estimated scf accuracy    <       0.00000200 Ry

     total magnetization       =     2.53 Bohr mag/cell
     absolute magnetization    =     2.69 Bohr mag/cell

     iteration # 19     ecut=    30.00 Ry     beta= 0.50
     Davidson diagonalization with overlap
     ethr =  2.31E-08,  avg # of iterations =  1.3

     total cpu time spent up to now is      352.6 secs

     total energy              =     -55.80180431 Ry
     estimated scf accuracy    <       0.00000195 Ry

     total magnetization       =     2.54 Bohr mag/cell
     absolute magnetization    =     2.70 Bohr mag/cell

     iteration # 20     ecut=    30.00 Ry     beta= 0.50
     Davidson diagonalization with overlap
     ethr =  2.31E-08,  avg # of iterations =  1.0

     total cpu time spent up to now is      357.4 secs

     total energy              =     -55.80180474 Ry
     estimated scf accuracy    <       0.00000006 Ry

     total magnetization       =     2.53 Bohr mag/cell
     absolute magnetization    =     2.69 Bohr mag/cell

     iteration # 21     ecut=    30.00 Ry     beta= 0.50
     Davidson diagonalization with overlap
     ethr =  7.71E-10,  avg # of iterations =  3.8

     total cpu time spent up to now is      364.3 secs

     total energy              =     -55.80180478 Ry
     estimated scf accuracy    <          7.7E-09 Ry

     total magnetization       =     2.53 Bohr mag/cell
     absolute magnetization    =     2.69 Bohr mag/cell

     iteration # 22     ecut=    30.00 Ry     beta= 0.50
     Davidson diagonalization with overlap
     ethr =  9.58E-11,  avg # of iterations =  3.6

     total cpu time spent up to now is      371.9 secs

     total energy              =     -55.80180478 Ry
     estimated scf accuracy    <          1.5E-09 Ry

     total magnetization       =     2.53 Bohr mag/cell
     absolute magnetization    =     2.69 Bohr mag/cell

     iteration # 23     ecut=    30.00 Ry     beta= 0.50
     Davidson diagonalization with overlap
     ethr =  1.83E-11,  avg # of iterations =  3.4

     total cpu time spent up to now is      376.4 secs

     total energy              =     -55.80180479 Ry
     estimated scf accuracy    <          1.6E-09 Ry

     total magnetization       =     2.53 Bohr mag/cell
     absolute magnetization    =     2.69 Bohr mag/cell

     iteration # 24     ecut=    30.00 Ry     beta= 0.50
     Davidson diagonalization with overlap
     ethr =  1.83E-11,  avg # of iterations =  1.3

     Magnetic moment per site  (integrated on atomic sphere of radius R)
     atom   1 (R=0.413)  charge=  6.3528  magn=  2.5978

     total cpu time spent up to now is      379.4 secs

     End of self-consistent calculation

 ------ SPIN UP ------------


          k = 0.0000 0.0000 0.0000 (   201 PWs)   bands (ev):

     4.6243  10.3534  10.3534  10.3534  11.5362  11.5362  37.0622  37.0622

          k = 0.0938 0.0938 0.0000 (   205 PWs)   bands (ev):

     5.1147  10.2300  10.3391  10.6044  11.4279  11.5466  34.3196  36.2641

          k = 0.1876 0.1876 0.0000 (   201 PWs)   bands (ev):

     6.4305   9.9270  10.2625  11.2808  11.3525  11.5837  29.3669  34.0334

          k = 0.2815 0.2815 0.0000 (   194 PWs)   bands (ev):

     7.7195   9.5970  10.8216  11.5069  11.6448  12.1348  24.3578  31.9778

          k = 0.3753 0.3753 0.0000 (   202 PWs)   bands (ev):

     7.9740   9.3893  11.5489  11.6960  12.7564  12.8946  20.3937  30.8340

          k = 0.1876 0.0938 0.0938 (   202 PWs)   bands (ev):

     6.0320  10.0892  10.1490  11.1331  11.2930  11.6119  31.6713  32.8202

          k = 0.2815 0.1876 0.0938 (   202 PWs)   bands (ev):

     7.4796   9.7680  10.0711  11.3157  11.6994  12.0970  27.0245  30.3636

          k = 0.3753 0.2815 0.0938 (   203 PWs)   bands (ev):

     8.1898   9.5024  10.7837  11.5137  11.9043  13.4657  22.3386  28.9250

          k = 0.4691 0.3753 0.0938 (   201 PWs)   bands (ev):

     8.2031   9.4067  11.1991  11.5512  12.2342  14.8353  19.7187  28.4001

          k = 0.3753 0.1876 0.1876 (   202 PWs)   bands (ev):

     8.5514   9.5350   9.9995  11.3880  11.8372  13.7077  24.9671  25.6946

          k = 0.4691 0.2815 0.1876 (   205 PWs)   bands (ev):

     8.7710   9.4679  10.2580  11.5637  11.9642  16.1137  20.9763  24.3955

          k = 0.5629 0.2815 0.2815 (   210 PWs)   bands (ev):

     9.0995   9.6943   9.6943  11.7907  11.7907  19.3101  19.3101  21.7133

          k = 0.1876 0.1876 0.1876 (   210 PWs)   bands (ev):

     7.2435   9.7808   9.7808  11.5127  11.5127  12.1177  29.5090  29.5090

          k = 0.2815 0.2815 0.1876 (   200 PWs)   bands (ev):

     8.4882   9.4860   9.8437  11.5537  11.6498  13.5589  24.9365  27.9071

          k = 0.3753 0.3753 0.1876 (   204 PWs)   bands (ev):

     8.5885   9.3290  10.7649  11.6361  11.7102  15.5813  20.7812  27.0496

          k =-0.0000-0.0000 0.1876 (   209 PWs)   bands (ev):

     5.5880  10.3713  10.3713  10.6054  11.1311  11.6944  33.5689  35.3984

          k = 0.3753 0.2815 0.2815 (   208 PWs)   bands (ev):

     9.0748   9.4256   9.8781  11.6413  11.7296  15.7960  23.2277  23.9914

          k = 0.4691 0.3753 0.2815 (   206 PWs)   bands (ev):

     9.0505   9.4300  10.1291  11.6997  11.7490  18.1834  20.2284  23.2301

          k = 0.0000-0.0938 0.2815 (   206 PWs)   bands (ev):

     6.8424  10.1660  10.2679  10.9557  11.2211  11.8629  29.6917  33.0107

          k =-0.0000-0.1876 0.3753 (   201 PWs)   bands (ev):

     8.0442   9.8693  10.1998  11.2923  12.0868  12.4065  24.6920  31.3248

          k = 0.0938-0.0938 0.3753 (   204 PWs)   bands (ev):

     8.0462   9.8185  10.2736  10.9689  11.7857  12.4947  27.4194  28.1698

          k = 0.0000-0.2815 0.4691 (   208 PWs)   bands (ev):

     8.2458   9.6792  10.5748  11.3848  12.7241  14.2525  20.5732  30.1171

          k = 0.0938-0.1876 0.4691 (   210 PWs)   bands (ev):

     8.6580   9.6160  10.1511  11.2900  12.2354  14.4114  22.9254  26.3870

          k =-0.7506-0.2815-0.2815 (   210 PWs)   bands (ev):

     8.6288   9.8362   9.9617  11.3781  12.5215  16.4655  19.9281  25.8340

          k =-0.6568-0.1876-0.2815 (   211 PWs)   bands (ev):

     9.2313   9.2587   9.8435  11.6820  12.1624  17.4426  21.3093  22.5086

          k = 0.3753 0.3753 0.3753 (   216 PWs)   bands (ev):

     9.4257   9.4257   9.7520  11.7277  11.7277  18.6770  22.3237  22.3237

          k = 0.0000 0.0000 0.3753 (   205 PWs)   bands (ev):

     7.8375  10.0952  10.6368  10.6368  11.2569  12.3582  30.3720  30.5523

          k =-0.0000-0.0938 0.4691 (   210 PWs)   bands (ev):

     8.6292   9.4981  10.6045  11.0452  11.9798  13.6345  25.6456  28.3587

          k = 0.0000-0.1876 0.5629 (   209 PWs)   bands (ev):

     8.6726   9.3977  10.4832  11.2128  12.6429  16.2294  21.2197  27.0522

          k = 0.0938-0.0938 0.5629 (   208 PWs)   bands (ev):

     8.8703   9.0026  10.6710  11.5055  12.3253  16.0269  23.8645  24.3672

          k =-0.7506-0.1876-0.1876 (   208 PWs)   bands (ev):

     8.7584   8.9819  10.5756  11.7787  12.5039  18.8004  20.5369  23.5632

          k = 0.0000 0.0000 0.5629 (   212 PWs)   bands (ev):

     8.6873   8.9254  11.4211  11.4211  12.0181  15.4961  25.9466  25.9466

          k = 0.0000-0.0938 0.6568 (   216 PWs)   bands (ev):

     8.5090   8.5867  11.5679  11.7857  12.5525  18.3837  22.3996  24.4941

          k =-0.7506-0.0938-0.0938 (   218 PWs)   bands (ev):

     8.3797   8.3797  11.6694  12.4381  12.4381  21.3311  21.3311  22.2100

          k = 0.0000 0.0000 0.7506 (   220 PWs)   bands (ev):

     8.1782   8.1825  12.4081  12.4081  12.5259  20.8562  22.9084  22.9084

 ------ SPIN DOWN ----------


          k = 0.0000 0.0000 0.0000 (   201 PWs)   bands (ev):

     4.7257  12.8987  12.8987  12.8987  14.7962  14.7962  36.7473  36.7473

          k = 0.0938 0.0938 0.0000 (   205 PWs)   bands (ev):

     5.2201  12.7389  12.8538  13.1805  14.6390  14.8094  34.4523  36.1109

          k = 0.1876 0.1876 0.0000 (   201 PWs)   bands (ev):

     6.5977  12.3511  12.6127  13.9489  14.4743  14.8617  29.9932  34.0434

          k = 0.2815 0.2815 0.0000 (   194 PWs)   bands (ev):

     8.3944  11.9355  12.4409  14.5624  14.9407  14.9559  25.3685  31.9672

          k = 0.3753 0.3753 0.0000 (   202 PWs)   bands (ev):

     9.4567  11.6770  13.1562  14.6725  15.0388  15.6833  21.9139  30.7752

          k = 0.1876 0.0938 0.0938 (   202 PWs)   bands (ev):

     6.1617  12.5328  12.6013  13.7543  14.4297  14.8865  32.0610  33.1934

          k = 0.2815 0.1876 0.0938 (   202 PWs)   bands (ev):

     7.8120  12.1193  12.2713  14.3833  14.7177  15.0184  27.8094  30.8265

          k = 0.3753 0.2815 0.0938 (   203 PWs)   bands (ev):

     9.3794  11.7787  12.3356  14.5600  15.0792  15.8707  23.5214  29.3782

          k = 0.4691 0.3753 0.0938 (   201 PWs)   bands (ev):

     9.8307  11.6603  12.8030  14.6402  15.1884  16.5757  21.3474  28.8366

          k = 0.3753 0.1876 0.1876 (   202 PWs)   bands (ev):

     9.4211  11.7109  12.0311  14.4316  15.0556  16.1004  25.8849  26.4453

          k = 0.4691 0.2815 0.1876 (   205 PWs)   bands (ev):

    10.4393  11.5843  11.9974  14.6279  15.0791  17.8388  22.2400  25.1919

          k = 0.5629 0.2815 0.2815 (   210 PWs)   bands (ev):

    11.1108  11.5469  11.5469  14.8742  14.8742  20.6016  20.6016  22.7683

          k = 0.1876 0.1876 0.1876 (   210 PWs)   bands (ev):

     7.4556  12.1168  12.1168  14.7337  14.7337  14.7499  30.0360  30.0360

          k = 0.2815 0.2815 0.1876 (   200 PWs)   bands (ev):

[...]
        k(   35) = (   0.0000000   0.0000000   0.7523191), wk =   0.0082305

     Dense  grid:     5017 G-vectors     FFT dimensions: (  24,  24,  24)

     Smooth grid:     1745 G-vectors     FFT dimensions: (  18,  18,  18)

     Estimated max dynamical RAM per process >       8.13 MB

     Estimated total dynamical RAM >      32.54 MB
     Generating pointlists ...

     Initial potential from superposition of free atoms

     starting charge       7.9994, renormalised to       8.0000
     Starting wfcs are    6 randomized atomic wfcs +    2 random wfcs

     total cpu time spent up to now is      520.0 secs

     Self-consistent Calculation

     iteration #  1     ecut=    30.00 Ry     beta= 0.50
     Davidson diagonalization with overlap
     c_bands:  1 eigenvalues not converged
     c_bands:  1 eigenvalues not converged
     c_bands:  1 eigenvalues not converged
     c_bands:  1 eigenvalues not converged
     c_bands:  1 eigenvalues not converged
     c_bands:  1 eigenvalues not converged
     c_bands:  1 eigenvalues not converged
     c_bands:  1 eigenvalues not converged
     c_bands:  1 eigenvalues not converged
     c_bands:  1 eigenvalues not converged
     c_bands:  1 eigenvalues not converged
     c_bands:  1 eigenvalues not converged
     ethr =  1.00E-06,  avg # of iterations = 17.3

     total cpu time spent up to now is      546.5 secs

     total energy              =     -55.66987182 Ry
     estimated scf accuracy    <       0.36243593 Ry

     total magnetization       =     2.32 Bohr mag/cell
     absolute magnetization    =     2.32 Bohr mag/cell

     iteration #  2     ecut=    30.00 Ry     beta= 0.50
     Davidson diagonalization with overlap
     ethr =  4.53E-03,  avg # of iterations =  2.0

     total cpu time spent up to now is      551.3 secs

     total energy              =     -55.77625435 Ry
     estimated scf accuracy    <       0.10633452 Ry

     total magnetization       =     2.56 Bohr mag/cell
     absolute magnetization    =     2.57 Bohr mag/cell

     iteration #  3     ecut=    30.00 Ry     beta= 0.50
     Davidson diagonalization with overlap
     ethr =  1.33E-03,  avg # of iterations =  1.0

     total cpu time spent up to now is      554.9 secs

     total energy              =     -55.79977080 Ry
     estimated scf accuracy    <       0.00177536 Ry

     total magnetization       =     2.48 Bohr mag/cell
     absolute magnetization    =     2.51 Bohr mag/cell

     iteration #  4     ecut=    30.00 Ry     beta= 0.50
     Davidson diagonalization with overlap
     ethr =  2.22E-05,  avg # of iterations =  2.1

     total cpu time spent up to now is      559.9 secs

     total energy              =     -55.80164320 Ry
     estimated scf accuracy    <       0.00028571 Ry

     total magnetization       =     2.46 Bohr mag/cell
     absolute magnetization    =     2.57 Bohr mag/cell

     iteration #  5     ecut=    30.00 Ry     beta= 0.50
     Davidson diagonalization with overlap
     ethr =  3.57E-06,  avg # of iterations =  2.9

     total cpu time spent up to now is      568.4 secs

     total energy              =     -55.80193591 Ry
     estimated scf accuracy    <       0.00003264 Ry

     total magnetization       =     2.46 Bohr mag/cell
     absolute magnetization    =     2.61 Bohr mag/cell

     iteration #  6     ecut=    30.00 Ry     beta= 0.50
     Davidson diagonalization with overlap
     ethr =  4.08E-07,  avg # of iterations =  3.1

     total cpu time spent up to now is      575.0 secs

     total energy              =     -55.80194565 Ry
     estimated scf accuracy    <       0.00001194 Ry

     total magnetization       =     2.49 Bohr mag/cell
     absolute magnetization    =     2.64 Bohr mag/cell

     iteration #  7     ecut=    30.00 Ry     beta= 0.50
     Davidson diagonalization with overlap
     ethr =  1.49E-07,  avg # of iterations =  2.3

     total cpu time spent up to now is      581.0 secs

     total energy              =     -55.80190279 Ry
     estimated scf accuracy    <       0.00003250 Ry

     total magnetization       =     2.48 Bohr mag/cell
     absolute magnetization    =     2.63 Bohr mag/cell

     iteration #  8     ecut=    30.00 Ry     beta= 0.50
     Davidson diagonalization with overlap
     ethr =  1.49E-07,  avg # of iterations =  2.3

     total cpu time spent up to now is      586.5 secs

     total energy              =     -55.80200920 Ry
     estimated scf accuracy    <       0.00000059 Ry

     total magnetization       =     2.52 Bohr mag/cell
     absolute magnetization    =     2.67 Bohr mag/cell

     iteration #  9     ecut=    30.00 Ry     beta= 0.50
     Davidson diagonalization with overlap
     ethr =  7.34E-09,  avg # of iterations =  4.5

     total cpu time spent up to now is      594.3 secs

     total energy              =     -55.80201250 Ry
     estimated scf accuracy    <       0.00000099 Ry

     total magnetization       =     2.51 Bohr mag/cell
     absolute magnetization    =     2.67 Bohr mag/cell

     iteration # 10     ecut=    30.00 Ry     beta= 0.50
     Davidson diagonalization with overlap
     ethr =  7.34E-09,  avg # of iterations =  1.9

     total cpu time spent up to now is      602.4 secs

     total energy              =     -55.80201488 Ry
     estimated scf accuracy    <          4.0E-09 Ry

     total magnetization       =     2.52 Bohr mag/cell
     absolute magnetization    =     2.67 Bohr mag/cell

     iteration # 11     ecut=    30.00 Ry     beta= 0.50
     Davidson diagonalization with overlap
     ethr =  5.05E-11,  avg # of iterations =  6.1

     Magnetic moment per site  (integrated on atomic sphere of radius R)
     atom   1 (R=0.413)  charge=  6.3599  magn=  2.5784

     total cpu time spent up to now is      612.3 secs

     End of self-consistent calculation

 ------ SPIN UP ------------


          k = 0.0000 0.0000 0.0000 (   225 PWs)   bands (ev):

     4.7026  10.4640  10.4640  10.4640  11.6568  11.6568  37.2428  37.2428

          k = 0.0940 0.0940 0.0000 (   219 PWs)   bands (ev):

     5.1957  10.3391  10.4497  10.7188  11.5472  11.6674  34.5095  36.4498

          k = 0.1881 0.1881 0.0000 (   219 PWs)   bands (ev):

     6.5175  10.0328  10.3708  11.4018  11.4717  11.7048  29.5614  34.2206

          k = 0.2821 0.2821 0.0000 (   221 PWs)   bands (ev):

     7.8077   9.6990  10.9317  11.6283  11.7667  12.2652  24.5443  32.1576

          k = 0.3762 0.3762 0.0000 (   220 PWs)   bands (ev):

     8.0603   9.4891  11.6709  11.8187  12.8936  13.0114  20.5744  31.0082

          k = 0.1881 0.0940 0.0940 (   220 PWs)   bands (ev):

     6.1175  10.1967  10.2570  11.2524  11.4109  11.7333  31.8609  33.0218

          k = 0.2821 0.1881 0.0940 (   215 PWs)   bands (ev):

     7.5701   9.8719  10.1768  11.4349  11.8225  12.2258  27.2150  30.5599

          k = 0.3762 0.2821 0.0940 (   220 PWs)   bands (ev):

     8.2790   9.6033  10.8941  11.6355  12.0295  13.6021  22.5206  29.1159

          k = 0.4702 0.3762 0.0940 (   223 PWs)   bands (ev):

     8.2910   9.5064  11.3139  11.6732  12.3627  14.9698  19.8988  28.5890

          k = 0.3762 0.1881 0.1881 (   225 PWs)   bands (ev):

     8.6450   9.6338  10.1051  11.5083  11.9619  13.8475  25.1469  25.8900

          k = 0.4702 0.2821 0.1881 (   222 PWs)   bands (ev):

     8.8643   9.5673  10.3638  11.6863  12.0909  16.2615  21.1523  24.5815

          k = 0.5642 0.2821 0.2821 (   222 PWs)   bands (ev):

     9.1966   9.7946   9.7946  11.9159  11.9159  19.4697  19.4697  21.9023

          k = 0.1881 0.1881 0.1881 (   210 PWs)   bands (ev):

     7.3346   9.8851   9.8851  11.6338  11.6338  12.2472  29.6976  29.6976

          k = 0.2821 0.2821 0.1881 (   224 PWs)   bands (ev):

     8.5822   9.5864   9.9471  11.6754  11.7718  13.6987  25.1213  28.0903

          k = 0.3762 0.3762 0.1881 (   217 PWs)   bands (ev):

     8.6804   9.4281  10.8765  11.7590  11.8332  15.7265  20.9593  27.2295

          k =-0.0000-0.0000 0.1881 (   217 PWs)   bands (ev):

     5.6714  10.4826  10.4826  10.7196  11.2466  11.8168  33.7492  35.6072

          k = 0.3762 0.2821 0.2821 (   222 PWs)   bands (ev):

     9.1715   9.5245   9.9824  11.7641  11.8531  15.9462  23.4013  24.1809

          k = 0.4702 0.3762 0.2821 (   221 PWs)   bands (ev):

     9.1468   9.5293  10.2351  11.8231  11.8726  18.3375  20.4016  23.4134

          k = 0.0000-0.0940 0.2821 (   218 PWs)   bands (ev):

     6.9311  10.2747  10.3756  11.0704  11.3414  11.9876  29.8854  33.2054

          k =-0.0000-0.1881 0.3762 (   226 PWs)   bands (ev):

     8.1341   9.9744  10.3041  11.4114  12.2164  12.5344  24.8791  31.5105

          k = 0.0940-0.0940 0.3762 (   223 PWs)   bands (ev):

     8.1379   9.9197  10.3827  11.0849  11.9116  12.6249  27.6067  28.3726

          k = 0.0000-0.2821 0.4702 (   220 PWs)   bands (ev):

     8.3338   9.7824  10.6823  11.5052  12.8611  14.3845  20.7530  30.5823

          k = 0.0940-0.1881 0.4702 (   222 PWs)   bands (ev):

     8.7500   9.7153  10.2576  11.4097  12.3662  14.5520  23.1073  26.5790

          k =-0.7523-0.2821-0.2821 (   222 PWs)   bands (ev):

     8.7190   9.9407  10.0631  11.4989  12.6555  16.6089  20.1059  26.0234

          k =-0.6583-0.1881-0.2821 (   222 PWs)   bands (ev):

     9.3278   9.3535   9.9469  11.8063  12.2921  17.5964  21.4782  22.6960

          k = 0.3762 0.3762 0.3762 (   222 PWs)   bands (ev):

     9.5257   9.5257   9.8551  11.8512  11.8512  18.8370  22.4939  22.4939

          k = 0.0000 0.0000 0.3762 (   217 PWs)   bands (ev):

     7.9288  10.1980  10.7504  10.7504  11.3779  12.4876  30.5506  30.7641

          k =-0.0000-0.0940 0.4702 (   222 PWs)   bands (ev):

     8.7213   9.5944  10.7175  11.1625  12.1083  13.7715  25.8353  28.5619

          k = 0.0000-0.1881 0.5642 (   221 PWs)   bands (ev):

     8.7620   9.4931  10.5949  11.3319  12.7790  16.3752  21.3974  27.2486

          k = 0.0940-0.0940 0.5642 (   227 PWs)   bands (ev):

     8.9616   9.0934  10.7843  11.6278  12.4574  16.1747  24.0441  24.5562

          k =-0.7523-0.1881-0.1881 (   224 PWs)   bands (ev):

     8.8472   9.0730  10.6879  11.9042  12.6382  18.9559  20.7105  23.7458

          k = 0.0000 0.0000 0.5642 (   221 PWs)   bands (ev):

     8.7767   9.0153  11.5431  11.5431  12.1470  15.6412  26.1374  26.1374

          k = 0.0000-0.0940 0.6583 (   224 PWs)   bands (ev):

     8.5950   8.6737  11.6913  11.9117  12.6877  18.5397  22.5751  24.6759

          k =-0.7523-0.0940-0.0940 (   230 PWs)   bands (ev):

     8.4641   8.4641  11.7942  12.5715  12.5715  21.4968  21.4968  22.3868

          k = 0.0000 0.0000 0.7523 (   236 PWs)   bands (ev):

     8.2603   8.2647  12.5411  12.5411  12.6609  21.0197  23.0792  23.0792

 ------ SPIN DOWN ----------


          k = 0.0000 0.0000 0.0000 (   225 PWs)   bands (ev):

     4.8072  12.9845  12.9845  12.9845  14.9039  14.9039  36.9354  36.9354

          k = 0.0940 0.0940 0.0000 (   219 PWs)   bands (ev):

     5.3043  12.8236  12.9402  13.2705  14.7452  14.9172  34.6456  36.3027

          k = 0.1881 0.1881 0.0000 (   219 PWs)   bands (ev):

     6.6880  12.4331  12.6996  14.0446  14.5782  14.9696  30.1876  34.2364

          k = 0.2821 0.2821 0.0000 (   221 PWs)   bands (ev):

     8.4851  12.0144  12.5347  14.6662  15.0449  15.0644  25.5527  32.1530

          k = 0.3762 0.3762 0.0000 (   220 PWs)   bands (ev):

     9.5349  11.7541  13.2727  14.7779  15.1481  15.7937  22.0863  30.9555

          k = 0.1881 0.0940 0.0940 (   220 PWs)   bands (ev):

     6.2504  12.6165  12.6865  13.8486  14.5335  14.9946  32.2533  33.3945

          k = 0.2821 0.1881 0.0940 (   215 PWs)   bands (ev):

     7.9057  12.2010  12.3567  14.4863  14.8211  15.1282  27.9991  31.0222

          k = 0.3762 0.2821 0.0940 (   220 PWs)   bands (ev):

     9.4658  11.8575  12.4337  14.6642  15.1886  15.9861  23.6993  29.5682

          k = 0.4702 0.3762 0.0940 (   223 PWs)   bands (ev):

     9.9076  11.7377  12.9116  14.7449  15.2989  16.6991  21.5172  29.0244

          k = 0.3762 0.1881 0.1881 (   225 PWs)   bands (ev):

     9.5148  11.7924  12.1149  14.5347  15.1641  16.2194  26.0640  26.6381

          k = 0.4702 0.2821 0.1881 (   222 PWs)   bands (ev):

    10.5218  11.6658  12.0901  14.7327  15.1878  17.9750  22.4109  25.3757

          k = 0.5642 0.2821 0.2821 (   222 PWs)   bands (ev):

    11.1886  11.6352  11.6352  14.9810  14.9810  20.7563  20.7563  22.9512

          k = 0.1881 0.1881 0.1881 (   210 PWs)   bands (ev):

     7.5494  12.1994  12.1994  14.8407  14.8407  14.8544  30.2258  30.2258

          k = 0.2821 0.2821 0.1881 (   224 PWs)   bands (ev):

     9.2762  11.7946  11.8938  14.8487  15.0572  16.1190  25.9996  28.6466

          k = 0.3762 0.3762 0.1881 (   217 PWs)   bands (ev):

    10.2471  11.5765  12.2857  14.9274  15.1668  17.5092  22.2771  27.7750

          k =-0.0000-0.0000 0.1881 (   217 PWs)   bands (ev):

     5.7876  12.9599  12.9599  13.2768  14.3349  15.1053  33.8486  35.9162

          k = 0.3762 0.2821 0.2821 (   222 PWs)   bands (ev):

    10.6391  11.5164  11.6805  14.9857  15.1535  17.8494  24.3672  25.0005

          k = 0.4702 0.3762 0.2821 (   221 PWs)   bands (ev):

    10.9642  11.4768  11.8618  15.0595  15.1734  19.6662  21.6996  24.2710

          k = 0.0000-0.0940 0.2821 (   218 PWs)   bands (ev):

     7.1270  12.6915  12.7865  13.9739  13.9815  15.2531  30.5041  33.4617

          k =-0.0000-0.1881 0.3762 (   226 PWs)   bands (ev):

     8.8586  12.3153  12.3650  14.2277  14.9856  15.4514  25.8566  31.7381

          k = 0.0940-0.0940 0.3762 (   223 PWs)   bands (ev):

     8.6285  12.3079  12.6886  13.8513  14.7021  15.5343  28.4202  29.0450

          k = 0.0000-0.2821 0.4702 (   220 PWs)   bands (ev):

     9.8873  12.0771  12.5006  14.4335  15.7552  16.1707  22.1897  30.7881

          k = 0.0940-0.1881 0.4702 (   222 PWs)   bands (ev):

    10.0627  11.8369  12.4691  14.2036  15.2597  16.6442  24.1889  27.3164

          k =-0.7523-0.2821-0.2821 (   222 PWs)   bands (ev):

    10.5111  11.9484  12.2152  14.3336  15.5292  18.0288  21.5816  26.7434

          k =-0.6583-0.1881-0.2821 (   222 PWs)   bands (ev):

    11.1064  11.4274  12.1128  14.6166  15.1588  19.0897  22.6490  23.6265

          k = 0.3762 0.3762 0.3762 (   222 PWs)   bands (ev):

    11.4210  11.4210  11.4476  15.1842  15.1842  20.1958  23.4776  23.4776

          k = 0.0000 0.0000 0.3762 (   217 PWs)   bands (ev):

     8.3023  12.9121  13.1777  13.1777  14.0334  15.5418  31.1192  31.4823

          k =-0.0000-0.0940 0.4702 (   222 PWs)   bands (ev):

     9.7162  11.9975  13.1331  13.7135  14.8597  16.1141  26.7172  29.2661

          k = 0.0000-0.1881 0.5642 (   221 PWs)   bands (ev):

    10.5766  11.5182  12.9859  13.9592  15.6579  17.8376  22.5959  27.8802

          k = 0.0940-0.0940 0.5642 (   227 PWs)   bands (ev):

    10.5978  11.3630  13.1776  14.2273  15.2689  17.7532  24.9996  25.3135

          k =-0.7523-0.1881-0.1881 (   224 PWs)   bands (ev):

    10.9338  11.1060  13.0107  14.5657  15.4730  20.0782  21.8640  24.5291

          k = 0.0000 0.0000 0.5642 (   221 PWs)   bands (ev):

    10.3652  11.3699  14.0518  14.0518  14.9251  17.2228  26.7792  26.7792

          k = 0.0000-0.0940 0.6583 (   224 PWs)   bands (ev):

    10.6174  10.8401  14.2635  14.4864  15.5506  19.5633  23.3630  25.2015

          k =-0.7523-0.0940-0.0940 (   230 PWs)   bands (ev):

    10.5895  10.5895  14.3505  15.3748  15.3748  22.2194  22.2194  22.9972

          k = 0.0000 0.0000 0.7523 (   236 PWs)   bands (ev):

    10.3672  10.4184  15.3321  15.3321  15.5256  21.5663  23.4186  23.4186

     the Fermi energy is    12.8970 ev

!    total energy              =     -55.80201497 Ry
     estimated scf accuracy    <          4.7E-10 Ry
     smearing contrib. (-TS)   =       0.00010513 Ry
     internal energy E=F+TS    =     -55.80212011 Ry

     The total energy is F=E-TS. E is the sum of the following terms:
     one-electron contribution =       6.87657243 Ry
     hartree contribution      =       6.72949620 Ry
     xc contribution           =     -26.46067859 Ry
     ewald contribution        =     -42.94751014 Ry

     total magnetization       =     2.52 Bohr mag/cell
     absolute magnetization    =     2.67 Bohr mag/cell

     convergence has been achieved in  11 iterations

     Forces acting on atoms (cartesian axes, Ry/au):

     atom    1 type  1   force =     0.00000000    0.00000000    0.00000000
     The non-local contrib.  to forces
     atom    1 type  1   force =     0.00000000    0.00000000    0.00000000
     The ionic contribution  to forces
     atom    1 type  1   force =    -0.00000000   -0.00000000   -0.00000000
     The local contribution  to forces
     atom    1 type  1   force =    -0.00000000   -0.00000000   -0.00000000
     The core correction contribution to forces
     atom    1 type  1   force =     0.00000000   -0.00000000   -0.00000000
     The Hubbard contrib.    to forces
     atom    1 type  1   force =     0.00000000    0.00000000    0.00000000
     The SCF correction term to forces
     atom    1 type  1   force =     0.00000000    0.00000000    0.00000000

     Total force =     0.000000     Total SCF correction =     0.000000


     Computing stress (Cartesian axis) and pressure

          total   stress  (Ry/bohr**3)                   (kbar)     P=       -4.31
  -0.00002932   0.00000000   0.00000000           -4.31        0.00        0.00
   0.00000000  -0.00002932  -0.00000000            0.00       -4.31       -0.00
   0.00000000  -0.00000000  -0.00002932            0.00       -0.00       -4.31


     init_run     :      2.31s CPU      5.38s WALL (       2 calls)
     electrons    :    267.19s CPU    588.82s WALL (       7 calls)
     update_pot   :      0.95s CPU      2.31s WALL (       5 calls)
     forces       :      1.38s CPU      3.91s WALL (       7 calls)
     stress       :      4.86s CPU     10.89s WALL (       7 calls)

     Called by init_run:
     wfcinit      :      1.05s CPU      2.37s WALL (       2 calls)
     potinit      :      0.33s CPU      0.81s WALL (       2 calls)
     hinit0       :      0.75s CPU      1.63s WALL (       2 calls)

     Called by electrons:
     c_bands      :    232.06s CPU    512.87s WALL (     100 calls)
     sum_band     :     20.69s CPU     44.99s WALL (     100 calls)
     v_of_rho     :      5.69s CPU     12.39s WALL (     107 calls)
     newd         :      1.52s CPU      3.44s WALL (     107 calls)
     mix_rho      :      4.15s CPU      7.65s WALL (     100 calls)

     Called by c_bands:
     init_us_2    :      0.48s CPU      1.19s WALL (   15120 calls)
     init_us_2:cp :      0.45s CPU      1.11s WALL (   15120 calls)
     cegterg      :    165.73s CPU    341.13s WALL (    7000 calls)

     Called by *egterg:
     cdiaghg      :      2.88s CPU      4.81s WALL (   22899 calls)
     h_psi        :    123.03s CPU    254.62s WALL (   23389 calls)
     s_psi        :      0.22s CPU      0.37s WALL (   23389 calls)
     g_psi        :      0.05s CPU      0.07s WALL (   16249 calls)

     Called by h_psi:
     h_psi:calbec :     13.19s CPU     25.83s WALL (   23389 calls)
     vloc_psi     :    109.47s CPU    227.94s WALL (   23389 calls)
     add_vuspsi   :      0.24s CPU      0.34s WALL (   23389 calls)

     General routines
     calbec       :     19.22s CPU     38.27s WALL (   32839 calls)
     fft          :      5.85s CPU     12.02s WALL (    2946 calls)
     ffts         :      0.60s CPU      1.34s WALL (     414 calls)
     fftw         :    121.97s CPU    255.51s WALL (  346356 calls)
     interpolate  :      0.69s CPU      1.44s WALL (     214 calls)

     Parallel routines

     PWSCF        :   4m37.96s CPU  10m14.84s WALL


   This run was terminated on:  17:35: 2   1Nov2023            

=------------------------------------------------------------------------------=
   JOB DONE.
=------------------------------------------------------------------------------=
