Header of the LAMMPS data file 

4 atoms 
1 atom types

0.0 4.047474747474747  xlo xhi
0.0 4.047474747474747  ylo yhi
0.0 4.047474747474747  zlo zhi

Masses 

1  107.8682

Atoms # atomic 

1 1 0.00000 0.00000 0.00000 
2 1 0.00000 2.02374 2.02374 
3 1 2.02374 0.00000 2.02374 
4 1 2.02374 2.02374 0.00000 
