
     Program PWSCF v.7.2 starts on  3Nov2023 at 14: 2: 1 

     This program is part of the open-source Quantum ESPRESSO suite
     for quantum simulation of materials; please cite
         "P. Giannozzi et al., J. Phys.:Condens. Matter 21 395502 (2009);
         "P. Giannozzi et al., J. Phys.:Condens. Matter 29 465901 (2017);
         "P. Giannozzi et al., J. Chem. Phys. 152 154105 (2020);
          URL http://www.quantum-espresso.org", 
     in publications or presentations arising from this work. More details at
     http://www.quantum-espresso.org/quote

     Parallel version (MPI), running on     8 processors

     MPI processes distributed on     8 nodes
     186968 MiB available memory on the printing compute node when the environment starts

     Waiting for input...
     Reading input from standard input

     Current dimensions of program PWSCF are:
     Max number of different atomic species (ntypx) = 10
     Max number of k-points (npk) =  40000
     Max angular momentum in pseudopotentials (lmaxx) =  4
     file Cu.pz-d-rrkjus.UPF: wavefunction(s)  3D renormalized
     Message from routine setup:
     using ibrav=0 with symmetry is DISCOURAGED, use correct ibrav instead

     R & G space division:  proc/nbgrp/npool/nimage =       8
     Subspace diagonalization in iterative solution of the eigenvalue problem:
     a serial algorithm will be used


     Parallelization info
     --------------------
     sticks:   dense  smooth     PW     G-vecs:    dense   smooth      PW
     Min          86      43     12                 2263      801     130
     Max          88      44     13                 2264      804     133
     Sum         697     349    101                18111     6423    1051

     Using Slab Decomposition



     bravais-lattice index     =            0
     lattice parameter (alat)  =       5.2270  a.u.
     unit-cell volume          =     187.0550 (a.u.)^3
     number of atoms/cell      =            2
     number of atomic types    =            2
     number of electrons       =        22.00
     number of Kohn-Sham states=           15
     kinetic-energy cutoff     =      40.0000  Ry
     charge density cutoff     =     320.0000  Ry
     scf convergence threshold =      1.0E-07
     mixing beta               =       0.5000
     number of iterations used =            8  plain     mixing
     energy convergence thresh.=      1.0E-04
     force convergence thresh. =      1.0E-03
     press convergence thresh. =      5.0E-01
     Exchange-correlation=  SLA  PZ   NOGX NOGC
                           (   1   1   0   0   0   0   0)
     nstep                     =           50


     celldm(1)=   5.226982  celldm(2)=   0.000000  celldm(3)=   0.000000
     celldm(4)=   0.000000  celldm(5)=   0.000000  celldm(6)=   0.000000

     crystal axes: (cart. coord. in units of alat)
               a(1) = (   1.000000   0.000000   0.000000 )  
               a(2) = (   0.000000   1.000000   0.000000 )  
               a(3) = (   0.000000   0.000000   1.309834 )  

     reciprocal axes: (cart. coord. in units 2 pi/alat)
               b(1) = (  1.000000  0.000000  0.000000 )  
               b(2) = (  0.000000  1.000000  0.000000 )  
               b(3) = (  0.000000  0.000000  0.763456 )  


     PseudoPot. # 1 for Au read from file:
     /home/gridsan/epan1/labutil/lab3_samples/pseudopotentials/Au.pz-d-rrkjus.UPF
     MD5 check sum: 424ffd4ac9c90487cbadcd287136c95b
     Pseudo is Ultrasoft, Zval = 11.0
     Generated by new atomic code, or converted to UPF format
     Using radial grid of 1279 points,  3 beta functions with: 
                l(1) =   2
                l(2) =   2
                l(3) =   1
     Q(r) pseudized with 0 coefficients 


     PseudoPot. # 2 for Cu read from file:
     /home/gridsan/epan1/labutil/lab3_samples/pseudopotentials/Cu.pz-d-rrkjus.UPF
     MD5 check sum: fd38ae683e239c95a66f426e1f8e5fc7
     Pseudo is Ultrasoft, Zval = 11.0
     Generated by new atomic code, or converted to UPF format
     Using radial grid of  899 points,  3 beta functions with: 
                l(1) =   2
                l(2) =   2
                l(3) =   1
     Q(r) pseudized with 0 coefficients 


     atomic species   valence    mass     pseudopotential
        Au            11.00   196.96657     Au( 1.00)
        Cu            11.00    63.54600     Cu( 1.00)

     Starting magnetic structure 
     atomic species   magnetization
        Au           0.700
        Cu           0.000

     16 Sym. Ops., with inversion, found



   Cartesian axes

     site n.     atom                  positions (alat units)
         1           Cu  tau(   1) = (   0.0000000   0.0000000   0.0000000  )
         2           Au  tau(   2) = (   0.5000000   0.5000000   0.6549168  )

     number of k points=     6  Methfessel-Paxton smearing, width (Ry)=  0.0200
                       cart. coord. in units 2pi/alat
        k(    1) = (   0.0000000   0.0000000   0.0000000), wk =   0.0370370
        k(    2) = (   0.0000000   0.0000000   0.2544852), wk =   0.0740741
        k(    3) = (   0.0000000   0.3333333   0.0000000), wk =   0.1481481
        k(    4) = (   0.0000000   0.3333333   0.2544852), wk =   0.2962963
        k(    5) = (   0.3333333   0.3333333   0.0000000), wk =   0.1481481
        k(    6) = (   0.3333333   0.3333333   0.2544852), wk =   0.2962963

     Dense  grid:    18111 G-vectors     FFT dimensions: (  30,  30,  40)

     Smooth grid:     6423 G-vectors     FFT dimensions: (  24,  24,  27)

     Estimated max dynamical RAM per process >       8.38 MB

     Estimated total dynamical RAM >      67.02 MB
     Generating pointlists ...
     new r_m :   0.3976 (alat units)  2.0781 (a.u.) for type    1
     new r_m :   0.3976 (alat units)  2.0781 (a.u.) for type    2

     Initial potential from superposition of free atoms

     starting charge      21.9996, renormalised to      22.0000
     Starting wfcs are   15 randomized atomic wfcs

     total cpu time spent up to now is        0.6 secs

     Self-consistent Calculation

     iteration #  1     ecut=    40.00 Ry     beta= 0.50
     Davidson diagonalization with overlap
     ethr =  1.00E-02,  avg # of iterations =  3.9

     total cpu time spent up to now is        0.8 secs

     total energy              =    -154.30841753 Ry
     estimated scf accuracy    <       0.67851108 Ry

     total magnetization       =     1.01 Bohr mag/cell
     absolute magnetization    =     1.32 Bohr mag/cell

     iteration #  2     ecut=    40.00 Ry     beta= 0.50
     Davidson diagonalization with overlap
     ethr =  3.08E-03,  avg # of iterations =  2.0

     total cpu time spent up to now is        0.9 secs

     total energy              =    -154.61444865 Ry
     estimated scf accuracy    <       0.24560183 Ry

     total magnetization       =     0.38 Bohr mag/cell
     absolute magnetization    =     0.53 Bohr mag/cell

     iteration #  3     ecut=    40.00 Ry     beta= 0.50
     Davidson diagonalization with overlap
     ethr =  1.12E-03,  avg # of iterations =  1.6

     total cpu time spent up to now is        1.0 secs

     total energy              =    -154.71014445 Ry
     estimated scf accuracy    <       0.06906438 Ry

     total magnetization       =     0.14 Bohr mag/cell
     absolute magnetization    =     0.45 Bohr mag/cell

     iteration #  4     ecut=    40.00 Ry     beta= 0.50
     Davidson diagonalization with overlap
     ethr =  3.14E-04,  avg # of iterations =  2.7

     total cpu time spent up to now is        1.1 secs

     total energy              =    -154.74352611 Ry
     estimated scf accuracy    <       0.02632600 Ry

     total magnetization       =     0.15 Bohr mag/cell
     absolute magnetization    =     0.29 Bohr mag/cell

     iteration #  5     ecut=    40.00 Ry     beta= 0.50
     Davidson diagonalization with overlap
     ethr =  1.20E-04,  avg # of iterations =  1.5

     total cpu time spent up to now is        1.3 secs

     total energy              =    -154.75036613 Ry
     estimated scf accuracy    <       0.00356584 Ry

     total magnetization       =    -0.02 Bohr mag/cell
     absolute magnetization    =     0.05 Bohr mag/cell

     iteration #  6     ecut=    40.00 Ry     beta= 0.50
     Davidson diagonalization with overlap
     ethr =  1.62E-05,  avg # of iterations =  1.9

     total cpu time spent up to now is        1.4 secs

     total energy              =    -154.75117539 Ry
     estimated scf accuracy    <       0.00006685 Ry

     total magnetization       =    -0.01 Bohr mag/cell
     absolute magnetization    =     0.03 Bohr mag/cell

     iteration #  7     ecut=    40.00 Ry     beta= 0.50
     Davidson diagonalization with overlap
     ethr =  3.04E-07,  avg # of iterations =  4.6

     total cpu time spent up to now is        1.5 secs

     total energy              =    -154.75120847 Ry
     estimated scf accuracy    <       0.00003049 Ry

     total magnetization       =     0.00 Bohr mag/cell
     absolute magnetization    =     0.01 Bohr mag/cell

     iteration #  8     ecut=    40.00 Ry     beta= 0.50
     Davidson diagonalization with overlap
     ethr =  1.39E-07,  avg # of iterations =  2.0

     total cpu time spent up to now is        1.7 secs

     total energy              =    -154.75121717 Ry
     estimated scf accuracy    <       0.00000148 Ry

     total magnetization       =    -0.00 Bohr mag/cell
     absolute magnetization    =     0.00 Bohr mag/cell

     iteration #  9     ecut=    40.00 Ry     beta= 0.50
     Davidson diagonalization with overlap
     ethr =  6.73E-09,  avg # of iterations =  1.8

     Magnetic moment per site  (integrated on atomic sphere of radius R)
     atom   1 (R=0.398)  charge= 10.0318  magn= -0.0002
     atom   2 (R=0.398)  charge=  8.8464  magn= -0.0001

     total cpu time spent up to now is        1.8 secs

     End of self-consistent calculation

 ------ SPIN UP ------------


          k = 0.0000 0.0000 0.0000 (   821 PWs)   bands (ev):

     5.5835   8.9318   8.9731  11.5322  11.5322  12.6588  12.7524  13.3986
    13.9714  14.1856  14.1856  17.9451  24.2626  26.3296  26.3296

          k = 0.0000 0.0000 0.2545 (   798 PWs)   bands (ev):

     6.8442   9.1600   9.4072  11.8444  11.8444  12.3406  12.9138  13.0013
    13.4498  13.4498  13.6812  13.7024  28.8097  28.8097  30.6669

          k = 0.0000 0.3333 0.0000 (   786 PWs)   bands (ev):

     7.8048   9.6898  10.4095  10.6061  11.9601  12.1405  12.6205  12.6358
    13.2449  13.6375  13.8022  18.4394  22.7513  25.0037  29.7069

          k = 0.0000 0.3333 0.2545 (   796 PWs)   bands (ev):

     8.3710   9.1778  10.9734  11.4919  11.5428  11.8273  12.6180  12.7996
    13.5710  13.6274  14.0835  16.5617  20.3939  24.4198  31.6142

          k = 0.3333 0.3333 0.0000 (   796 PWs)   bands (ev):

     8.9022   9.7630  10.0678  10.2040  11.8797  12.6786  13.4053  13.5569
    13.5737  13.7410  14.2541  19.3896  22.1889  25.2551  26.2159

          k = 0.3333 0.3333 0.2545 (   798 PWs)   bands (ev):

     9.3626   9.9102  10.1387  10.9089  11.6703  11.8481  12.9741  13.3559
    13.5082  13.7128  15.5904  19.3751  21.8659  23.0485  25.6404

 ------ SPIN DOWN ----------


          k = 0.0000 0.0000 0.0000 (   821 PWs)   bands (ev):

     5.5826   8.9314   8.9727  11.5316  11.5316  12.6593  12.7519  13.3990
    13.9709  14.1849  14.1849  17.9442  24.2620  26.3288  26.3288

          k = 0.0000 0.0000 0.2545 (   798 PWs)   bands (ev):

     6.8432   9.1596   9.4067  11.8439  11.8439  12.3411  12.9139  13.0008
    13.4492  13.4492  13.6810  13.7018  28.8089  28.8089  30.6661

          k = 0.0000 0.3333 0.0000 (   786 PWs)   bands (ev):

     7.8040   9.6894  10.4088  10.6057  11.9596  12.1400  12.6198  12.6363
    13.2443  13.6368  13.8027  18.4389  22.7505  25.0031  29.7062

          k = 0.0000 0.3333 0.2545 (   796 PWs)   bands (ev):

     8.3702   9.1772  10.9730  11.4913  11.5423  11.8267  12.6178  12.7997
    13.5713  13.6268  14.0829  16.5611  20.3933  24.4191  31.6134

          k = 0.3333 0.3333 0.0000 (   796 PWs)   bands (ev):

     8.9015   9.7625  10.0672  10.2033  11.8794  12.6779  13.4051  13.5574
    13.5730  13.7412  14.2534  19.3890  22.1882  25.2543  26.2153

          k = 0.3333 0.3333 0.2545 (   798 PWs)   bands (ev):

     9.3619   9.9096  10.1381  10.9083  11.6698  11.8475  12.9736  13.3565
    13.5081  13.7129  15.5896  19.3744  21.8652  23.0479  25.6397

     the Fermi energy is    15.6748 ev

!    total energy              =    -154.75121756 Ry
     estimated scf accuracy    <       0.00000005 Ry
     smearing contrib. (-TS)   =      -0.00122165 Ry
     internal energy E=F+TS    =    -154.74999591 Ry

     The total energy is F=E-TS. E is the sum of the following terms:
     one-electron contribution =      -3.81692504 Ry
     hartree contribution      =      27.61407206 Ry
     xc contribution           =     -24.57141905 Ry
     ewald contribution        =    -153.97572388 Ry

     total magnetization       =    -0.00 Bohr mag/cell
     absolute magnetization    =     0.00 Bohr mag/cell

     convergence has been achieved in   9 iterations

     Forces acting on atoms (cartesian axes, Ry/au):

     atom    1 type  2   force =     0.00000000    0.00000000    0.00000000
     atom    2 type  1   force =     0.00000000    0.00000000    0.00000000
     The non-local contrib.  to forces
     atom    1 type  2   force =     0.00000000    0.00000000    0.00000000
     atom    2 type  1   force =     0.00000000    0.00000000    0.00000000
     The ionic contribution  to forces
     atom    1 type  2   force =    -0.00000000   -0.00000000   -0.00000000
     atom    2 type  1   force =     0.00000000    0.00000000    0.00000000
     The local contribution  to forces
     atom    1 type  2   force =     0.00000000    0.00000000    0.00000000
     atom    2 type  1   force =    -0.00000000   -0.00000000   -0.00000000
     The core correction contribution to forces
     atom    1 type  2   force =     0.00000000    0.00000000    0.00000000
     atom    2 type  1   force =     0.00000000    0.00000000    0.00000000
     The Hubbard contrib.    to forces
     atom    1 type  2   force =     0.00000000    0.00000000    0.00000000
     atom    2 type  1   force =     0.00000000    0.00000000    0.00000000
     The SCF correction term to forces
     atom    1 type  2   force =    -0.00000000   -0.00000000   -0.00000000
     atom    2 type  1   force =     0.00000000   -0.00000000    0.00000000

     Total force =     0.000000     Total SCF correction =     0.000000


     Computing stress (Cartesian axis) and pressure

          total   stress  (Ry/bohr**3)                   (kbar)     P=       12.90
   0.00015106   0.00000000   0.00000000           22.22        0.00        0.00
   0.00000000   0.00015106   0.00000000            0.00       22.22        0.00
   0.00000000   0.00000000  -0.00003914            0.00        0.00       -5.76


     BFGS Geometry Optimization
     Energy error            =      0.0E+00 Ry
     Gradient error          =      0.0E+00 Ry/Bohr
     Cell gradient error     =      2.2E+01 kbar

     number of scf cycles    =   1
     number of bfgs steps    =   0

     enthalpy           new  =    -154.7512175611 Ry

     new trust radius        =       0.0103301534 bohr
     new conv_thr            =       0.0000001000 Ry

     new unit-cell volume =    188.28606 a.u.^3 (    27.90111 Ang^3 )
     density =     15.50444 g/cm^3

CELL_PARAMETERS (angstrom)
   2.776445863   0.000000000   0.000000000
   0.000000000   2.776445863   0.000000000
   0.000000000   0.000000000   3.619454630

ATOMIC_POSITIONS (angstrom)
Cu            0.0000000000        0.0000000000        0.0000000000
Au            1.3882229313        1.3882229313        1.8097273150



     Writing config-only to output data dir /home/gridsan/epan1/labutil/lab3_samples/problem3/Lab3/CuAu_a_2.766_c_3.623_ecut_40_nk_3/pwscf.save/
     NEW-OLD atomic charge density approx. for the potential
     extrapolated charge   22.14384, renormalised to   22.00000
     Generating pointlists ...

     total cpu time spent up to now is        2.3 secs

     Self-consistent Calculation

     iteration #  1     ecut=    40.00 Ry     beta= 0.50
     Davidson diagonalization with overlap
     ethr =  1.00E-06,  avg # of iterations =  3.3

     total cpu time spent up to now is        2.5 secs

     total energy              =    -154.74512748 Ry
     estimated scf accuracy    <       0.00600392 Ry

     total magnetization       =    -0.00 Bohr mag/cell
     absolute magnetization    =     0.00 Bohr mag/cell

     iteration #  2     ecut=    40.00 Ry     beta= 0.50
     Davidson diagonalization with overlap
     ethr =  2.73E-05,  avg # of iterations =  2.2

     total cpu time spent up to now is        2.6 secs

     total energy              =    -154.75080733 Ry
     estimated scf accuracy    <       0.01512866 Ry

     total magnetization       =    -0.00 Bohr mag/cell
     absolute magnetization    =     0.00 Bohr mag/cell

     iteration #  3     ecut=    40.00 Ry     beta= 0.50
     Davidson diagonalization with overlap
     ethr =  2.73E-05,  avg # of iterations =  2.0

     total cpu time spent up to now is        2.7 secs

     total energy              =    -154.75158164 Ry
     estimated scf accuracy    <       0.00214576 Ry

     total magnetization       =    -0.00 Bohr mag/cell
     absolute magnetization    =     0.00 Bohr mag/cell

     iteration #  4     ecut=    40.00 Ry     beta= 0.50
     Davidson diagonalization with overlap
     ethr =  9.75E-06,  avg # of iterations =  1.0

     total cpu time spent up to now is        2.8 secs

     total energy              =    -154.75140391 Ry
     estimated scf accuracy    <       0.00100194 Ry

     total magnetization       =    -0.00 Bohr mag/cell
     absolute magnetization    =     0.00 Bohr mag/cell

     iteration #  5     ecut=    40.00 Ry     beta= 0.50
     Davidson diagonalization with overlap
     ethr =  4.55E-06,  avg # of iterations =  1.0

     total cpu time spent up to now is        3.0 secs

     total energy              =    -154.75138064 Ry
     estimated scf accuracy    <       0.00030391 Ry

     total magnetization       =    -0.00 Bohr mag/cell
     absolute magnetization    =     0.00 Bohr mag/cell

     iteration #  6     ecut=    40.00 Ry     beta= 0.50
     Davidson diagonalization with overlap
     ethr =  1.38E-06,  avg # of iterations =  1.0

     total cpu time spent up to now is        3.1 secs

     total energy              =    -154.75136131 Ry
     estimated scf accuracy    <       0.00010954 Ry

     total magnetization       =    -0.00 Bohr mag/cell
     absolute magnetization    =     0.00 Bohr mag/cell

     iteration #  7     ecut=    40.00 Ry     beta= 0.50
     Davidson diagonalization with overlap
     ethr =  4.98E-07,  avg # of iterations =  1.0

     total cpu time spent up to now is        3.2 secs

     total energy              =    -154.75135725 Ry
     estimated scf accuracy    <       0.00002443 Ry

     total magnetization       =    -0.00 Bohr mag/cell
     absolute magnetization    =     0.00 Bohr mag/cell

     iteration #  8     ecut=    40.00 Ry     beta= 0.50
     Davidson diagonalization with overlap
     ethr =  1.11E-07,  avg # of iterations =  2.0

     total cpu time spent up to now is        3.3 secs

     total energy              =    -154.75136060 Ry
     estimated scf accuracy    <       0.00000040 Ry

     total magnetization       =    -0.00 Bohr mag/cell
     absolute magnetization    =     0.00 Bohr mag/cell

     iteration #  9     ecut=    40.00 Ry     beta= 0.50
     Davidson diagonalization with overlap
     ethr =  1.81E-09,  avg # of iterations =  2.0

     Magnetic moment per site  (integrated on atomic sphere of radius R)
     atom   1 (R=0.398)  charge= 10.0239  magn= -0.0000
     atom   2 (R=0.398)  charge=  8.8394  magn= -0.0000

     total cpu time spent up to now is        3.4 secs

     End of self-consistent calculation

 ------ SPIN UP ------------


          k = 0.0000 0.0000 0.0000 (   821 PWs)   bands (ev):

     5.5026   8.8476   8.8891  11.4094  11.4094  12.5558  12.6028  13.2829
    13.8370  14.0498  14.0498  17.8773  24.1448  26.0874  26.0874

          k = 0.0000 0.0000 0.2547 (   798 PWs)   bands (ev):

     6.7673   9.0780   9.3230  11.7126  11.7126  12.2363  12.8104  12.8504
    13.3202  13.3202  13.5691  13.5881  28.5687  28.5687  30.5757

          k = 0.0000 0.3321 0.0000 (   786 PWs)   bands (ev):

     7.7085   9.5956  10.3155  10.4924  11.8257  12.0096  12.5146  12.5266
    13.1211  13.5068  13.6709  18.2432  22.6295  24.8920  29.5405

          k = 0.0000 0.3321 0.2547 (   796 PWs)   bands (ev):

     8.2823   9.0870  10.8740  11.3614  11.4275  11.6927  12.5126  12.6892
    13.4418  13.5005  13.9537  16.4346  20.2006  24.2362  31.3461

          k = 0.3321 0.3321 0.0000 (   796 PWs)   bands (ev):

     8.8067   9.6591   9.9720  10.1119  11.7504  12.5360  13.2783  13.4294
    13.4493  13.6100  14.1229  19.2006  21.9681  25.1166  26.0727

          k = 0.3321 0.3321 0.2547 (   798 PWs)   bands (ev):

     9.2678   9.8124  10.0334  10.8068  11.5478  11.7232  12.8545  13.2362
    13.3781  13.5838  15.4485  19.2331  21.6771  22.8285  25.4277

 ------ SPIN DOWN ----------


          k = 0.0000 0.0000 0.0000 (   821 PWs)   bands (ev):

     5.5026   8.8475   8.8891  11.4094  11.4094  12.5558  12.6028  13.2829
    13.8369  14.0498  14.0498  17.8773  24.1448  26.0874  26.0874

          k = 0.0000 0.0000 0.2547 (   798 PWs)   bands (ev):

     6.7673   9.0780   9.3230  11.7126  11.7126  12.2363  12.8104  12.8504
    13.3202  13.3202  13.5691  13.5881  28.5687  28.5687  30.5757

          k = 0.0000 0.3321 0.0000 (   786 PWs)   bands (ev):

     7.7085   9.5955  10.3155  10.4924  11.8256  12.0096  12.5146  12.5266
    13.1211  13.5068  13.6708  18.2432  22.6295  24.8920  29.5405

          k = 0.0000 0.3321 0.2547 (   796 PWs)   bands (ev):

     8.2822   9.0870  10.8740  11.3614  11.4275  11.6927  12.5126  12.6892
    13.4418  13.5005  13.9536  16.4346  20.2005  24.2362  31.3461

          k = 0.3321 0.3321 0.0000 (   796 PWs)   bands (ev):

     8.8067   9.6590   9.9719  10.1118  11.7504  12.5360  13.2783  13.4294
    13.4493  13.6099  14.1229  19.2006  21.9681  25.1166  26.0727

          k = 0.3321 0.3321 0.2547 (   798 PWs)   bands (ev):

     9.2678   9.8124  10.0334  10.8068  11.5478  11.7232  12.8545  13.2362
    13.3781  13.5838  15.4485  19.2331  21.6771  22.8285  25.4277

     the Fermi energy is    15.5333 ev

!    total energy              =    -154.75136073 Ry
     estimated scf accuracy    <       0.00000006 Ry
     smearing contrib. (-TS)   =      -0.00122191 Ry
     internal energy E=F+TS    =    -154.75013882 Ry

     The total energy is F=E-TS. E is the sum of the following terms:
     one-electron contribution =      -4.30776749 Ry
     hartree contribution      =      27.75782531 Ry
     xc contribution           =     -24.56147305 Ry
     ewald contribution        =    -153.63872359 Ry

     total magnetization       =    -0.00 Bohr mag/cell
     absolute magnetization    =     0.00 Bohr mag/cell

     convergence has been achieved in   9 iterations

     Forces acting on atoms (cartesian axes, Ry/au):

     atom    1 type  2   force =     0.00000000    0.00000000    0.00000000
     atom    2 type  1   force =     0.00000000    0.00000000    0.00000000
     The non-local contrib.  to forces
     atom    1 type  2   force =     0.00000000    0.00000000    0.00000000
     atom    2 type  1   force =     0.00000000    0.00000000    0.00000000
     The ionic contribution  to forces
     atom    1 type  2   force =    -0.00000000   -0.00000000   -0.00000000
     atom    2 type  1   force =    -0.00000000   -0.00000000   -0.00000000
     The local contribution  to forces
     atom    1 type  2   force =     0.00000000    0.00000000   -0.00000000
     atom    2 type  1   force =    -0.00000000   -0.00000000    0.00000000
     The core correction contribution to forces
     atom    1 type  2   force =     0.00000000    0.00000000    0.00000000
     atom    2 type  1   force =     0.00000000    0.00000000    0.00000000
     The Hubbard contrib.    to forces
     atom    1 type  2   force =     0.00000000    0.00000000    0.00000000
     atom    2 type  1   force =     0.00000000    0.00000000    0.00000000
     The SCF correction term to forces
     atom    1 type  2   force =    -0.00000000    0.00000000    0.00000000
     atom    2 type  1   force =    -0.00000000   -0.00000000   -0.00000000

     Total force =     0.000000     Total SCF correction =     0.000000


     Computing stress (Cartesian axis) and pressure

          total   stress  (Ry/bohr**3)                   (kbar)     P=       -4.07
   0.00001876   0.00000000   0.00000000            2.76        0.00        0.00
   0.00000000   0.00001876   0.00000000            0.00        2.76        0.00
   0.00000000   0.00000000  -0.00012054            0.00        0.00      -17.73

     Energy error            =      1.4E-04 Ry
     Gradient error          =      0.0E+00 Ry/Bohr
     Cell gradient error     =      1.8E+01 kbar

     number of scf cycles    =   2
     number of bfgs steps    =   1

     enthalpy           old  =    -154.7512175611 Ry
     enthalpy           new  =    -154.7513607303 Ry

     CASE: enthalpy          _new < enthalpy          _old

     new trust radius        =       0.0119473262 bohr
     new conv_thr            =       0.0000000010 Ry

     new unit-cell volume =    188.34152 a.u.^3 (    27.90933 Ang^3 )
     density =     15.49988 g/cm^3

CELL_PARAMETERS (angstrom)
   2.782918992   0.000000000   0.000000000
   0.000000000   2.782918992   0.000000000
   0.000000000   0.000000000   3.603697585

ATOMIC_POSITIONS (angstrom)
Cu            0.0000000000        0.0000000000        0.0000000000
Au            1.3914594962        1.3914594962        1.8018487924



     Writing config-only to output data dir /home/gridsan/epan1/labutil/lab3_samples/problem3/Lab3/CuAu_a_2.766_c_3.623_ecut_40_nk_3/pwscf.save/
     NEW-OLD atomic charge density approx. for the potential
     extrapolated charge   22.00648, renormalised to   22.00000
     Generating pointlists ...

     total cpu time spent up to now is        4.0 secs

     Self-consistent Calculation

     iteration #  1     ecut=    40.00 Ry     beta= 0.50
     Davidson diagonalization with overlap
     ethr =  1.00E-06,  avg # of iterations =  3.8

     Threshold (ethr) on eigenvalues was too large:
     Diagonalizing with lowered threshold

     Davidson diagonalization with overlap
     ethr =  1.34E-08,  avg # of iterations =  2.0

     total cpu time spent up to now is        4.2 secs

     total energy              =    -154.75144533 Ry
     estimated scf accuracy    <       0.00000301 Ry

     total magnetization       =    -0.00 Bohr mag/cell
     absolute magnetization    =     0.00 Bohr mag/cell

     iteration #  2     ecut=    40.00 Ry     beta= 0.50
     Davidson diagonalization with overlap
     ethr =  1.37E-08,  avg # of iterations =  2.8

     total cpu time spent up to now is        4.4 secs

     total energy              =    -154.75145096 Ry
     estimated scf accuracy    <       0.00001381 Ry

     total magnetization       =    -0.00 Bohr mag/cell
     absolute magnetization    =     0.00 Bohr mag/cell

     iteration #  3     ecut=    40.00 Ry     beta= 0.50
     Davidson diagonalization with overlap
     ethr =  1.37E-08,  avg # of iterations =  2.0

     total cpu time spent up to now is        4.5 secs

     total energy              =    -154.75145062 Ry
     estimated scf accuracy    <       0.00000412 Ry

     total magnetization       =    -0.00 Bohr mag/cell
     absolute magnetization    =     0.00 Bohr mag/cell

     iteration #  4     ecut=    40.00 Ry     beta= 0.50
     Davidson diagonalization with overlap
     ethr =  1.37E-08,  avg # of iterations =  1.0

     total cpu time spent up to now is        4.6 secs

     total energy              =    -154.75144985 Ry
     estimated scf accuracy    <       0.00000160 Ry

     total magnetization       =    -0.00 Bohr mag/cell
     absolute magnetization    =     0.00 Bohr mag/cell

     iteration #  5     ecut=    40.00 Ry     beta= 0.50
     Davidson diagonalization with overlap
     ethr =  7.29E-09,  avg # of iterations =  2.0

     total cpu time spent up to now is        4.7 secs

     total energy              =    -154.75145030 Ry
     estimated scf accuracy    <       0.00000024 Ry

     total magnetization       =    -0.00 Bohr mag/cell
     absolute magnetization    =     0.00 Bohr mag/cell

     iteration #  6     ecut=    40.00 Ry     beta= 0.50
     Davidson diagonalization with overlap
     ethr =  1.08E-09,  avg # of iterations =  2.0

     Magnetic moment per site  (integrated on atomic sphere of radius R)
     atom   1 (R=0.398)  charge= 10.0257  magn= -0.0000
     atom   2 (R=0.398)  charge=  8.8383  magn= -0.0000

     total cpu time spent up to now is        4.8 secs

     End of self-consistent calculation

 ------ SPIN UP ------------


          k = 0.0000 0.0000 0.0000 (   821 PWs)   bands (ev):

     5.5001   8.8511   8.8927  11.3944  11.3944  12.5664  12.5724  13.2944
    13.8338  14.0478  14.0478  17.9727  24.2605  25.9903  25.9903

          k = 0.0000 0.0000 0.2558 (   798 PWs)   bands (ev):

     6.7779   9.0886   9.3358  11.6910  11.6910  12.2446  12.8179  12.8357
    13.3127  13.3127  13.5613  13.6328  28.4964  28.4964  30.7286

          k = 0.0000 0.3313 0.0000 (   786 PWs)   bands (ev):

     7.6983   9.5961  10.3276  10.4744  11.8023  11.9933  12.5261  12.5331
    13.1164  13.5020  13.6668  18.1862  22.6966  24.9983  29.5748

          k = 0.0000 0.3313 0.2558 (   796 PWs)   bands (ev):

     8.2827   9.0882  10.8840  11.3339  11.4207  11.6655  12.5256  12.6954
    13.4370  13.5003  13.9579  16.4534  20.1707  24.2362  31.2569

          k = 0.3313 0.3313 0.0000 (   796 PWs)   bands (ev):

     8.7979   9.6452   9.9739  10.1217  11.7286  12.5058  13.2713  13.4256
    13.4518  13.6054  14.1273  19.1460  21.9172  25.1734  26.1226

          k = 0.3313 0.3313 0.2558 (   798 PWs)   bands (ev):

     9.2645   9.8107  10.0241  10.8092  11.5312  11.7027  12.8588  13.2384
    13.3730  13.5807  15.4497  19.2593  21.6458  22.7721  25.3940

 ------ SPIN DOWN ----------


          k = 0.0000 0.0000 0.0000 (   821 PWs)   bands (ev):

     5.5001   8.8511   8.8927  11.3944  11.3944  12.5664  12.5724  13.2944
    13.8338  14.0478  14.0478  17.9727  24.2605  25.9903  25.9903

          k = 0.0000 0.0000 0.2558 (   798 PWs)   bands (ev):

     6.7779   9.0886   9.3358  11.6910  11.6910  12.2446  12.8179  12.8357
    13.3127  13.3127  13.5613  13.6328  28.4964  28.4964  30.7286

          k = 0.0000 0.3313 0.0000 (   786 PWs)   bands (ev):

     7.6983   9.5961  10.3276  10.4744  11.8023  11.9933  12.5261  12.5331
    13.1164  13.5020  13.6668  18.1862  22.6966  24.9983  29.5748

          k = 0.0000 0.3313 0.2558 (   796 PWs)   bands (ev):

     8.2827   9.0882  10.8840  11.3339  11.4207  11.6655  12.5256  12.6954
    13.4370  13.5003  13.9579  16.4534  20.1707  24.2362  31.2569

          k = 0.3313 0.3313 0.0000 (   796 PWs)   bands (ev):

     8.7979   9.6452   9.9739  10.1217  11.7286  12.5058  13.2713  13.4256
    13.4518  13.6054  14.1273  19.1460  21.9172  25.1734  26.1226

          k = 0.3313 0.3313 0.2558 (   798 PWs)   bands (ev):

     9.2645   9.8107  10.0241  10.8092  11.5312  11.7027  12.8588  13.2384
    13.3730  13.5807  15.4497  19.2593  21.6458  22.7721  25.3940

     the Fermi energy is    15.5344 ev

!    total energy              =    -154.75145035 Ry
     estimated scf accuracy    <          1.5E-10 Ry
     smearing contrib. (-TS)   =      -0.00122212 Ry
     internal energy E=F+TS    =    -154.75022823 Ry

     The total energy is F=E-TS. E is the sum of the following terms:
     one-electron contribution =      -4.33588152 Ry
     hartree contribution      =      27.76997566 Ry
     xc contribution           =     -24.56162253 Ry
     ewald contribution        =    -153.62269983 Ry

     total magnetization       =    -0.00 Bohr mag/cell
     absolute magnetization    =     0.00 Bohr mag/cell

     convergence has been achieved in   6 iterations

     Forces acting on atoms (cartesian axes, Ry/au):

     atom    1 type  2   force =     0.00000000    0.00000000    0.00000000
     atom    2 type  1   force =     0.00000000    0.00000000    0.00000000
     The non-local contrib.  to forces
     atom    1 type  2   force =     0.00000000    0.00000000    0.00000000
     atom    2 type  1   force =     0.00000000    0.00000000    0.00000000
     The ionic contribution  to forces
     atom    1 type  2   force =    -0.00000000   -0.00000000   -0.00000000
     atom    2 type  1   force =    -0.00000000   -0.00000000   -0.00000000
     The local contribution  to forces
     atom    1 type  2   force =     0.00000000    0.00000000    0.00000000
     atom    2 type  1   force =    -0.00000000   -0.00000000   -0.00000000
     The core correction contribution to forces
     atom    1 type  2   force =     0.00000000    0.00000000    0.00000000
     atom    2 type  1   force =     0.00000000    0.00000000    0.00000000
     The Hubbard contrib.    to forces
     atom    1 type  2   force =     0.00000000    0.00000000    0.00000000
     atom    2 type  1   force =     0.00000000    0.00000000    0.00000000
     The SCF correction term to forces
     atom    1 type  2   force =     0.00000000    0.00000000    0.00000000
     atom    2 type  1   force =    -0.00000000   -0.00000000    0.00000000

     Total force =     0.000000     Total SCF correction =     0.000000


     Computing stress (Cartesian axis) and pressure

          total   stress  (Ry/bohr**3)                   (kbar)     P=       -2.58
   0.00000965   0.00000000   0.00000000            1.42        0.00        0.00
   0.00000000   0.00000965   0.00000000            0.00        1.42        0.00
   0.00000000   0.00000000  -0.00007201            0.00        0.00      -10.59

     Energy error            =      9.0E-05 Ry
     Gradient error          =      0.0E+00 Ry/Bohr
     Cell gradient error     =      1.1E+01 kbar

     number of scf cycles    =   3
     number of bfgs steps    =   2

     enthalpy           old  =    -154.7513607303 Ry
     enthalpy           new  =    -154.7514503467 Ry

     CASE: enthalpy          _new < enthalpy          _old

     new trust radius        =       0.0132014659 bohr
     new conv_thr            =       0.0000000010 Ry

     new unit-cell volume =    188.37056 a.u.^3 (    27.91364 Ang^3 )
     density =     15.49749 g/cm^3

CELL_PARAMETERS (angstrom)
   2.789850787   0.000000000   0.000000000
   0.000000000   2.789850787   0.000000000
   0.000000000   0.000000000   3.586364835

ATOMIC_POSITIONS (angstrom)
Cu            0.0000000000        0.0000000000        0.0000000000
Au            1.3949253935        1.3949253935        1.7931824175



     Writing config-only to output data dir /home/gridsan/epan1/labutil/lab3_samples/problem3/Lab3/CuAu_a_2.766_c_3.623_ecut_40_nk_3/pwscf.save/
     NEW-OLD atomic charge density approx. for the potential
     extrapolated charge   22.00339, renormalised to   22.00000
     Generating pointlists ...

     total cpu time spent up to now is        5.4 secs

     Self-consistent Calculation

     iteration #  1     ecut=    40.00 Ry     beta= 0.50
     Davidson diagonalization with overlap
     ethr =  1.00E-06,  avg # of iterations =  3.8

     Threshold (ethr) on eigenvalues was too large:
     Diagonalizing with lowered threshold

     Davidson diagonalization with overlap
     ethr =  4.68E-09,  avg # of iterations =  2.8

     total cpu time spent up to now is        5.7 secs

     total energy              =    -154.75149536 Ry
     estimated scf accuracy    <       0.00000106 Ry

     total magnetization       =    -0.00 Bohr mag/cell
     absolute magnetization    =     0.00 Bohr mag/cell

     iteration #  2     ecut=    40.00 Ry     beta= 0.50
     Davidson diagonalization with overlap
     ethr =  4.83E-09,  avg # of iterations =  2.0

     total cpu time spent up to now is        5.8 secs

     total energy              =    -154.75149636 Ry
     estimated scf accuracy    <       0.00000231 Ry

     total magnetization       =    -0.00 Bohr mag/cell
     absolute magnetization    =     0.00 Bohr mag/cell

     iteration #  3     ecut=    40.00 Ry     beta= 0.50
     Davidson diagonalization with overlap
     ethr =  4.83E-09,  avg # of iterations =  1.2

     total cpu time spent up to now is        5.9 secs

     total energy              =    -154.75149623 Ry
     estimated scf accuracy    <       0.00000072 Ry

     total magnetization       =    -0.00 Bohr mag/cell
     absolute magnetization    =     0.00 Bohr mag/cell

     iteration #  4     ecut=    40.00 Ry     beta= 0.50
     Davidson diagonalization with overlap
     ethr =  3.25E-09,  avg # of iterations =  1.7

     total cpu time spent up to now is        6.0 secs

     total energy              =    -154.75149619 Ry
     estimated scf accuracy    <       0.00000020 Ry

     total magnetization       =    -0.00 Bohr mag/cell
     absolute magnetization    =     0.00 Bohr mag/cell

     iteration #  5     ecut=    40.00 Ry     beta= 0.50
     Davidson diagonalization with overlap
     ethr =  8.89E-10,  avg # of iterations =  2.0

     total cpu time spent up to now is        6.1 secs

     total energy              =    -154.75149624 Ry
     estimated scf accuracy    <       0.00000006 Ry

     total magnetization       =    -0.00 Bohr mag/cell
     absolute magnetization    =     0.00 Bohr mag/cell

     iteration #  6     ecut=    40.00 Ry     beta= 0.50
     Davidson diagonalization with overlap
     ethr =  2.80E-10,  avg # of iterations =  2.0

     total cpu time spent up to now is        6.3 secs

     total energy              =    -154.75149625 Ry
     estimated scf accuracy    <          2.2E-09 Ry

     total magnetization       =    -0.00 Bohr mag/cell
     absolute magnetization    =     0.00 Bohr mag/cell

     iteration #  7     ecut=    40.00 Ry     beta= 0.50
     Davidson diagonalization with overlap
     ethr =  9.83E-12,  avg # of iterations =  1.2

     Magnetic moment per site  (integrated on atomic sphere of radius R)
     atom   1 (R=0.398)  charge= 10.0276  magn= -0.0000
     atom   2 (R=0.398)  charge=  8.8371  magn= -0.0000

     total cpu time spent up to now is        6.4 secs

     End of self-consistent calculation

 ------ SPIN UP ------------


          k = 0.0000 0.0000 0.0000 (   821 PWs)   bands (ev):

     5.4995   8.8572   8.8991  11.3821  11.3821  12.5304  12.5945  13.3105
    13.8350  14.0500  14.0500  18.0816  24.3926  25.8892  25.8892

          k = 0.0000 0.0000 0.2571 (   798 PWs)   bands (ev):

     6.7919   9.1025   9.3523  11.6712  11.6712  12.2577  12.7863  12.8664
    13.3087  13.3087  13.5574  13.6869  28.4232  28.4232  30.8997

          k = 0.0000 0.3305 0.0000 (   786 PWs)   bands (ev):

     7.6895   9.5992  10.3440  10.4578  11.7801  11.9796  12.5427  12.5440
    13.1154  13.5012  13.6664  18.1283  22.7757  25.1198  29.6167

          k = 0.0000 0.3305 0.2571 (   796 PWs)   bands (ev):

     8.2857   9.0920  10.8977  11.3075  11.4166  11.6395  12.5437  12.7065
    13.4360  13.5044  13.9670  16.4781  20.1434  24.2419  31.1657

          k = 0.3305 0.3305 0.0000 (   796 PWs)   bands (ev):

     8.7906   9.6329   9.9795  10.1357  11.7083  12.4761  13.2677  13.4258
    13.4586  13.6042  14.1362  19.0907  21.8658  25.2415  26.1795

          k = 0.3305 0.3305 0.2571 (   798 PWs)   bands (ev):

     9.2634   9.8116  10.0170  10.8152  11.5166  11.6838  12.8677  13.2453
    13.3716  13.5814  15.4553  19.2928  21.6164  22.7155  25.3630

 ------ SPIN DOWN ----------


          k = 0.0000 0.0000 0.0000 (   821 PWs)   bands (ev):

     5.4995   8.8572   8.8991  11.3821  11.3821  12.5304  12.5945  13.3105
    13.8350  14.0500  14.0500  18.0816  24.3926  25.8892  25.8892

          k = 0.0000 0.0000 0.2571 (   798 PWs)   bands (ev):

     6.7919   9.1025   9.3523  11.6712  11.6712  12.2577  12.7863  12.8664
    13.3087  13.3087  13.5574  13.6869  28.4232  28.4232  30.8997

          k = 0.0000 0.3305 0.0000 (   786 PWs)   bands (ev):

     7.6895   9.5992  10.3440  10.4578  11.7801  11.9796  12.5427  12.5440
    13.1154  13.5012  13.6664  18.1283  22.7757  25.1197  29.6167

          k = 0.0000 0.3305 0.2571 (   796 PWs)   bands (ev):

     8.2857   9.0920  10.8977  11.3075  11.4166  11.6395  12.5437  12.7065
    13.4360  13.5044  13.9670  16.4781  20.1434  24.2419  31.1657

          k = 0.3305 0.3305 0.0000 (   796 PWs)   bands (ev):

     8.7906   9.6329   9.9795  10.1357  11.7083  12.4761  13.2677  13.4258
    13.4586  13.6042  14.1362  19.0907  21.8658  25.2415  26.1795

          k = 0.3305 0.3305 0.2571 (   798 PWs)   bands (ev):

     9.2634   9.8116  10.0170  10.8152  11.5166  11.6838  12.8677  13.2453
    13.3716  13.5814  15.4553  19.2928  21.6164  22.7155  25.3630

     the Fermi energy is    15.5401 ev

!    total energy              =    -154.75149625 Ry
     estimated scf accuracy    <          1.6E-10 Ry
     smearing contrib. (-TS)   =      -0.00122228 Ry
     internal energy E=F+TS    =    -154.75027398 Ry

     The total energy is F=E-TS. E is the sum of the following terms:
     one-electron contribution =      -4.35272473 Ry
     hartree contribution      =      27.77805081 Ry
     xc contribution           =     -24.56177266 Ry
     ewald contribution        =    -153.61382739 Ry

     total magnetization       =    -0.00 Bohr mag/cell
     absolute magnetization    =     0.00 Bohr mag/cell

     convergence has been achieved in   7 iterations

     Forces acting on atoms (cartesian axes, Ry/au):

     atom    1 type  2   force =     0.00000000    0.00000000    0.00000000
     atom    2 type  1   force =     0.00000000    0.00000000    0.00000000
     The non-local contrib.  to forces
     atom    1 type  2   force =     0.00000000    0.00000000    0.00000000
     atom    2 type  1   force =     0.00000000    0.00000000    0.00000000
     The ionic contribution  to forces
     atom    1 type  2   force =    -0.00000000   -0.00000000   -0.00000000
     atom    2 type  1   force =    -0.00000000   -0.00000000   -0.00000000
     The local contribution  to forces
     atom    1 type  2   force =     0.00000000   -0.00000000   -0.00000000
     atom    2 type  1   force =    -0.00000000   -0.00000000    0.00000000
     The core correction contribution to forces
     atom    1 type  2   force =     0.00000000    0.00000000    0.00000000
     atom    2 type  1   force =     0.00000000    0.00000000    0.00000000
     The Hubbard contrib.    to forces
     atom    1 type  2   force =     0.00000000    0.00000000    0.00000000
     atom    2 type  1   force =     0.00000000    0.00000000    0.00000000
     The SCF correction term to forces
     atom    1 type  2   force =    -0.00000000    0.00000000    0.00000000
     atom    2 type  1   force =    -0.00000000   -0.00000000    0.00000000

     Total force =     0.000000     Total SCF correction =     0.000000


     Computing stress (Cartesian axis) and pressure

          total   stress  (Ry/bohr**3)                   (kbar)     P=       -3.23
  -0.00001502   0.00000000   0.00000000           -2.21        0.00        0.00
   0.00000000  -0.00001502   0.00000000            0.00       -2.21        0.00
   0.00000000   0.00000000  -0.00003573            0.00        0.00       -5.26

     Energy error            =      4.6E-05 Ry
     Gradient error          =      0.0E+00 Ry/Bohr
     Cell gradient error     =      5.3E+00 kbar

     number of scf cycles    =   4
     number of bfgs steps    =   3

     enthalpy           old  =    -154.7514503467 Ry
     enthalpy           new  =    -154.7514962527 Ry

     CASE: enthalpy          _new < enthalpy          _old

     new trust radius        =       0.0057075322 bohr
     new conv_thr            =       0.0000000010 Ry

     new unit-cell volume =    188.15684 a.u.^3 (    27.88197 Ang^3 )
     density =     15.51509 g/cm^3

CELL_PARAMETERS (angstrom)
   2.791171035   0.000000000   0.000000000
   0.000000000   2.791171035   0.000000000
   0.000000000   0.000000000   3.578907797

ATOMIC_POSITIONS (angstrom)
Cu            0.0000000000        0.0000000000        0.0000000000
Au            1.3955855173        1.3955855173        1.7894538987



     Writing config-only to output data dir /home/gridsan/epan1/labutil/lab3_samples/problem3/Lab3/CuAu_a_2.766_c_3.623_ecut_40_nk_3/pwscf.save/
     NEW-OLD atomic charge density approx. for the potential
     extrapolated charge   21.97501, renormalised to   22.00000
     Generating pointlists ...

     total cpu time spent up to now is        6.9 secs

     Self-consistent Calculation

     iteration #  1     ecut=    40.00 Ry     beta= 0.50
     Davidson diagonalization with overlap
     ethr =  1.00E-06,  avg # of iterations =  3.0

     total cpu time spent up to now is        7.0 secs

     total energy              =    -154.75132216 Ry
     estimated scf accuracy    <       0.00017898 Ry

     total magnetization       =    -0.00 Bohr mag/cell
     absolute magnetization    =     0.00 Bohr mag/cell

     iteration #  2     ecut=    40.00 Ry     beta= 0.50
     Davidson diagonalization with overlap
     ethr =  8.14E-07,  avg # of iterations =  2.2

     total cpu time spent up to now is        7.2 secs

     total energy              =    -154.75147991 Ry
     estimated scf accuracy    <       0.00045742 Ry

     total magnetization       =    -0.00 Bohr mag/cell
     absolute magnetization    =     0.00 Bohr mag/cell

     iteration #  3     ecut=    40.00 Ry     beta= 0.50
     Davidson diagonalization with overlap
     ethr =  8.14E-07,  avg # of iterations =  2.0

     total cpu time spent up to now is        7.3 secs

     total energy              =    -154.75150887 Ry
     estimated scf accuracy    <       0.00005376 Ry

     total magnetization       =    -0.00 Bohr mag/cell
     absolute magnetization    =     0.00 Bohr mag/cell

     iteration #  4     ecut=    40.00 Ry     beta= 0.50
     Davidson diagonalization with overlap
     ethr =  2.44E-07,  avg # of iterations =  1.0

     total cpu time spent up to now is        7.4 secs

     total energy              =    -154.75149843 Ry
     estimated scf accuracy    <       0.00002576 Ry

     total magnetization       =    -0.00 Bohr mag/cell
     absolute magnetization    =     0.00 Bohr mag/cell

     iteration #  5     ecut=    40.00 Ry     beta= 0.50
     Davidson diagonalization with overlap
     ethr =  1.17E-07,  avg # of iterations =  2.0

     total cpu time spent up to now is        7.5 secs

     total energy              =    -154.75150316 Ry
     estimated scf accuracy    <       0.00000001 Ry

     total magnetization       =    -0.00 Bohr mag/cell
     absolute magnetization    =     0.00 Bohr mag/cell

     iteration #  6     ecut=    40.00 Ry     beta= 0.50
     Davidson diagonalization with overlap
     ethr =  5.78E-11,  avg # of iterations =  4.2

     total cpu time spent up to now is        7.7 secs

     total energy              =    -154.75150324 Ry
     estimated scf accuracy    <       0.00000059 Ry

     total magnetization       =    -0.00 Bohr mag/cell
     absolute magnetization    =     0.00 Bohr mag/cell

     iteration #  7     ecut=    40.00 Ry     beta= 0.50
     Davidson diagonalization with overlap
     ethr =  5.78E-11,  avg # of iterations =  2.0

     total cpu time spent up to now is        7.8 secs

     total energy              =    -154.75150311 Ry
     estimated scf accuracy    <       0.00000031 Ry

     total magnetization       =    -0.00 Bohr mag/cell
     absolute magnetization    =     0.00 Bohr mag/cell

     iteration #  8     ecut=    40.00 Ry     beta= 0.50
     Davidson diagonalization with overlap
     ethr =  5.78E-11,  avg # of iterations =  3.0

     Magnetic moment per site  (integrated on atomic sphere of radius R)
     atom   1 (R=0.398)  charge= 10.0298  magn= -0.0000
     atom   2 (R=0.398)  charge=  8.8378  magn= -0.0000

     total cpu time spent up to now is        8.0 secs

     End of self-consistent calculation

 ------ SPIN UP ------------


          k = 0.0000 0.0000 0.0000 (   821 PWs)   bands (ev):

     5.5140   8.8756   8.9176  11.3989  11.3989  12.5410  12.6243  13.3397
    13.8606  14.0761  14.0761  18.1454  24.4766  25.8860  25.8860

          k = 0.0000 0.0000 0.2576 (   798 PWs)   bands (ev):

     6.8124   9.1241   9.3756  11.6861  11.6861  12.2834  12.7992  12.9001
    13.3309  13.3309  13.5802  13.7298  28.4330  28.4330  30.9964

          k = 0.0000 0.3303 0.0000 (   786 PWs)   bands (ev):

     7.7029   9.6180  10.3691  10.4709  11.7944  11.9972  12.5696  12.5703
    13.1381  13.5251  13.6907  18.1371  22.8353  25.1974  29.6667

          k = 0.0000 0.3303 0.2576 (   796 PWs)   bands (ev):

     8.3034   9.1105  10.9224  11.3190  11.4359  11.6519  12.5719  12.7324
    13.4596  13.5300  13.9955  16.5130  20.1663  24.2783  31.1720

          k = 0.3303 0.3303 0.0000 (   796 PWs)   bands (ev):

     8.8047   9.6462   9.9999  10.1594  11.7224  12.4883  13.2897  13.4497
    13.4850  13.6280  14.1647  19.0994  21.8821  25.2990  26.2321

          k = 0.3303 0.3303 0.2576 (   798 PWs)   bands (ev):

     9.2803   9.8300  10.0331  10.8369  11.5323  11.6980  12.8941  13.2709
    13.3952  13.6058  15.4842  19.3348  21.6373  22.7293  25.3875

 ------ SPIN DOWN ----------


          k = 0.0000 0.0000 0.0000 (   821 PWs)   bands (ev):

     5.5140   8.8756   8.9176  11.3989  11.3989  12.5410  12.6243  13.3397
    13.8606  14.0761  14.0761  18.1454  24.4766  25.8860  25.8860

          k = 0.0000 0.0000 0.2576 (   798 PWs)   bands (ev):

     6.8124   9.1241   9.3756  11.6861  11.6861  12.2834  12.7992  12.9001
    13.3309  13.3309  13.5802  13.7298  28.4330  28.4330  30.9964

          k = 0.0000 0.3303 0.0000 (   786 PWs)   bands (ev):

     7.7029   9.6180  10.3691  10.4709  11.7944  11.9972  12.5696  12.5703
    13.1381  13.5251  13.6907  18.1371  22.8353  25.1974  29.6667

          k = 0.0000 0.3303 0.2576 (   796 PWs)   bands (ev):

     8.3034   9.1105  10.9224  11.3190  11.4359  11.6519  12.5719  12.7324
    13.4596  13.5300  13.9955  16.5130  20.1663  24.2783  31.1720

          k = 0.3303 0.3303 0.0000 (   796 PWs)   bands (ev):

     8.8047   9.6462   9.9999  10.1594  11.7224  12.4883  13.2897  13.4497
    13.4850  13.6280  14.1647  19.0994  21.8821  25.2990  26.2321

          k = 0.3303 0.3303 0.2576 (   798 PWs)   bands (ev):

     9.2803   9.8300  10.0331  10.8369  11.5323  11.6980  12.8941  13.2709
    13.3952  13.6058  15.4842  19.3348  21.6373  22.7293  25.3875

     the Fermi energy is    15.5689 ev

!    total energy              =    -154.75150317 Ry
     estimated scf accuracy    <          5.3E-11 Ry
     smearing contrib. (-TS)   =      -0.00122231 Ry
     internal energy E=F+TS    =    -154.75028086 Ry

     The total energy is F=E-TS. E is the sum of the following terms:
     one-electron contribution =      -4.26985963 Ry
     hartree contribution      =      27.75477235 Ry
     xc contribution           =     -24.56355492 Ry
     ewald contribution        =    -153.67163866 Ry

     total magnetization       =    -0.00 Bohr mag/cell
     absolute magnetization    =     0.00 Bohr mag/cell

     convergence has been achieved in   8 iterations

     Forces acting on atoms (cartesian axes, Ry/au):

     atom    1 type  2   force =     0.00000000    0.00000000    0.00000000
     atom    2 type  1   force =     0.00000000    0.00000000    0.00000000
     The non-local contrib.  to forces
     atom    1 type  2   force =     0.00000000    0.00000000    0.00000000
     atom    2 type  1   force =     0.00000000    0.00000000    0.00000000
     The ionic contribution  to forces
     atom    1 type  2   force =    -0.00000000   -0.00000000   -0.00000000
     atom    2 type  1   force =    -0.00000000   -0.00000000   -0.00000000
     The local contribution  to forces
     atom    1 type  2   force =     0.00000000    0.00000000    0.00000000
     atom    2 type  1   force =    -0.00000000   -0.00000000    0.00000000
     The core correction contribution to forces
     atom    1 type  2   force =     0.00000000    0.00000000    0.00000000
     atom    2 type  1   force =     0.00000000    0.00000000    0.00000000
     The Hubbard contrib.    to forces
     atom    1 type  2   force =     0.00000000    0.00000000    0.00000000
     atom    2 type  1   force =     0.00000000    0.00000000    0.00000000
     The SCF correction term to forces
     atom    1 type  2   force =     0.00000000   -0.00000000   -0.00000000
     atom    2 type  1   force =    -0.00000000   -0.00000000   -0.00000000

     Total force =     0.000000     Total SCF correction =     0.000000


     Computing stress (Cartesian axis) and pressure

          total   stress  (Ry/bohr**3)                   (kbar)     P=       -1.47
  -0.00000976   0.00000000   0.00000000           -1.44        0.00        0.00
   0.00000000  -0.00000976   0.00000000            0.00       -1.44        0.00
   0.00000000   0.00000000  -0.00001042            0.00        0.00       -1.53

     Energy error            =      6.9E-06 Ry
     Gradient error          =      0.0E+00 Ry/Bohr
     Cell gradient error     =      1.5E+00 kbar

     number of scf cycles    =   5
     number of bfgs steps    =   4

     enthalpy           old  =    -154.7514962527 Ry
     enthalpy           new  =    -154.7515031706 Ry

     CASE: enthalpy          _new < enthalpy          _old

     new trust radius        =       0.0011987972 bohr
     new conv_thr            =       0.0000000010 Ry

     new unit-cell volume =    188.02343 a.u.^3 (    27.86220 Ang^3 )
     density =     15.52610 g/cm^3

CELL_PARAMETERS (angstrom)
   2.790791123   0.000000000   0.000000000
   0.000000000   2.790791123   0.000000000
   0.000000000   0.000000000   3.577343907

ATOMIC_POSITIONS (angstrom)
Cu            0.0000000000        0.0000000000        0.0000000000
Au            1.3953955613        1.3953955613        1.7886719536



     Writing config-only to output data dir /home/gridsan/epan1/labutil/lab3_samples/problem3/Lab3/CuAu_a_2.766_c_3.623_ecut_40_nk_3/pwscf.save/
     NEW-OLD atomic charge density approx. for the potential
     extrapolated charge   21.98439, renormalised to   22.00000
     Generating pointlists ...

     total cpu time spent up to now is        8.5 secs

     Self-consistent Calculation

     iteration #  1     ecut=    40.00 Ry     beta= 0.50
     Davidson diagonalization with overlap
     ethr =  1.00E-06,  avg # of iterations =  2.0

     total cpu time spent up to now is        8.6 secs

     total energy              =    -154.75143691 Ry
     estimated scf accuracy    <       0.00006478 Ry

     total magnetization       =    -0.00 Bohr mag/cell
     absolute magnetization    =     0.00 Bohr mag/cell

     iteration #  2     ecut=    40.00 Ry     beta= 0.50
     Davidson diagonalization with overlap
     ethr =  2.94E-07,  avg # of iterations =  2.2

     total cpu time spent up to now is        8.8 secs

     total energy              =    -154.75149593 Ry
     estimated scf accuracy    <       0.00016903 Ry

     total magnetization       =    -0.00 Bohr mag/cell
     absolute magnetization    =     0.00 Bohr mag/cell

     iteration #  3     ecut=    40.00 Ry     beta= 0.50
     Davidson diagonalization with overlap
     ethr =  2.94E-07,  avg # of iterations =  2.0

     total cpu time spent up to now is        8.9 secs

     total energy              =    -154.75150613 Ry
     estimated scf accuracy    <       0.00002090 Ry

     total magnetization       =    -0.00 Bohr mag/cell
     absolute magnetization    =     0.00 Bohr mag/cell

     iteration #  4     ecut=    40.00 Ry     beta= 0.50
     Davidson diagonalization with overlap
     ethr =  9.50E-08,  avg # of iterations =  1.0

     total cpu time spent up to now is        9.0 secs

     total energy              =    -154.75150336 Ry
     estimated scf accuracy    <       0.00001007 Ry

     total magnetization       =    -0.00 Bohr mag/cell
     absolute magnetization    =     0.00 Bohr mag/cell

     iteration #  5     ecut=    40.00 Ry     beta= 0.50
     Davidson diagonalization with overlap
     ethr =  4.58E-08,  avg # of iterations =  1.3

     total cpu time spent up to now is        9.1 secs

     total energy              =    -154.75150365 Ry
     estimated scf accuracy    <       0.00000118 Ry

     total magnetization       =    -0.00 Bohr mag/cell
     absolute magnetization    =     0.00 Bohr mag/cell

     iteration #  6     ecut=    40.00 Ry     beta= 0.50
     Davidson diagonalization with overlap
     ethr =  5.35E-09,  avg # of iterations =  2.0

     Magnetic moment per site  (integrated on atomic sphere of radius R)
     atom   1 (R=0.398)  charge= 10.0309  magn= -0.0000
     atom   2 (R=0.398)  charge=  8.8384  magn= -0.0000

     total cpu time spent up to now is        9.2 secs

     End of self-consistent calculation

 ------ SPIN UP ------------


          k = 0.0000 0.0000 0.0000 (   821 PWs)   bands (ev):

     5.5228   8.8857   8.9276  11.4110  11.4110  12.5535  12.6384  13.3545
    13.8756  14.0914  14.0914  18.1653  24.5047  25.9011  25.9011

          k = 0.0000 0.0000 0.2577 (   798 PWs)   bands (ev):

     6.8225   9.1349   9.3868  11.6984  11.6984  12.2966  12.8123  12.9152
    13.3448  13.3448  13.5945  13.7462  28.4512  28.4512  31.0258

          k = 0.0000 0.3304 0.0000 (   786 PWs)   bands (ev):

     7.7125   9.6289  10.3814  10.4816  11.8067  12.0101  12.5830  12.5839
    13.1517  13.5395  13.7053  18.1521  22.8577  25.2235  29.6898

          k = 0.0000 0.3304 0.2577 (   796 PWs)   bands (ev):

     8.3136   9.1211  10.9351  11.3304  11.4482  11.6638  12.5857  12.7459
    13.4738  13.5445  14.0109  16.5298  20.1845  24.2992  31.1911

          k = 0.3304 0.3304 0.0000 (   796 PWs)   bands (ev):

     8.8145   9.6563  10.0112  10.1712  11.7344  12.5006  13.3034  13.4639
    13.4996  13.6425  14.1804  19.1139  21.9007  25.3219  26.2545

          k = 0.3304 0.3304 0.2577 (   798 PWs)   bands (ev):

     9.2907   9.8409  10.0439  10.8489  11.5442  11.7096  12.9084  13.2850
    13.4095  13.6203  15.5005  19.3543  21.6547  22.7472  25.4074

 ------ SPIN DOWN ----------


          k = 0.0000 0.0000 0.0000 (   821 PWs)   bands (ev):

     5.5228   8.8857   8.9276  11.4110  11.4110  12.5535  12.6384  13.3545
    13.8756  14.0914  14.0914  18.1653  24.5047  25.9011  25.9011

          k = 0.0000 0.0000 0.2577 (   798 PWs)   bands (ev):

     6.8225   9.1349   9.3868  11.6984  11.6984  12.2966  12.8123  12.9152
    13.3448  13.3448  13.5945  13.7462  28.4512  28.4512  31.0258

          k = 0.0000 0.3304 0.0000 (   786 PWs)   bands (ev):

     7.7125   9.6289  10.3814  10.4816  11.8067  12.0101  12.5830  12.5839
    13.1517  13.5395  13.7053  18.1521  22.8577  25.2235  29.6898

          k = 0.0000 0.3304 0.2577 (   796 PWs)   bands (ev):

     8.3136   9.1211  10.9351  11.3304  11.4482  11.6638  12.5857  12.7459
    13.4738  13.5445  14.0109  16.5298  20.1845  24.2992  31.1911

          k = 0.3304 0.3304 0.0000 (   796 PWs)   bands (ev):

     8.8145   9.6563  10.0112  10.1712  11.7344  12.5006  13.3034  13.4639
    13.4996  13.6425  14.1804  19.1139  21.9007  25.3219  26.2545

          k = 0.3304 0.3304 0.2577 (   798 PWs)   bands (ev):

     9.2907   9.8409  10.0439  10.8489  11.5442  11.7096  12.9084  13.2850
    13.4095  13.6203  15.5005  19.3543  21.6547  22.7472  25.4074

     the Fermi energy is    15.5853 ev

!    total energy              =    -154.75150388 Ry
     estimated scf accuracy    <          4.0E-10 Ry
     smearing contrib. (-TS)   =      -0.00122232 Ry
     internal energy E=F+TS    =    -154.75028156 Ry

     The total energy is F=E-TS. E is the sum of the following terms:
     one-electron contribution =      -4.21723567 Ry
     hartree contribution      =      27.73950848 Ry
     xc contribution           =     -24.56461568 Ry
     ewald contribution        =    -153.70793870 Ry

     total magnetization       =    -0.00 Bohr mag/cell
     absolute magnetization    =     0.00 Bohr mag/cell

     convergence has been achieved in   6 iterations

     Forces acting on atoms (cartesian axes, Ry/au):

     atom    1 type  2   force =     0.00000000    0.00000000    0.00000000
     atom    2 type  1   force =     0.00000000    0.00000000    0.00000000
     The non-local contrib.  to forces
     atom    1 type  2   force =     0.00000000    0.00000000    0.00000000
     atom    2 type  1   force =     0.00000000    0.00000000    0.00000000
     The ionic contribution  to forces
     atom    1 type  2   force =    -0.00000000   -0.00000000   -0.00000000
     atom    2 type  1   force =     0.00000000    0.00000000   -0.00000000
     The local contribution  to forces
     atom    1 type  2   force =     0.00000000    0.00000000   -0.00000000
     atom    2 type  1   force =    -0.00000000   -0.00000000    0.00000000
     The core correction contribution to forces
     atom    1 type  2   force =     0.00000000    0.00000000    0.00000000
     atom    2 type  1   force =     0.00000000    0.00000000    0.00000000
     The Hubbard contrib.    to forces
     atom    1 type  2   force =     0.00000000    0.00000000    0.00000000
     atom    2 type  1   force =     0.00000000    0.00000000    0.00000000
     The SCF correction term to forces
     atom    1 type  2   force =     0.00000000    0.00000000   -0.00000000
     atom    2 type  1   force =    -0.00000000   -0.00000000   -0.00000000

     Total force =     0.000000     Total SCF correction =     0.000000


     Computing stress (Cartesian axis) and pressure

          total   stress  (Ry/bohr**3)                   (kbar)     P=       -0.08
  -0.00000094   0.00000000   0.00000000           -0.14        0.00        0.00
   0.00000000  -0.00000094   0.00000000            0.00       -0.14        0.00
   0.00000000   0.00000000   0.00000029            0.00        0.00        0.04

     Energy error            =      7.1E-07 Ry
     Gradient error          =      0.0E+00 Ry/Bohr
     Cell gradient error     =      1.4E-01 kbar
Begin final coordinates
     new unit-cell volume =    188.02343 a.u.^3 (    27.86220 Ang^3 )
     density =     15.52610 g/cm^3

CELL_PARAMETERS (angstrom)
   2.790791123   0.000000000   0.000000000
   0.000000000   2.790791123   0.000000000
   0.000000000   0.000000000   3.577343907

ATOMIC_POSITIONS (angstrom)
Cu            0.0000000000        0.0000000000        0.0000000000
Au            1.3953955613        1.3953955613        1.7886719536
End final coordinates



     Writing config-only to output data dir /home/gridsan/epan1/labutil/lab3_samples/problem3/Lab3/CuAu_a_2.766_c_3.623_ecut_40_nk_3/pwscf.save/

     lsda relaxation :  a final configuration with zero
                        absolute magnetization has been found

     the program is checking if it is really the minimum energy structure
     by performing a new scf iteration without any "electronic" history

     Initial potential from superposition of free atoms

     starting charge      21.9996, renormalised to      22.0000

     total cpu time spent up to now is       10.0 secs

     Self-consistent Calculation

     iteration #  1     ecut=    40.00 Ry     beta= 0.50
     Davidson diagonalization with overlap
     ethr =  1.00E-06,  avg # of iterations =  7.7

     total cpu time spent up to now is       10.8 secs

     total energy              =    -154.28256393 Ry
     estimated scf accuracy    <       0.69910915 Ry

     total magnetization       =     1.10 Bohr mag/cell
     absolute magnetization    =     1.36 Bohr mag/cell

     iteration #  2     ecut=    40.00 Ry     beta= 0.50
     Davidson diagonalization with overlap
     ethr =  3.18E-03,  avg # of iterations =  2.0

     total cpu time spent up to now is       11.0 secs

     total energy              =    -154.60709257 Ry
     estimated scf accuracy    <       0.27177053 Ry

     total magnetization       =     0.35 Bohr mag/cell
     absolute magnetization    =     0.53 Bohr mag/cell

     iteration #  3     ecut=    40.00 Ry     beta= 0.50
     Davidson diagonalization with overlap
     ethr =  1.24E-03,  avg # of iterations =  1.5

     total cpu time spent up to now is       11.1 secs

     total energy              =    -154.70756712 Ry
     estimated scf accuracy    <       0.07271334 Ry

     total magnetization       =     0.13 Bohr mag/cell
     absolute magnetization    =     0.46 Bohr mag/cell

     iteration #  4     ecut=    40.00 Ry     beta= 0.50
     Davidson diagonalization with overlap
     ethr =  3.31E-04,  avg # of iterations =  1.8

     total cpu time spent up to now is       11.3 secs

     total energy              =    -154.74315757 Ry
     estimated scf accuracy    <       0.02820225 Ry

     total magnetization       =     0.16 Bohr mag/cell
     absolute magnetization    =     0.30 Bohr mag/cell

     iteration #  5     ecut=    40.00 Ry     beta= 0.50
     Davidson diagonalization with overlap
     ethr =  1.28E-04,  avg # of iterations =  1.5

     total cpu time spent up to now is       11.4 secs

     total energy              =    -154.75051844 Ry
     estimated scf accuracy    <       0.00429497 Ry

     total magnetization       =    -0.03 Bohr mag/cell
     absolute magnetization    =     0.05 Bohr mag/cell

     iteration #  6     ecut=    40.00 Ry     beta= 0.50
     Davidson diagonalization with overlap
     ethr =  1.95E-05,  avg # of iterations =  2.2

     total cpu time spent up to now is       11.5 secs

     total energy              =    -154.75145487 Ry
     estimated scf accuracy    <       0.00007144 Ry

     total magnetization       =    -0.02 Bohr mag/cell
     absolute magnetization    =     0.03 Bohr mag/cell

     iteration #  7     ecut=    40.00 Ry     beta= 0.50
     Davidson diagonalization with overlap
     ethr =  3.25E-07,  avg # of iterations =  2.2

     total cpu time spent up to now is       11.6 secs

     total energy              =    -154.75149535 Ry
     estimated scf accuracy    <       0.00003542 Ry

     total magnetization       =     0.00 Bohr mag/cell
     absolute magnetization    =     0.01 Bohr mag/cell

     iteration #  8     ecut=    40.00 Ry     beta= 0.50
     Davidson diagonalization with overlap
     ethr =  1.61E-07,  avg # of iterations =  1.9

     total cpu time spent up to now is       11.8 secs

     total energy              =    -154.75150339 Ry
     estimated scf accuracy    <       0.00000162 Ry

     total magnetization       =    -0.00 Bohr mag/cell
     absolute magnetization    =     0.00 Bohr mag/cell

     iteration #  9     ecut=    40.00 Ry     beta= 0.50
     Davidson diagonalization with overlap
     ethr =  7.38E-09,  avg # of iterations =  2.0

     total cpu time spent up to now is       11.9 secs

     total energy              =    -154.75150386 Ry
     estimated scf accuracy    <       0.00000007 Ry

     total magnetization       =    -0.00 Bohr mag/cell
     absolute magnetization    =     0.00 Bohr mag/cell

     iteration # 10     ecut=    40.00 Ry     beta= 0.50
     Davidson diagonalization with overlap
     ethr =  3.04E-10,  avg # of iterations =  1.8

     total cpu time spent up to now is       12.0 secs

     total energy              =    -154.75150387 Ry
     estimated scf accuracy    <       0.00000002 Ry

     total magnetization       =    -0.00 Bohr mag/cell
     absolute magnetization    =     0.00 Bohr mag/cell

     iteration # 11     ecut=    40.00 Ry     beta= 0.50
     Davidson diagonalization with overlap
     ethr =  1.04E-10,  avg # of iterations =  1.8

     total cpu time spent up to now is       12.1 secs

     total energy              =    -154.75150388 Ry
     estimated scf accuracy    <          1.2E-09 Ry

     total magnetization       =    -0.00 Bohr mag/cell
     absolute magnetization    =     0.00 Bohr mag/cell

     iteration # 12     ecut=    40.00 Ry     beta= 0.50
     Davidson diagonalization with overlap
     ethr =  5.60E-12,  avg # of iterations =  1.7

     Magnetic moment per site  (integrated on atomic sphere of radius R)
     atom   1 (R=0.398)  charge= 10.0309  magn= -0.0001
     atom   2 (R=0.398)  charge=  8.8384  magn= -0.0000

     total cpu time spent up to now is       12.3 secs

     End of self-consistent calculation

 ------ SPIN UP ------------


          k = 0.0000 0.0000 0.0000 (   821 PWs)   bands (ev):

     5.5228   8.8857   8.9277  11.4111  11.4111  12.5536  12.6385  13.3546
    13.8757  14.0915  14.0915  18.1653  24.5047  25.9011  25.9011

          k = 0.0000 0.0000 0.2577 (   798 PWs)   bands (ev):

     6.8225   9.1349   9.3868  11.6984  11.6984  12.2967  12.8124  12.9153
    13.3449  13.3449  13.5946  13.7463  28.4512  28.4512  31.0259

          k = 0.0000 0.3304 0.0000 (   786 PWs)   bands (ev):

     7.7125   9.6289  10.3814  10.4816  11.8068  12.0102  12.5831  12.5840
    13.1518  13.5396  13.7054  18.1522  22.8577  25.2236  29.6898

          k = 0.0000 0.3304 0.2577 (   796 PWs)   bands (ev):

     8.3136   9.1211  10.9351  11.3305  11.4482  11.6639  12.5858  12.7460
    13.4739  13.5446  14.0110  16.5298  20.1845  24.2992  31.1911

          k = 0.3304 0.3304 0.0000 (   796 PWs)   bands (ev):

     8.8145   9.6563  10.0112  10.1713  11.7345  12.5006  13.3035  13.4640
    13.4997  13.6426  14.1805  19.1139  21.9007  25.3220  26.2546

          k = 0.3304 0.3304 0.2577 (   798 PWs)   bands (ev):

     9.2907   9.8409  10.0439  10.8489  11.5443  11.7097  12.9084  13.2851
    13.4096  13.6204  15.5006  19.3543  21.6548  22.7472  25.4074

 ------ SPIN DOWN ----------


          k = 0.0000 0.0000 0.0000 (   821 PWs)   bands (ev):

     5.5228   8.8857   8.9276  11.4110  11.4110  12.5535  12.6384  13.3545
    13.8755  14.0914  14.0914  18.1653  24.5047  25.9011  25.9011

          k = 0.0000 0.0000 0.2577 (   798 PWs)   bands (ev):

     6.8225   9.1349   9.3868  11.6984  11.6984  12.2965  12.8123  12.9152
    13.3447  13.3447  13.5945  13.7462  28.4512  28.4512  31.0258

          k = 0.0000 0.3304 0.0000 (   786 PWs)   bands (ev):

     7.7125   9.6289  10.3814  10.4816  11.8067  12.0101  12.5830  12.5839
    13.1516  13.5394  13.7053  18.1521  22.8577  25.2235  29.6898

          k = 0.0000 0.3304 0.2577 (   796 PWs)   bands (ev):

     8.3135   9.1210  10.9351  11.3304  11.4482  11.6638  12.5856  12.7459
    13.4738  13.5445  14.0109  16.5298  20.1845  24.2992  31.1911

          k = 0.3304 0.3304 0.0000 (   796 PWs)   bands (ev):

     8.8145   9.6563  10.0111  10.1712  11.7344  12.5006  13.3034  13.4638
    13.4996  13.6425  14.1803  19.1139  21.9007  25.3220  26.2545

          k = 0.3304 0.3304 0.2577 (   798 PWs)   bands (ev):

     9.2907   9.8409  10.0439  10.8489  11.5442  11.7096  12.9083  13.2850
    13.4094  13.6202  15.5005  19.3543  21.6547  22.7472  25.4074

     the Fermi energy is    15.5853 ev

!    total energy              =    -154.75150388 Ry
     estimated scf accuracy    <          3.5E-10 Ry
     smearing contrib. (-TS)   =      -0.00122232 Ry
     internal energy E=F+TS    =    -154.75028157 Ry

     The total energy is F=E-TS. E is the sum of the following terms:
     one-electron contribution =      -4.21725995 Ry
     hartree contribution      =      27.73953749 Ry
     xc contribution           =     -24.56462040 Ry
     ewald contribution        =    -153.70793870 Ry

     total magnetization       =    -0.00 Bohr mag/cell
     absolute magnetization    =     0.00 Bohr mag/cell

     convergence has been achieved in  12 iterations

     Forces acting on atoms (cartesian axes, Ry/au):

     atom    1 type  2   force =     0.00000000    0.00000000    0.00000000
     atom    2 type  1   force =     0.00000000    0.00000000    0.00000000
     The non-local contrib.  to forces
     atom    1 type  2   force =     0.00000000    0.00000000    0.00000000
     atom    2 type  1   force =     0.00000000    0.00000000    0.00000000
     The ionic contribution  to forces
     atom    1 type  2   force =    -0.00000000   -0.00000000   -0.00000000
     atom    2 type  1   force =     0.00000000    0.00000000   -0.00000000
     The local contribution  to forces
     atom    1 type  2   force =     0.00000000    0.00000000    0.00000000
     atom    2 type  1   force =    -0.00000000   -0.00000000    0.00000000
     The core correction contribution to forces
     atom    1 type  2   force =     0.00000000    0.00000000    0.00000000
     atom    2 type  1   force =     0.00000000    0.00000000    0.00000000
     The Hubbard contrib.    to forces
     atom    1 type  2   force =     0.00000000    0.00000000    0.00000000
     atom    2 type  1   force =     0.00000000    0.00000000    0.00000000
     The SCF correction term to forces
     atom    1 type  2   force =    -0.00000000    0.00000000   -0.00000000
     atom    2 type  1   force =     0.00000000   -0.00000000   -0.00000000

     Total force =     0.000000     Total SCF correction =     0.000000


     Computing stress (Cartesian axis) and pressure

          total   stress  (Ry/bohr**3)                   (kbar)     P=       -0.07
  -0.00000088   0.00000000   0.00000000           -0.13        0.00        0.00
   0.00000000  -0.00000088   0.00000000            0.00       -0.13        0.00
   0.00000000   0.00000000   0.00000029            0.00        0.00        0.04

     Energy error            =      7.1E-07 Ry
     Gradient error          =      0.0E+00 Ry/Bohr
     Cell gradient error     =      1.3E-01 kbar

     bfgs converged in   6 scf cycles and   5 bfgs steps
     (criteria: energy <  1.0E-04 Ry, force <  1.0E-03 Ry/Bohr, cell <  5.0E-01 kbar)

     End of BFGS Geometry Optimization

     Final enthalpy           =    -154.7515038805 Ry

     File /home/gridsan/epan1/labutil/lab3_samples/problem3/Lab3/CuAu_a_2.766_c_3.623_ecut_40_nk_3/pwscf.bfgs deleted, as requested
Begin final coordinates
     new unit-cell volume =    188.02343 a.u.^3 (    27.86220 Ang^3 )
     density =     15.52610 g/cm^3

CELL_PARAMETERS (angstrom)
   2.790791123   0.000000000   0.000000000
   0.000000000   2.790791123   0.000000000
   0.000000000   0.000000000   3.577343907

ATOMIC_POSITIONS (angstrom)
Cu            0.0000000000        0.0000000000        0.0000000000
Au            1.3953955613        1.3953955613        1.7886719536
End final coordinates



     Writing config-only to output data dir /home/gridsan/epan1/labutil/lab3_samples/problem3/Lab3/CuAu_a_2.766_c_3.623_ecut_40_nk_3/pwscf.save/

     Final scf calculation at the relaxed structure.
     The G-vectors are recalculated for the final unit cell
     Results may differ from those at the preceding step.

     Parallelization info
     --------------------
     sticks:   dense  smooth     PW     G-vecs:    dense   smooth      PW
     Min          88      43     13                 2270      801     130
     Max          90      44     14                 2272      804     131
     Sum         709     349    109                18163     6423    1043

     Using Slab Decomposition



     bravais-lattice index     =            0
     lattice parameter (alat)  =       5.2270  a.u.
     unit-cell volume          =     188.0234 (a.u.)^3
     number of atoms/cell      =            2
     number of atomic types    =            2
     number of electrons       =        22.00
     number of Kohn-Sham states=           15
     kinetic-energy cutoff     =      40.0000  Ry
     charge density cutoff     =     320.0000  Ry
     scf convergence threshold =      1.0E-09
     mixing beta               =       0.5000
     number of iterations used =            8  plain     mixing
     press convergence thresh. =      5.0E-01
     Exchange-correlation=  SLA  PZ   NOGX NOGC
                           (   1   1   0   0   0   0   0)

     celldm(1)=   5.226982  celldm(2)=   0.000000  celldm(3)=   0.000000
     celldm(4)=   0.000000  celldm(5)=   0.000000  celldm(6)=   0.000000

     crystal axes: (cart. coord. in units of alat)
               a(1) = (   1.008963   0.000000   0.000000 )  
               a(2) = (   0.000000   1.008963   0.000000 )  
               a(3) = (   0.000000   0.000000   1.293328 )  

     reciprocal axes: (cart. coord. in units 2 pi/alat)
               b(1) = (  0.991117  0.000000  0.000000 )  
               b(2) = (  0.000000  0.991117  0.000000 )  
               b(3) = (  0.000000  0.000000  0.773199 )  


     PseudoPot. # 1 for Au read from file:
     /home/gridsan/epan1/labutil/lab3_samples/pseudopotentials/Au.pz-d-rrkjus.UPF
     MD5 check sum: 424ffd4ac9c90487cbadcd287136c95b
     Pseudo is Ultrasoft, Zval = 11.0
     Generated by new atomic code, or converted to UPF format
     Using radial grid of 1279 points,  3 beta functions with: 
                l(1) =   2
                l(2) =   2
                l(3) =   1
     Q(r) pseudized with 0 coefficients 


     PseudoPot. # 2 for Cu read from file:
     /home/gridsan/epan1/labutil/lab3_samples/pseudopotentials/Cu.pz-d-rrkjus.UPF
     MD5 check sum: fd38ae683e239c95a66f426e1f8e5fc7
     Pseudo is Ultrasoft, Zval = 11.0
     Generated by new atomic code, or converted to UPF format
     Using radial grid of  899 points,  3 beta functions with: 
                l(1) =   2
                l(2) =   2
                l(3) =   1
     Q(r) pseudized with 0 coefficients 


     atomic species   valence    mass     pseudopotential
        Au            11.00   196.96657     Au( 1.00)
        Cu            11.00    63.54600     Cu( 1.00)

     Starting magnetic structure 
     atomic species   magnetization
        Au          -0.000
        Cu          -0.000

     16 Sym. Ops., with inversion, found



   Cartesian axes

     site n.     atom                  positions (alat units)
         1           Cu  tau(   1) = (   0.0000000   0.0000000   0.0000000  )
         2           Au  tau(   2) = (   0.5044814   0.5044814   0.6466638  )

     number of k points=     6  Methfessel-Paxton smearing, width (Ry)=  0.0200
                       cart. coord. in units 2pi/alat
        k(    1) = (   0.0000000   0.0000000   0.0000000), wk =   0.0370370
        k(    2) = (   0.0000000   0.0000000   0.2577331), wk =   0.0740741
        k(    3) = (   0.0000000   0.3303723   0.0000000), wk =   0.1481481
        k(    4) = (   0.0000000   0.3303723   0.2577331), wk =   0.2962963
        k(    5) = (   0.3303723   0.3303723   0.0000000), wk =   0.1481481
        k(    6) = (   0.3303723   0.3303723   0.2577331), wk =   0.2962963

     Dense  grid:    18163 G-vectors     FFT dimensions: (  32,  32,  40)

     Smooth grid:     6423 G-vectors     FFT dimensions: (  24,  24,  27)

     Estimated max dynamical RAM per process >       8.50 MB

     Estimated total dynamical RAM >      68.00 MB
     Generating pointlists ...

     Initial potential from superposition of free atoms

     starting charge      21.9996, renormalised to      22.0000
     Starting wfcs are   15 randomized atomic wfcs

     total cpu time spent up to now is       13.5 secs

     Self-consistent Calculation

     iteration #  1     ecut=    40.00 Ry     beta= 0.50
     Davidson diagonalization with overlap
     c_bands:  1 eigenvalues not converged
     c_bands:  1 eigenvalues not converged
     ethr =  1.00E-06,  avg # of iterations = 12.9

     total cpu time spent up to now is       13.9 secs

     total energy              =    -154.68098309 Ry
     estimated scf accuracy    <       0.24621120 Ry

     total magnetization       =    -0.00 Bohr mag/cell
     absolute magnetization    =     0.00 Bohr mag/cell

     iteration #  2     ecut=    40.00 Ry     beta= 0.50
     Davidson diagonalization with overlap
     ethr =  1.12E-03,  avg # of iterations =  2.0

     total cpu time spent up to now is       14.0 secs

     total energy              =    -154.74384850 Ry
     estimated scf accuracy    <       0.03109603 Ry

     total magnetization       =    -0.00 Bohr mag/cell
     absolute magnetization    =     0.00 Bohr mag/cell

     iteration #  3     ecut=    40.00 Ry     beta= 0.50
     Davidson diagonalization with overlap
     ethr =  1.41E-04,  avg # of iterations =  2.0

     total cpu time spent up to now is       14.1 secs

     total energy              =    -154.75066390 Ry
     estimated scf accuracy    <       0.00427048 Ry

     total magnetization       =    -0.00 Bohr mag/cell
     absolute magnetization    =     0.00 Bohr mag/cell

     iteration #  4     ecut=    40.00 Ry     beta= 0.50
     Davidson diagonalization with overlap
     ethr =  1.94E-05,  avg # of iterations =  1.5

     total cpu time spent up to now is       14.2 secs

     total energy              =    -154.75148134 Ry
     estimated scf accuracy    <       0.00016486 Ry

     total magnetization       =    -0.00 Bohr mag/cell
     absolute magnetization    =     0.00 Bohr mag/cell

     iteration #  5     ecut=    40.00 Ry     beta= 0.50
     Davidson diagonalization with overlap
     ethr =  7.49E-07,  avg # of iterations =  2.6

     total cpu time spent up to now is       14.4 secs

     total energy              =    -154.75150229 Ry
     estimated scf accuracy    <       0.00002381 Ry

     total magnetization       =    -0.00 Bohr mag/cell
     absolute magnetization    =     0.00 Bohr mag/cell

     iteration #  6     ecut=    40.00 Ry     beta= 0.50
     Davidson diagonalization with overlap
     ethr =  1.08E-07,  avg # of iterations =  2.0

     total cpu time spent up to now is       14.5 secs

     total energy              =    -154.75150841 Ry
     estimated scf accuracy    <       0.00000270 Ry

     total magnetization       =    -0.00 Bohr mag/cell
     absolute magnetization    =     0.00 Bohr mag/cell

     iteration #  7     ecut=    40.00 Ry     beta= 0.50
     Davidson diagonalization with overlap
     ethr =  1.23E-08,  avg # of iterations =  1.8

     total cpu time spent up to now is       14.6 secs

     total energy              =    -154.75150888 Ry
     estimated scf accuracy    <          4.6E-09 Ry

     total magnetization       =    -0.00 Bohr mag/cell
     absolute magnetization    =     0.00 Bohr mag/cell

     iteration #  8     ecut=    40.00 Ry     beta= 0.50
     Davidson diagonalization with overlap
     ethr =  2.08E-11,  avg # of iterations =  3.5

     total cpu time spent up to now is       14.8 secs

     total energy              =    -154.75150889 Ry
     estimated scf accuracy    <          4.9E-09 Ry

     total magnetization       =    -0.00 Bohr mag/cell
     absolute magnetization    =     0.00 Bohr mag/cell

     iteration #  9     ecut=    40.00 Ry     beta= 0.50
     Davidson diagonalization with overlap
     ethr =  2.08E-11,  avg # of iterations =  2.0

     Magnetic moment per site  (integrated on atomic sphere of radius R)
     atom   1 (R=0.398)  charge= 10.0307  magn= -0.0000
     atom   2 (R=0.398)  charge=  8.8381  magn= -0.0000

     total cpu time spent up to now is       14.9 secs

     End of self-consistent calculation

 ------ SPIN UP ------------


          k = 0.0000 0.0000 0.0000 (   805 PWs)   bands (ev):

     5.5228   8.8856   8.9276  11.4111  11.4111  12.5535  12.6384  13.3546
    13.8756  14.0915  14.0915  18.1653  24.5047  25.9011  25.9011

          k = 0.0000 0.0000 0.2577 (   794 PWs)   bands (ev):

     6.8225   9.1348   9.3868  11.6984  11.6984  12.2966  12.8123  12.9153
    13.3448  13.3448  13.5945  13.7462  28.4512  28.4512  31.0259

          k = 0.0000 0.3304 0.0000 (   798 PWs)   bands (ev):

     7.7125   9.6288  10.3814  10.4816  11.8067  12.0101  12.5830  12.5840
    13.1517  13.5395  13.7054  18.1521  22.8577  25.2236  29.7028

          k = 0.0000 0.3304 0.2577 (   800 PWs)   bands (ev):

     8.3135   9.1210  10.9351  11.3304  11.4482  11.6638  12.5857  12.7460
    13.4739  13.5446  14.0110  16.5298  20.1845  24.2992  31.1911

          k = 0.3304 0.3304 0.0000 (   800 PWs)   bands (ev):

     8.8145   9.6563  10.0111  10.1712  11.7344  12.5006  13.3034  13.4639
    13.4997  13.6425  14.1804  19.1139  21.9007  25.3220  26.2545

          k = 0.3304 0.3304 0.2577 (   802 PWs)   bands (ev):

     9.2907   9.8409  10.0439  10.8489  11.5442  11.7097  12.9084  13.2851
    13.4095  13.6203  15.5005  19.3543  21.6547  22.7472  25.4074

 ------ SPIN DOWN ----------


          k = 0.0000 0.0000 0.0000 (   805 PWs)   bands (ev):

     5.5228   8.8856   8.9276  11.4111  11.4111  12.5535  12.6384  13.3546
    13.8756  14.0915  14.0915  18.1653  24.5047  25.9011  25.9011

          k = 0.0000 0.0000 0.2577 (   794 PWs)   bands (ev):

     6.8225   9.1348   9.3868  11.6984  11.6984  12.2966  12.8123  12.9153
    13.3448  13.3448  13.5945  13.7462  28.4512  28.4512  31.0260

          k = 0.0000 0.3304 0.0000 (   798 PWs)   bands (ev):

     7.7125   9.6288  10.3814  10.4816  11.8067  12.0101  12.5830  12.5840
    13.1517  13.5395  13.7054  18.1521  22.8577  25.2236  29.7028

          k = 0.0000 0.3304 0.2577 (   800 PWs)   bands (ev):

     8.3135   9.1210  10.9351  11.3304  11.4482  11.6638  12.5857  12.7460
    13.4739  13.5446  14.0109  16.5298  20.1845  24.2992  31.1911

          k = 0.3304 0.3304 0.0000 (   800 PWs)   bands (ev):

     8.8145   9.6563  10.0111  10.1712  11.7344  12.5006  13.3034  13.4639
    13.4997  13.6425  14.1804  19.1139  21.9007  25.3220  26.2545

          k = 0.3304 0.3304 0.2577 (   802 PWs)   bands (ev):

     9.2907   9.8409  10.0439  10.8489  11.5442  11.7097  12.9084  13.2851
    13.4095  13.6203  15.5005  19.3543  21.6547  22.7472  25.4074

     the Fermi energy is    15.5853 ev

!    total energy              =    -154.75150889 Ry
     estimated scf accuracy    <          3.6E-11 Ry
     smearing contrib. (-TS)   =      -0.00122232 Ry
     internal energy E=F+TS    =    -154.75028657 Ry

     The total energy is F=E-TS. E is the sum of the following terms:
     one-electron contribution =      -4.21721804 Ry
     hartree contribution      =      27.73947760 Ry
     xc contribution           =     -24.56460743 Ry
     ewald contribution        =    -153.70793870 Ry

     total magnetization       =    -0.00 Bohr mag/cell
     absolute magnetization    =     0.00 Bohr mag/cell

     convergence has been achieved in   9 iterations

     Forces acting on atoms (cartesian axes, Ry/au):

     atom    1 type  2   force =     0.00000000    0.00000000    0.00000000
     atom    2 type  1   force =     0.00000000    0.00000000    0.00000000
     The non-local contrib.  to forces
     atom    1 type  2   force =     0.00000000    0.00000000    0.00000000
     atom    2 type  1   force =     0.00000000    0.00000000    0.00000000
     The ionic contribution  to forces
     atom    1 type  2   force =    -0.00000000   -0.00000000   -0.00000000
     atom    2 type  1   force =     0.00000000    0.00000000   -0.00000000
     The local contribution  to forces
     atom    1 type  2   force =    -0.00000000   -0.00000000   -0.00000000
     atom    2 type  1   force =    -0.00000000   -0.00000000   -0.00000000
     The core correction contribution to forces
     atom    1 type  2   force =     0.00000000    0.00000000    0.00000000
     atom    2 type  1   force =     0.00000000    0.00000000    0.00000000
     The Hubbard contrib.    to forces
     atom    1 type  2   force =     0.00000000    0.00000000    0.00000000
     atom    2 type  1   force =     0.00000000    0.00000000    0.00000000
     The SCF correction term to forces
     atom    1 type  2   force =     0.00000000   -0.00000000    0.00000000
     atom    2 type  1   force =    -0.00000000   -0.00000000   -0.00000000

     Total force =     0.000000     Total SCF correction =     0.000000


     Computing stress (Cartesian axis) and pressure

          total   stress  (Ry/bohr**3)                   (kbar)     P=       -0.14
  -0.00000142   0.00000000   0.00000000           -0.21        0.00        0.00
   0.00000000  -0.00000142   0.00000000            0.00       -0.21        0.00
   0.00000000   0.00000000  -0.00000006            0.00        0.00       -0.01


     init_run     :      0.89s CPU      1.02s WALL (       2 calls)
     electrons    :     10.64s CPU      9.54s WALL (       8 calls)
     update_pot   :      0.92s CPU      0.86s WALL (       5 calls)
     forces       :      0.97s CPU      0.91s WALL (       8 calls)
     stress       :      1.98s CPU      1.87s WALL (       8 calls)

     Called by init_run:
     wfcinit      :      0.06s CPU      0.07s WALL (       2 calls)
     potinit      :      0.55s CPU      0.54s WALL (       3 calls)
     hinit0       :      0.56s CPU      0.59s WALL (       2 calls)

     Called by electrons:
     c_bands      :      6.93s CPU      6.29s WALL (      68 calls)
     sum_band     :      2.62s CPU      2.17s WALL (      68 calls)
     v_of_rho     :      0.23s CPU      0.23s WALL (      74 calls)
     newd         :      0.82s CPU      0.72s WALL (      74 calls)
     mix_rho      :      0.07s CPU      0.09s WALL (      68 calls)

     Called by c_bands:
     init_us_2    :      0.12s CPU      0.10s WALL (    1848 calls)
     init_us_2:cp :      0.11s CPU      0.10s WALL (    1848 calls)
     cegterg      :      6.24s CPU      5.43s WALL (     816 calls)

     Called by *egterg:
     cdiaghg      :      1.17s CPU      1.05s WALL (    2618 calls)
     h_psi        :      4.16s CPU      3.61s WALL (    2738 calls)
     s_psi        :      0.07s CPU      0.06s WALL (    2738 calls)
     g_psi        :      0.02s CPU      0.02s WALL (    1898 calls)

     Called by h_psi:
     h_psi:calbec :      0.30s CPU      0.25s WALL (    2738 calls)
     vloc_psi     :      3.74s CPU      3.25s WALL (    2738 calls)
     add_vuspsi   :      0.07s CPU      0.06s WALL (    2738 calls)

     General routines
     calbec       :      0.43s CPU      0.36s WALL (    4034 calls)
     fft          :      0.45s CPU      0.44s WALL (     830 calls)
     ffts         :      0.12s CPU      0.12s WALL (     284 calls)
     fftw         :      4.03s CPU      3.51s WALL (   74632 calls)
     interpolate  :      0.16s CPU      0.16s WALL (     148 calls)

     Parallel routines

     PWSCF        :     16.18s CPU     15.25s WALL


   This run was terminated on:  14: 2:16   3Nov2023            

=------------------------------------------------------------------------------=
   JOB DONE.
=------------------------------------------------------------------------------=
