
     Program PWSCF v.7.2 starts on  2Nov2023 at 18: 0:40 

     This program is part of the open-source Quantum ESPRESSO suite
     for quantum simulation of materials; please cite
         "P. Giannozzi et al., J. Phys.:Condens. Matter 21 395502 (2009);
         "P. Giannozzi et al., J. Phys.:Condens. Matter 29 465901 (2017);
         "P. Giannozzi et al., J. Chem. Phys. 152 154105 (2020);
          URL http://www.quantum-espresso.org", 
     in publications or presentations arising from this work. More details at
     http://www.quantum-espresso.org/quote

     Parallel version (MPI), running on     2 processors

     MPI processes distributed on     2 nodes
     187057 MiB available memory on the printing compute node when the environment starts

     Waiting for input...
     Reading input from standard input
Warning: card &CELL ignored
Warning: card / ignored

     Current dimensions of program PWSCF are:
     Max number of different atomic species (ntypx) = 10
     Max number of k-points (npk) =  40000
     Max angular momentum in pseudopotentials (lmaxx) =  4
     file O.pz-rrkjus.UPF: wavefunction(s)  2S renormalized
     Message from routine setup:
     using ibrav=0 with symmetry is DISCOURAGED, use correct ibrav instead

     R & G space division:  proc/nbgrp/npool/nimage =       2
     Subspace diagonalization in iterative solution of the eigenvalue problem:
     a serial algorithm will be used


     Parallelization info
     --------------------
     sticks:   dense  smooth     PW     G-vecs:    dense   smooth      PW
     Min         516     254     74                12418     4366     709
     Max         517     255     75                12419     4367     710
     Sum        1033     509    149                24837     8733    1419

     Using Slab Decomposition



     bravais-lattice index     =            0
     lattice parameter (alat)  =       7.3321  a.u.
     unit-cell volume          =     394.1775 (a.u.)^3
     number of atoms/cell      =            5
     number of atomic types    =            3
     number of electrons       =        44.00
     number of Kohn-Sham states=           22
     kinetic-energy cutoff     =      30.0000  Ry
     charge density cutoff     =     240.0000  Ry
     scf convergence threshold =      1.0E-07
     mixing beta               =       0.7000
     number of iterations used =            8  plain     mixing
     energy convergence thresh.=      1.0E-04
     force convergence thresh. =      1.0E-03
     Exchange-correlation= SLA  PZ   NOGX NOGC
                           (   1   1   0   0   0   0   0)
     nstep                     =           50


     celldm(1)=   7.332137  celldm(2)=   0.000000  celldm(3)=   0.000000
     celldm(4)=   0.000000  celldm(5)=   0.000000  celldm(6)=   0.000000

     crystal axes: (cart. coord. in units of alat)
               a(1) = (   1.000000   0.000000   0.000000 )  
               a(2) = (   0.000000   1.000000   0.000000 )  
               a(3) = (   0.000000   0.000000   1.000000 )  

     reciprocal axes: (cart. coord. in units 2 pi/alat)
               b(1) = (  1.000000  0.000000  0.000000 )  
               b(2) = (  0.000000  1.000000  0.000000 )  
               b(3) = (  0.000000  0.000000  1.000000 )  


     PseudoPot. # 1 for O  read from file:
     /home/gridsan/epan1/labutil/lab3_samples/pseudopotentials/O.pz-rrkjus.UPF
     MD5 check sum: 24fb942a68ef5d262e498166c462ef4a
     Pseudo is Ultrasoft, Zval =  6.0
     Generated by new atomic code, or converted to UPF format
     Using radial grid of 1269 points,  4 beta functions with: 
                l(1) =   0
                l(2) =   0
                l(3) =   1
                l(4) =   1
     Q(r) pseudized with 0 coefficients 


     PseudoPot. # 2 for Pb read from file:
     /home/gridsan/epan1/labutil/lab3_samples/pseudopotentials/Pb.pz-d-van.UPF
     MD5 check sum: 4e1e5920686a026ae26139ac417581ff
     Pseudo is Ultrasoft, Zval = 14.0
     Generated by new atomic code, or converted to UPF format
     Using radial grid of  899 points,  6 beta functions with: 
                l(1) =   0
                l(2) =   0
                l(3) =   1
                l(4) =   1
                l(5) =   2
                l(6) =   2
     Q(r) pseudized with  8 coefficients,  rinner =    1.000   1.000   1.000
                                                       1.000   1.000

     PseudoPot. # 3 for Ti read from file:
     /home/gridsan/epan1/labutil/lab3_samples/pseudopotentials/Ti.pz-sp-van_ak.UPF
     MD5 check sum: 545d0e6e05332b8871a8093f427cb0ca
     Pseudo is Ultrasoft, Zval = 12.0
     Generated by new atomic code, or converted to UPF format
     Using radial grid of  851 points,  6 beta functions with: 
                l(1) =   0
                l(2) =   0
                l(3) =   1
                l(4) =   1
                l(5) =   2
                l(6) =   2
     Q(r) pseudized with  8 coefficients,  rinner =    1.000   1.000   1.000
                                                       1.000   1.000

     atomic species   valence    mass     pseudopotential
        O              6.00    15.99900     O ( 1.00)
        Pb            14.00   207.20000     Pb( 1.00)
        Ti            12.00    47.86700     Ti( 1.00)

      8 Sym. Ops. (no inversion) found



   Cartesian axes

     site n.     atom                  positions (alat units)
         1           Pb  tau(   1) = (   0.0000000   0.0000000   0.0000000  )
         2           Ti  tau(   2) = (   0.5000000   0.5000000   0.4526314  )
         3           O   tau(   3) = (   0.0000000   0.5000000   0.5000000  )
         4           O   tau(   4) = (   0.5000000   0.0000000   0.5000000  )
         5           O   tau(   5) = (   0.5000000   0.5000000   0.0000000  )

     number of k points=     6
                       cart. coord. in units 2pi/alat
        k(    1) = (   0.1250000   0.1250000   0.1250000), wk =   0.2500000
        k(    2) = (   0.1250000   0.1250000   0.3750000), wk =   0.2500000
        k(    3) = (   0.1250000   0.3750000   0.3750000), wk =   0.5000000
        k(    4) = (   0.3750000   0.3750000   0.3750000), wk =   0.2500000
        k(    5) = (   0.3750000  -0.1250000   0.1250000), wk =   0.5000000
        k(    6) = (   0.3750000  -0.3750000   0.1250000), wk =   0.2500000

     Dense  grid:    24837 G-vectors     FFT dimensions: (  40,  40,  40)

     Smooth grid:     8733 G-vectors     FFT dimensions: (  25,  25,  25)

     Estimated max dynamical RAM per process >      51.66 MB

     Estimated total dynamical RAM >     103.32 MB

     Initial potential from superposition of free atoms

     starting charge      42.9982, renormalised to      44.0000
     Starting wfcs are   31 randomized atomic wfcs

     total cpu time spent up to now is        1.2 secs

     Self-consistent Calculation

     iteration #  1     ecut=    30.00 Ry     beta= 0.70
     Davidson diagonalization with overlap
     ethr =  1.00E-02,  avg # of iterations =  2.0

     total cpu time spent up to now is        1.4 secs

     total energy              =    -332.62779633 Ry
     estimated scf accuracy    <       1.08129336 Ry

     iteration #  2     ecut=    30.00 Ry     beta= 0.70
     Davidson diagonalization with overlap
     ethr =  2.46E-03,  avg # of iterations =  5.8

     total cpu time spent up to now is        1.8 secs

     total energy              =    -332.45727538 Ry
     estimated scf accuracy    <       3.60664897 Ry

     iteration #  3     ecut=    30.00 Ry     beta= 0.70
     Davidson diagonalization with overlap
     ethr =  2.46E-03,  avg # of iterations =  5.2

     total cpu time spent up to now is        2.2 secs

     total energy              =    -333.15156779 Ry
     estimated scf accuracy    <       0.21003101 Ry

     iteration #  4     ecut=    30.00 Ry     beta= 0.70
     Davidson diagonalization with overlap
     ethr =  4.77E-04,  avg # of iterations =  2.3

     total cpu time spent up to now is        2.4 secs

     total energy              =    -333.14984455 Ry
     estimated scf accuracy    <       0.05439310 Ry

     iteration #  5     ecut=    30.00 Ry     beta= 0.70
     Davidson diagonalization with overlap
     ethr =  1.24E-04,  avg # of iterations =  4.8

     total cpu time spent up to now is        2.8 secs

     total energy              =    -333.17596140 Ry
     estimated scf accuracy    <       0.02717437 Ry

     iteration #  6     ecut=    30.00 Ry     beta= 0.70
     Davidson diagonalization with overlap
     ethr =  6.18E-05,  avg # of iterations =  2.2

     total cpu time spent up to now is        3.1 secs

     total energy              =    -333.17388731 Ry
     estimated scf accuracy    <       0.01068846 Ry

     iteration #  7     ecut=    30.00 Ry     beta= 0.70
     Davidson diagonalization with overlap
     ethr =  2.43E-05,  avg # of iterations =  4.0

     total cpu time spent up to now is        3.4 secs

     total energy              =    -333.17681934 Ry
     estimated scf accuracy    <       0.00008052 Ry

     iteration #  8     ecut=    30.00 Ry     beta= 0.70
     Davidson diagonalization with overlap
     ethr =  1.83E-07,  avg # of iterations =  7.2

     total cpu time spent up to now is        3.8 secs

     total energy              =    -333.17689050 Ry
     estimated scf accuracy    <       0.00028309 Ry

     iteration #  9     ecut=    30.00 Ry     beta= 0.70
     Davidson diagonalization with overlap
     ethr =  1.83E-07,  avg # of iterations =  2.3

     total cpu time spent up to now is        4.0 secs

     total energy              =    -333.17685120 Ry
     estimated scf accuracy    <       0.00017016 Ry

     iteration # 10     ecut=    30.00 Ry     beta= 0.70
     Davidson diagonalization with overlap
     ethr =  1.83E-07,  avg # of iterations =  4.2

     total cpu time spent up to now is        4.4 secs

     total energy              =    -333.17687166 Ry
     estimated scf accuracy    <       0.00000529 Ry

     iteration # 11     ecut=    30.00 Ry     beta= 0.70
     Davidson diagonalization with overlap
     ethr =  1.20E-08,  avg # of iterations =  4.8

     total cpu time spent up to now is        4.7 secs

     total energy              =    -333.17687317 Ry
     estimated scf accuracy    <       0.00000012 Ry

     iteration # 12     ecut=    30.00 Ry     beta= 0.70
     Davidson diagonalization with overlap
     ethr =  2.72E-10,  avg # of iterations =  6.0

     total cpu time spent up to now is        5.1 secs

     total energy              =    -333.17687311 Ry
     estimated scf accuracy    <       0.00000040 Ry

     iteration # 13     ecut=    30.00 Ry     beta= 0.70
     Davidson diagonalization with overlap
     ethr =  2.72E-10,  avg # of iterations =  5.8

     total cpu time spent up to now is        5.4 secs

     End of self-consistent calculation

          k = 0.1250 0.1250 0.1250 (  1096 PWs)   bands (ev):

   -44.5541 -21.2977 -21.1517 -21.1509  -6.3683  -5.3450  -5.2241  -4.0704
    -4.0543  -4.0427  -3.8770  -3.8613   4.5584   7.2212   7.2970   8.0233
     8.8402   8.9784   9.5311   9.7626  10.0554  10.1064

          k = 0.1250 0.1250 0.3750 (  1095 PWs)   bands (ev):

   -44.5528 -21.3558 -21.1493 -21.1484  -5.8994  -5.2322  -5.0930  -4.1259
    -4.0661  -4.0359  -3.9592  -3.8507   3.7759   6.7608   7.0846   7.8015
     8.4712   8.4935   9.4021   9.8079  10.1774  10.8885

          k = 0.1250 0.3750 0.3750 (  1093 PWs)   bands (ev):

   -44.5516 -21.3524 -21.2043 -21.1469  -5.6897  -5.1405  -4.9573  -4.0999
    -4.0559  -3.9986  -3.9057  -3.7297   3.4544   6.5666   6.9817   7.1376
     7.4951   8.6986   9.2364   9.5160   9.9572  10.5987

          k = 0.3750 0.3750 0.3750 (  1082 PWs)   bands (ev):

   -44.5502 -21.3497 -21.2018 -21.2015  -5.3989  -5.2047  -5.1372  -4.0157
    -3.9983  -3.7326  -3.6506  -3.6188   4.0862   5.8227   5.9414   6.6348
     7.1282   7.2078   7.9238  10.4949  10.5655  10.7486

          k = 0.3750-0.1250 0.1250 (  1095 PWs)   bands (ev):

   -44.5528 -21.2953 -21.2078 -21.1490  -5.9945  -5.1943  -5.0774  -4.1190
    -4.0563  -4.0417  -3.9746  -3.8378   3.8319   6.8864   7.3330   7.7937
     8.3739   8.7647   9.1771   9.8096   9.9014  10.7642

          k = 0.3750-0.3750 0.1250 (  1093 PWs)   bands (ev):

   -44.5516 -21.2933 -21.2049 -21.2041  -5.8567  -5.0080  -4.9284  -4.0843
    -4.0495  -3.9836  -3.8997  -3.7904   3.5064   6.8117   6.8700   7.0821
     7.4005   8.6395   9.4530   9.4771   9.9468  10.7496

     highest occupied level (ev):    10.8885

!    total energy              =    -333.17687316 Ry
     estimated scf accuracy    <       0.00000008 Ry

     The total energy is the sum of the following terms:
     one-electron contribution =     -77.92066733 Ry
     hartree contribution      =      66.87819663 Ry
     xc contribution           =     -49.67126245 Ry
     ewald contribution        =    -272.46314001 Ry

     convergence has been achieved in  13 iterations

     Forces acting on atoms (cartesian axes, Ry/au):

     atom    1 type  2   force =     0.00000000    0.00000000   -0.02074296
     atom    2 type  3   force =     0.00000000    0.00000000    0.06484264
     atom    3 type  1   force =     0.00000000    0.00000000   -0.00234843
     atom    4 type  1   force =     0.00000000    0.00000000   -0.00234843
     atom    5 type  1   force =     0.00000000    0.00000000   -0.03940282
     The non-local contrib.  to forces
     atom    1 type  2   force =     0.00000000    0.00000000    0.01108717
     atom    2 type  3   force =     0.00000000    0.00000000   -0.03311283
     atom    3 type  1   force =     0.00000000    0.00000000   -0.11320570
     atom    4 type  1   force =     0.00000000    0.00000000   -0.11320570
     atom    5 type  1   force =     0.00000000    0.00000000    0.34210567
     The ionic contribution  to forces
     atom    1 type  2   force =     0.00000000    0.00000000   -1.22363105
     atom    2 type  3   force =     0.00000000    0.00000000    2.94734040
     atom    3 type  1   force =     0.00000000   -0.00000000    1.34881679
     atom    4 type  1   force =    -0.00000000    0.00000000    1.34881679
     atom    5 type  1   force =    -0.00000000   -0.00000000   -4.42134293
     The local contribution  to forces
     atom    1 type  2   force =     0.00000000    0.00000000    1.19175814
     atom    2 type  3   force =    -0.00000000   -0.00000000   -2.84939114
     atom    3 type  1   force =     0.00000000   -0.00000000   -1.23790117
     atom    4 type  1   force =    -0.00000000    0.00000000   -1.23790117
     atom    5 type  1   force =    -0.00000000   -0.00000000    4.03966053
     The core correction contribution to forces
     atom    1 type  2   force =     0.00000000    0.00000000    0.00000000
     atom    2 type  3   force =     0.00000000    0.00000000    0.00000000
     atom    3 type  1   force =     0.00000000    0.00000000    0.00000000
     atom    4 type  1   force =     0.00000000    0.00000000    0.00000000
     atom    5 type  1   force =     0.00000000    0.00000000    0.00000000
     The Hubbard contrib.    to forces
     atom    1 type  2   force =     0.00000000    0.00000000    0.00000000
     atom    2 type  3   force =     0.00000000    0.00000000    0.00000000
     atom    3 type  1   force =     0.00000000    0.00000000    0.00000000
     atom    4 type  1   force =     0.00000000    0.00000000    0.00000000
     atom    5 type  1   force =     0.00000000    0.00000000    0.00000000
     The SCF correction term to forces
     atom    1 type  2   force =    -0.00000000   -0.00000000    0.00000000
     atom    2 type  3   force =     0.00000000    0.00000000    0.00000000
     atom    3 type  1   force =     0.00000000    0.00000000   -0.00006052
     atom    4 type  1   force =     0.00000000    0.00000000   -0.00006052
     atom    5 type  1   force =     0.00000000   -0.00000000    0.00017175

     Total force =     0.039543     Total SCF correction =     0.000192


     Computing stress (Cartesian axis) and pressure

          total   stress  (Ry/bohr**3)                   (kbar)     P=        1.21
  -0.00011772   0.00000000   0.00000000          -17.32        0.00        0.00
   0.00000000  -0.00011772   0.00000000            0.00      -17.32        0.00
   0.00000000   0.00000000   0.00026015            0.00        0.00       38.27


     BFGS Geometry Optimization
     Energy error            =      0.0E+00 Ry
     Gradient error          =      3.9E-02 Ry/Bohr

     number of scf cycles    =   1
     number of bfgs steps    =   0

     energy             new  =    -333.1768731647 Ry

     new trust radius        =       0.0394028181 bohr
     new conv_thr            =       0.0000001000 Ry


ATOMIC_POSITIONS (angstrom)
Pb            0.0000000000        0.0000000000        0.0000000000    0   0   0
Ti            1.9400000000        1.9400000000        1.7562100000    0   0   0
O             0.0000000000        1.9400000000        1.9387572629
O             1.9400000000        0.0000000000        1.9387572629
O             1.9400000000        1.9400000000       -0.0208510734



     Writing config-only to output data dir /home/gridsan/epan1/labutil/lab3_samples/problem2/Lab3/PbTiO3_a_3.88_ecut_30_nk_4_displ_-0.04736842105263159/pwscf.save/
     NEW-OLD atomic charge density approx. for the potential

     total cpu time spent up to now is        6.5 secs

     Self-consistent Calculation

     iteration #  1     ecut=    30.00 Ry     beta= 0.70
     Davidson diagonalization with overlap
     ethr =  1.00E-06,  avg # of iterations =  6.2

     total cpu time spent up to now is        6.9 secs

     total energy              =    -333.17796817 Ry
     estimated scf accuracy    <       0.00034942 Ry

     iteration #  2     ecut=    30.00 Ry     beta= 0.70
     Davidson diagonalization with overlap
     ethr =  7.94E-07,  avg # of iterations =  5.0

     total cpu time spent up to now is        7.3 secs

     total energy              =    -333.17797112 Ry
     estimated scf accuracy    <       0.00047973 Ry

     iteration #  3     ecut=    30.00 Ry     beta= 0.70
     Davidson diagonalization with overlap
     ethr =  7.94E-07,  avg # of iterations =  4.5

     total cpu time spent up to now is        7.6 secs

     total energy              =    -333.17807811 Ry
     estimated scf accuracy    <       0.00004898 Ry

     iteration #  4     ecut=    30.00 Ry     beta= 0.70
     Davidson diagonalization with overlap
     ethr =  1.11E-07,  avg # of iterations =  3.5

     total cpu time spent up to now is        7.9 secs

     total energy              =    -333.17808491 Ry
     estimated scf accuracy    <       0.00000409 Ry

     iteration #  5     ecut=    30.00 Ry     beta= 0.70
     Davidson diagonalization with overlap
     ethr =  9.29E-09,  avg # of iterations =  5.2

     total cpu time spent up to now is        8.3 secs

     total energy              =    -333.17808718 Ry
     estimated scf accuracy    <       0.00000139 Ry

     iteration #  6     ecut=    30.00 Ry     beta= 0.70
     Davidson diagonalization with overlap
     ethr =  3.16E-09,  avg # of iterations =  2.0

     total cpu time spent up to now is        8.5 secs

     total energy              =    -333.17808710 Ry
     estimated scf accuracy    <       0.00000057 Ry

     iteration #  7     ecut=    30.00 Ry     beta= 0.70
     Davidson diagonalization with overlap
     ethr =  1.30E-09,  avg # of iterations =  4.5

     total cpu time spent up to now is        8.9 secs

     End of self-consistent calculation

          k = 0.1250 0.1250 0.1250 (  1096 PWs)   bands (ev):

   -44.5934 -21.3045 -21.1922 -21.1914  -6.3710  -5.3373  -5.2332  -4.0614
    -4.0477  -4.0362  -3.8697  -3.8563   4.5658   7.2272   7.2884   8.0172
     8.8786   9.0137   9.5654   9.7646  10.0429  10.1180

          k = 0.1250 0.1250 0.3750 (  1095 PWs)   bands (ev):

   -44.5921 -21.3624 -21.1899 -21.1889  -5.9095  -5.2176  -5.1038  -4.1176
    -4.0570  -4.0299  -3.9543  -3.8431   3.7935   6.7620   7.1085   7.7875
     8.4738   8.5353   9.3981   9.8140  10.1649  10.8856

          k = 0.1250 0.3750 0.3750 (  1093 PWs)   bands (ev):

   -44.5909 -21.3590 -21.2446 -21.1875  -5.6985  -5.1254  -4.9662  -4.0917
    -4.0474  -3.9916  -3.8992  -3.7265   3.4659   6.5877   6.9701   7.1367
     7.4905   8.6909   9.2724   9.5080   9.9731  10.6069

          k = 0.3750 0.3750 0.3750 (  1082 PWs)   bands (ev):

   -44.5896 -21.3563 -21.2421 -21.2419  -5.3905  -5.2057  -5.1447  -4.0069
    -3.9920  -3.7220  -3.6462  -3.6175   4.0944   5.8431   5.9416   6.6299
     7.1237   7.1900   7.9354  10.5180  10.5846  10.7384

          k = 0.3750-0.1250 0.1250 (  1095 PWs)   bands (ev):

   -44.5922 -21.3021 -21.2481 -21.1896  -5.9919  -5.1916  -5.0868  -4.1118
    -4.0484  -4.0349  -3.9674  -3.8326   3.8397   6.8772   7.3384   7.7953
     8.3782   8.7709   9.2024   9.8234   9.9202  10.7735

          k = 0.3750-0.3750 0.1250 (  1093 PWs)   bands (ev):

   -44.5909 -21.3002 -21.2452 -21.2444  -5.8436  -5.0164  -4.9384  -4.0783
    -4.0421  -3.9785  -3.8943  -3.7792   3.5079   6.8053   6.8722   7.1073
     7.4194   8.6398   9.4605   9.4722   9.9484  10.7405

     highest occupied level (ev):    10.8856

!    total energy              =    -333.17808725 Ry
     estimated scf accuracy    <       0.00000003 Ry

     The total energy is the sum of the following terms:
     one-electron contribution =     -77.61221358 Ry
     hartree contribution      =      66.71418278 Ry
     xc contribution           =     -49.65986975 Ry
     ewald contribution        =    -272.62018669 Ry

     convergence has been achieved in   7 iterations

     Forces acting on atoms (cartesian axes, Ry/au):

     atom    1 type  2   force =     0.00000000    0.00000000   -0.02119322
     atom    2 type  3   force =     0.00000000    0.00000000    0.05375423
     atom    3 type  1   force =     0.00000000    0.00000000   -0.00545134
     atom    4 type  1   force =     0.00000000    0.00000000   -0.00545134
     atom    5 type  1   force =     0.00000000    0.00000000   -0.02165832
     The non-local contrib.  to forces
     atom    1 type  2   force =     0.00000000    0.00000000    0.01180527
     atom    2 type  3   force =     0.00000000    0.00000000   -0.02898530
     atom    3 type  1   force =     0.00000000    0.00000000   -0.12290435
     atom    4 type  1   force =     0.00000000    0.00000000   -0.12290435
     atom    5 type  1   force =     0.00000000    0.00000000    0.32335490
     The ionic contribution  to forces
     atom    1 type  2   force =     0.00000000    0.00000000   -1.16548993
     atom    2 type  3   force =     0.00000000    0.00000000    2.44921631
     atom    3 type  1   force =     0.00000000    0.00000000    1.29092164
     atom    4 type  1   force =     0.00000000    0.00000000    1.29092164
     atom    5 type  1   force =    -0.00000000   -0.00000000   -3.86556966
     The local contribution  to forces
     atom    1 type  2   force =     0.00000000    0.00000000    1.13259578
     atom    2 type  3   force =    -0.00000000   -0.00000000   -2.36677963
     atom    3 type  1   force =     0.00000000   -0.00000000   -1.17350522
     atom    4 type  1   force =    -0.00000000    0.00000000   -1.17350522
     atom    5 type  1   force =    -0.00000000   -0.00000000    3.52059015
     The core correction contribution to forces
     atom    1 type  2   force =     0.00000000    0.00000000    0.00000000
     atom    2 type  3   force =     0.00000000    0.00000000    0.00000000
     atom    3 type  1   force =     0.00000000    0.00000000    0.00000000
     atom    4 type  1   force =     0.00000000    0.00000000    0.00000000
     atom    5 type  1   force =     0.00000000    0.00000000    0.00000000
     The Hubbard contrib.    to forces
     atom    1 type  2   force =     0.00000000    0.00000000    0.00000000
     atom    2 type  3   force =     0.00000000    0.00000000    0.00000000
     atom    3 type  1   force =     0.00000000    0.00000000    0.00000000
     atom    4 type  1   force =     0.00000000    0.00000000    0.00000000
     atom    5 type  1   force =     0.00000000    0.00000000    0.00000000
     The SCF correction term to forces
     atom    1 type  2   force =    -0.00000000    0.00000000   -0.00000000
     atom    2 type  3   force =    -0.00000000   -0.00000000    0.00000000
     atom    3 type  1   force =     0.00000000   -0.00000000    0.00003752
     atom    4 type  1   force =    -0.00000000    0.00000000    0.00003752
     atom    5 type  1   force =    -0.00000000   -0.00000000   -0.00003278

     Total force =     0.022990     Total SCF correction =     0.000062


     Computing stress (Cartesian axis) and pressure

          total   stress  (Ry/bohr**3)                   (kbar)     P=       -5.78
  -0.00013350   0.00000000   0.00000000          -19.64        0.00        0.00
   0.00000000  -0.00013350   0.00000000            0.00      -19.64        0.00
   0.00000000   0.00000000   0.00014912            0.00        0.00       21.94

     Energy error            =      1.2E-03 Ry
     Gradient error          =      2.2E-02 Ry/Bohr

     number of scf cycles    =   2
     number of bfgs steps    =   1

     energy             old  =    -333.1768731647 Ry
     energy             new  =    -333.1780872466 Ry

     CASE: energy            _new < energy            _old

     new trust radius        =       0.0433430999 bohr
     new conv_thr            =       0.0000000121 Ry


ATOMIC_POSITIONS (angstrom)
Pb            0.0000000000        0.0000000000        0.0000000000    0   0   0
Ti            1.9400000000        1.9400000000        1.7562100000    0   0   0
O             0.0000000000        1.9400000000        1.9333530769
O             1.9400000000        0.0000000000        1.9333530769
O             1.9400000000        1.9400000000       -0.0437872541



     Writing config-only to output data dir /home/gridsan/epan1/labutil/lab3_samples/problem2/Lab3/PbTiO3_a_3.88_ecut_30_nk_4_displ_-0.04736842105263159/pwscf.save/
     NEW-OLD atomic charge density approx. for the potential

     total cpu time spent up to now is       10.0 secs

     Self-consistent Calculation

     iteration #  1     ecut=    30.00 Ry     beta= 0.70
     Davidson diagonalization with overlap
     ethr =  1.00E-06,  avg # of iterations =  7.3

     total cpu time spent up to now is       10.5 secs

     total energy              =    -333.17867571 Ry
     estimated scf accuracy    <       0.00041787 Ry

     iteration #  2     ecut=    30.00 Ry     beta= 0.70
     Davidson diagonalization with overlap
     ethr =  9.50E-07,  avg # of iterations =  5.0

     total cpu time spent up to now is       10.8 secs

     total energy              =    -333.17867572 Ry
     estimated scf accuracy    <       0.00059373 Ry

     iteration #  3     ecut=    30.00 Ry     beta= 0.70
     Davidson diagonalization with overlap
     ethr =  9.50E-07,  avg # of iterations =  4.5

     total cpu time spent up to now is       11.1 secs

     total energy              =    -333.17880400 Ry
     estimated scf accuracy    <       0.00004494 Ry

     iteration #  4     ecut=    30.00 Ry     beta= 0.70
     Davidson diagonalization with overlap
     ethr =  1.02E-07,  avg # of iterations =  3.3

     total cpu time spent up to now is       11.5 secs

     total energy              =    -333.17881067 Ry
     estimated scf accuracy    <       0.00000532 Ry

     iteration #  5     ecut=    30.00 Ry     beta= 0.70
     Davidson diagonalization with overlap
     ethr =  1.21E-08,  avg # of iterations =  4.8

     total cpu time spent up to now is       11.8 secs

     total energy              =    -333.17881304 Ry
     estimated scf accuracy    <       0.00000062 Ry

     iteration #  6     ecut=    30.00 Ry     beta= 0.70
     Davidson diagonalization with overlap
     ethr =  1.41E-09,  avg # of iterations =  3.0

     total cpu time spent up to now is       12.1 secs

     total energy              =    -333.17881304 Ry
     estimated scf accuracy    <       0.00000018 Ry

     iteration #  7     ecut=    30.00 Ry     beta= 0.70
     Davidson diagonalization with overlap
     ethr =  4.03E-10,  avg # of iterations =  4.7

     total cpu time spent up to now is       12.4 secs

     total energy              =    -333.17881312 Ry
     estimated scf accuracy    <       0.00000004 Ry

     iteration #  8     ecut=    30.00 Ry     beta= 0.70
     Davidson diagonalization with overlap
     ethr =  1.02E-10,  avg # of iterations =  2.0

     total cpu time spent up to now is       12.7 secs

     total energy              =    -333.17881311 Ry
     estimated scf accuracy    <       0.00000002 Ry

     iteration #  9     ecut=    30.00 Ry     beta= 0.70
     Davidson diagonalization with overlap
     ethr =  5.10E-11,  avg # of iterations =  4.7

     total cpu time spent up to now is       13.0 secs

     End of self-consistent calculation

          k = 0.1250 0.1250 0.1250 (  1096 PWs)   bands (ev):

   -44.6333 -21.3141 -21.2333 -21.2324  -6.3732  -5.3290  -5.2443  -4.0527
    -4.0414  -4.0299  -3.8626  -3.8517   4.5728   7.2323   7.2788   8.0140
     8.9200   9.0437   9.6103   9.7711  10.0277  10.1270

          k = 0.1250 0.1250 0.3750 (  1095 PWs)   bands (ev):

   -44.6320 -21.3717 -21.2309 -21.2300  -5.9208  -5.2009  -5.1168  -4.1097
    -4.0482  -4.0241  -3.9497  -3.8357   3.8117   6.7638   7.1355   7.7758
     8.4727   8.5756   9.3936   9.8236  10.1503  10.8802

          k = 0.1250 0.3750 0.3750 (  1093 PWs)   bands (ev):

   -44.6308 -21.3684 -21.2855 -21.2285  -5.7087  -5.1086  -4.9752  -4.0837
    -4.0394  -3.9848  -3.8929  -3.7238   3.4771   6.6117   6.9522   7.1363
     7.4836   8.6811   9.3077   9.4981   9.9873  10.6181

          k = 0.3750 0.3750 0.3750 (  1082 PWs)   bands (ev):

   -44.6295 -21.3657 -21.2830 -21.2827  -5.3819  -5.2049  -5.1528  -3.9984
    -3.9861  -3.7119  -3.6415  -3.6163   4.1014   5.8621   5.9393   6.6280
     7.1132   7.1655   7.9455  10.5432  10.6045  10.7276

          k = 0.3750-0.1250 0.1250 (  1095 PWs)   bands (ev):

   -44.6320 -21.3117 -21.2889 -21.2306  -5.9884  -5.1890  -5.0970  -4.1049
    -4.0409  -4.0284  -3.9601  -3.8275   3.8473   6.8651   7.3406   7.7948
     8.3818   8.7716   9.2312   9.8391   9.9435  10.7831

          k = 0.3750-0.3750 0.1250 (  1093 PWs)   bands (ev):

   -44.6308 -21.3098 -21.2860 -21.2852  -5.8280  -5.0253  -4.9493  -4.0726
    -4.0351  -3.9735  -3.8890  -3.7679   3.5085   6.7976   6.8686   7.1290
     7.4366   8.6389   9.4640   9.4681   9.9528  10.7302

     highest occupied level (ev):    10.8802

!    total energy              =    -333.17881311 Ry
     estimated scf accuracy    <          5.5E-09 Ry

     The total energy is the sum of the following terms:
     one-electron contribution =     -77.35777241 Ry
     hartree contribution      =      66.57802430 Ry
     xc contribution           =     -49.64979086 Ry
     ewald contribution        =    -272.74927414 Ry

     convergence has been achieved in   9 iterations

     Forces acting on atoms (cartesian axes, Ry/au):

     atom    1 type  2   force =     0.00000000    0.00000000   -0.02112314
     atom    2 type  3   force =     0.00000000    0.00000000    0.04345061
     atom    3 type  1   force =     0.00000000    0.00000000   -0.00838331
     atom    4 type  1   force =     0.00000000    0.00000000   -0.00838331
     atom    5 type  1   force =     0.00000000    0.00000000   -0.00556084
     The non-local contrib.  to forces
     atom    1 type  2   force =     0.00000000    0.00000000    0.01568293
     atom    2 type  3   force =     0.00000000    0.00000000   -0.02526430
     atom    3 type  1   force =     0.00000000    0.00000000   -0.13180480
     atom    4 type  1   force =     0.00000000    0.00000000   -0.13180480
     atom    5 type  1   force =     0.00000000    0.00000000    0.29905993
     The ionic contribution  to forces
     atom    1 type  2   force =     0.00000000    0.00000000   -1.15707052
     atom    2 type  3   force =     0.00000000    0.00000000    1.96417370
     atom    3 type  1   force =     0.00000000   -0.00000000    1.23835015
     atom    4 type  1   force =    -0.00000000    0.00000000    1.23835015
     atom    5 type  1   force =    -0.00000000   -0.00000000   -3.28380347
     The local contribution  to forces
     atom    1 type  2   force =     0.00000000    0.00000000    1.12028832
     atom    2 type  3   force =    -0.00000000   -0.00000000   -1.89544461
     atom    3 type  1   force =     0.00000000   -0.00000000   -1.11493716
     atom    4 type  1   force =    -0.00000000    0.00000000   -1.11493716
     atom    5 type  1   force =    -0.00000000   -0.00000000    2.97921532
     The core correction contribution to forces
     atom    1 type  2   force =     0.00000000    0.00000000    0.00000000
     atom    2 type  3   force =     0.00000000    0.00000000    0.00000000
     atom    3 type  1   force =     0.00000000    0.00000000    0.00000000
     atom    4 type  1   force =     0.00000000    0.00000000    0.00000000
     atom    5 type  1   force =     0.00000000    0.00000000    0.00000000
     The Hubbard contrib.    to forces
     atom    1 type  2   force =     0.00000000    0.00000000    0.00000000
     atom    2 type  3   force =     0.00000000    0.00000000    0.00000000
     atom    3 type  1   force =     0.00000000    0.00000000    0.00000000
     atom    4 type  1   force =     0.00000000    0.00000000    0.00000000
     atom    5 type  1   force =     0.00000000    0.00000000    0.00000000
     The SCF correction term to forces
     atom    1 type  2   force =    -0.00000000    0.00000000   -0.00000000
     atom    2 type  3   force =     0.00000000    0.00000000   -0.00000000
     atom    3 type  1   force =    -0.00000000   -0.00000000    0.00001360
     atom    4 type  1   force =     0.00000000    0.00000000    0.00001360
     atom    5 type  1   force =    -0.00000000   -0.00000000   -0.00002751

     Total force =     0.013095     Total SCF correction =     0.000034


     Computing stress (Cartesian axis) and pressure

          total   stress  (Ry/bohr**3)                   (kbar)     P=      -11.49
  -0.00014203   0.00000000   0.00000000          -20.89        0.00        0.00
   0.00000000  -0.00014203   0.00000000            0.00      -20.89        0.00
   0.00000000   0.00000000   0.00004969            0.00        0.00        7.31

     Energy error            =      7.3E-04 Ry
     Gradient error          =      8.4E-03 Ry/Bohr

     number of scf cycles    =   3
     number of bfgs steps    =   2

     energy             old  =    -333.1780872466 Ry
     energy             new  =    -333.1788131120 Ry

     CASE: energy            _new < energy            _old

     new trust radius        =       0.0322122023 bohr
     new conv_thr            =       0.0000000073 Ry


ATOMIC_POSITIONS (angstrom)
Pb            0.0000000000        0.0000000000        0.0000000000    0   0   0
Ti            1.9400000000        1.9400000000        1.7562100000    0   0   0
O             0.0000000000        1.9400000000        1.9237618075
O             1.9400000000        0.0000000000        1.9237618075
O             1.9400000000        1.9400000000       -0.0608332174



     Writing config-only to output data dir /home/gridsan/epan1/labutil/lab3_samples/problem2/Lab3/PbTiO3_a_3.88_ecut_30_nk_4_displ_-0.04736842105263159/pwscf.save/
     NEW-OLD atomic charge density approx. for the potential

     total cpu time spent up to now is       14.1 secs

     Self-consistent Calculation

     iteration #  1     ecut=    30.00 Ry     beta= 0.70
     Davidson diagonalization with overlap
     ethr =  1.00E-06,  avg # of iterations =  7.0

     total cpu time spent up to now is       14.5 secs

     total energy              =    -333.17911368 Ry
     estimated scf accuracy    <       0.00023766 Ry

     iteration #  2     ecut=    30.00 Ry     beta= 0.70
     Davidson diagonalization with overlap
     ethr =  5.40E-07,  avg # of iterations =  4.8

     total cpu time spent up to now is       14.9 secs

     total energy              =    -333.17910645 Ry
     estimated scf accuracy    <       0.00027980 Ry

     iteration #  3     ecut=    30.00 Ry     beta= 0.70
     Davidson diagonalization with overlap
     ethr =  5.40E-07,  avg # of iterations =  4.5

     total cpu time spent up to now is       15.2 secs

     total energy              =    -333.17917389 Ry
     estimated scf accuracy    <       0.00003640 Ry

     iteration #  4     ecut=    30.00 Ry     beta= 0.70
     Davidson diagonalization with overlap
     ethr =  8.27E-08,  avg # of iterations =  3.0

     total cpu time spent up to now is       15.5 secs

     total energy              =    -333.17917769 Ry
     estimated scf accuracy    <       0.00000360 Ry

     iteration #  5     ecut=    30.00 Ry     beta= 0.70
     Davidson diagonalization with overlap
     ethr =  8.18E-09,  avg # of iterations =  5.2

     total cpu time spent up to now is       15.9 secs

     total energy              =    -333.17917964 Ry
     estimated scf accuracy    <       0.00000070 Ry

     iteration #  6     ecut=    30.00 Ry     beta= 0.70
     Davidson diagonalization with overlap
     ethr =  1.58E-09,  avg # of iterations =  3.8

     total cpu time spent up to now is       16.2 secs

     total energy              =    -333.17917966 Ry
     estimated scf accuracy    <       0.00000030 Ry

     iteration #  7     ecut=    30.00 Ry     beta= 0.70
     Davidson diagonalization with overlap
     ethr =  6.75E-10,  avg # of iterations =  4.2

     total cpu time spent up to now is       16.5 secs

     total energy              =    -333.17917971 Ry
     estimated scf accuracy    <       0.00000001 Ry

     iteration #  8     ecut=    30.00 Ry     beta= 0.70
     Davidson diagonalization with overlap
     ethr =  2.36E-11,  avg # of iterations =  5.2

     total cpu time spent up to now is       16.9 secs

     End of self-consistent calculation

          k = 0.1250 0.1250 0.1250 (  1096 PWs)   bands (ev):

   -44.6580 -21.3199 -21.2591 -21.2583  -6.3744  -5.3239  -5.2551  -4.0474
    -4.0378  -4.0263  -3.8586  -3.8492   4.5772   7.2365   7.2723   8.0152
     8.9502   9.0601   9.6507   9.7800  10.0131  10.1281

          k = 0.1250 0.1250 0.3750 (  1095 PWs)   bands (ev):

   -44.6568 -21.3773 -21.2568 -21.2558  -5.9300  -5.1886  -5.1293  -4.1046
    -4.0428  -4.0207  -3.9470  -3.8312   3.8247   6.7670   7.1602   7.7720
     8.4649   8.6012   9.3881   9.8340  10.1370  10.8726

          k = 0.1250 0.3750 0.3750 (  1093 PWs)   bands (ev):

   -44.6555 -21.3740 -21.3113 -21.2544  -5.7175  -5.0963  -4.9819  -4.0788
    -4.0346  -3.9805  -3.8890  -3.7227   3.4841   6.6324   6.9328   7.1371
     7.4762   8.6724   9.3295   9.4888   9.9951  10.6274

          k = 0.3750 0.3750 0.3750 (  1082 PWs)   bands (ev):

   -44.6542 -21.3713 -21.3088 -21.3086  -5.3759  -5.2035  -5.1596  -3.9932
    -3.9827  -3.7055  -3.6383  -3.6159   4.1043   5.8741   5.9346   6.6308
     7.0988   7.1403   7.9512  10.5614  10.6177  10.7187

          k = 0.3750-0.1250 0.1250 (  1095 PWs)   bands (ev):

   -44.6568 -21.3179 -21.3144 -21.2564  -5.9852  -5.1886  -5.1054  -4.1009
    -4.0365  -4.0245  -3.9551  -3.8245   3.8519   6.8534   7.3385   7.7942
     8.3845   8.7656   9.2519   9.8507   9.9632  10.7889

          k = 0.3750-0.3750 0.1250 (  1093 PWs)   bands (ev):

   -44.6556 -21.3161 -21.3114 -21.3111  -5.8150  -5.0326  -4.9582  -4.0694
    -4.0308  -3.9704  -3.8856  -3.7606   3.5073   6.7910   6.8614   7.1394
     7.4438   8.6372   9.4613   9.4648   9.9581  10.7209

     highest occupied level (ev):    10.8726

!    total energy              =    -333.17917971 Ry
     estimated scf accuracy    <          2.3E-09 Ry

     The total energy is the sum of the following terms:
     one-electron contribution =     -77.24676029 Ry
     hartree contribution      =      66.51609249 Ry
     xc contribution           =     -49.64430284 Ry
     ewald contribution        =    -272.80420907 Ry

     convergence has been achieved in   8 iterations

     Forces acting on atoms (cartesian axes, Ry/au):

     atom    1 type  2   force =     0.00000000    0.00000000   -0.02060189
     atom    2 type  3   force =     0.00000000    0.00000000    0.03702539
     atom    3 type  1   force =     0.00000000    0.00000000   -0.00982575
     atom    4 type  1   force =     0.00000000    0.00000000   -0.00982575
     atom    5 type  1   force =     0.00000000    0.00000000    0.00322801
     The non-local contrib.  to forces
     atom    1 type  2   force =     0.00000000    0.00000000    0.02264239
     atom    2 type  3   force =     0.00000000    0.00000000   -0.02275256
     atom    3 type  1   force =     0.00000000    0.00000000   -0.13582089
     atom    4 type  1   force =     0.00000000    0.00000000   -0.13582089
     atom    5 type  1   force =     0.00000000    0.00000000    0.27670739
     The ionic contribution  to forces
     atom    1 type  2   force =     0.00000000    0.00000000   -1.22748175
     atom    2 type  3   force =     0.00000000    0.00000000    1.68649572
     atom    3 type  1   force =     0.00000000   -0.00000000    1.21427551
     atom    4 type  1   force =    -0.00000000    0.00000000    1.21427551
     atom    5 type  1   force =    -0.00000000   -0.00000000   -2.88756499
     The local contribution  to forces
     atom    1 type  2   force =    -0.00000000   -0.00000000    1.18422233
     atom    2 type  3   force =    -0.00000000   -0.00000000   -1.62671359
     atom    3 type  1   force =     0.00000000   -0.00000000   -1.08825045
     atom    4 type  1   force =    -0.00000000    0.00000000   -1.08825045
     atom    5 type  1   force =    -0.00000000   -0.00000000    2.61406977
     The core correction contribution to forces
     atom    1 type  2   force =     0.00000000    0.00000000    0.00000000
     atom    2 type  3   force =     0.00000000    0.00000000    0.00000000
     atom    3 type  1   force =     0.00000000    0.00000000    0.00000000
     atom    4 type  1   force =     0.00000000    0.00000000    0.00000000
     atom    5 type  1   force =     0.00000000    0.00000000    0.00000000
     The Hubbard contrib.    to forces
     atom    1 type  2   force =     0.00000000    0.00000000    0.00000000
     atom    2 type  3   force =     0.00000000    0.00000000    0.00000000
     atom    3 type  1   force =     0.00000000    0.00000000    0.00000000
     atom    4 type  1   force =     0.00000000    0.00000000    0.00000000
     atom    5 type  1   force =     0.00000000    0.00000000    0.00000000
     The SCF correction term to forces
     atom    1 type  2   force =    -0.00000000    0.00000000    0.00000000
     atom    2 type  3   force =     0.00000000    0.00000000    0.00000000
     atom    3 type  1   force =    -0.00000000    0.00000000   -0.00002036
     atom    4 type  1   force =     0.00000000   -0.00000000   -0.00002036
     atom    5 type  1   force =     0.00000000    0.00000000    0.00002539

     Total force =     0.014266     Total SCF correction =     0.000038


     Computing stress (Cartesian axis) and pressure

          total   stress  (Ry/bohr**3)                   (kbar)     P=      -14.99
  -0.00014662   0.00000000   0.00000000          -21.57        0.00        0.00
   0.00000000  -0.00014662   0.00000000            0.00      -21.57        0.00
   0.00000000   0.00000000  -0.00001249            0.00        0.00       -1.84

     Energy error            =      3.7E-04 Ry
     Gradient error          =      9.8E-03 Ry/Bohr

     number of scf cycles    =   4
     number of bfgs steps    =   3

     energy             old  =    -333.1788131120 Ry
     energy             new  =    -333.1791797128 Ry

     CASE: energy            _new < energy            _old

     new trust radius        =       0.0354334225 bohr
     new conv_thr            =       0.0000000037 Ry


ATOMIC_POSITIONS (angstrom)
Pb            0.0000000000        0.0000000000        0.0000000000    0   0   0
Ti            1.9400000000        1.9400000000        1.7562100000    0   0   0
O             0.0000000000        1.9400000000        1.9059973412
O             1.9400000000        0.0000000000        1.9059973412
O             1.9400000000        1.9400000000       -0.0795837771



     Writing config-only to output data dir /home/gridsan/epan1/labutil/lab3_samples/problem2/Lab3/PbTiO3_a_3.88_ecut_30_nk_4_displ_-0.04736842105263159/pwscf.save/
     NEW-OLD atomic charge density approx. for the potential

     total cpu time spent up to now is       19.1 secs

     Self-consistent Calculation

     iteration #  1     ecut=    30.00 Ry     beta= 0.70
     Davidson diagonalization with overlap
     ethr =  1.00E-06,  avg # of iterations =  8.2

     total cpu time spent up to now is       19.5 secs

     total energy              =    -333.17955933 Ry
     estimated scf accuracy    <       0.00035159 Ry

     iteration #  2     ecut=    30.00 Ry     beta= 0.70
     Davidson diagonalization with overlap
     ethr =  7.99E-07,  avg # of iterations =  4.5

     total cpu time spent up to now is       19.9 secs

     total energy              =    -333.17955757 Ry
     estimated scf accuracy    <       0.00024253 Ry

     iteration #  3     ecut=    30.00 Ry     beta= 0.70
     Davidson diagonalization with overlap
     ethr =  5.51E-07,  avg # of iterations =  4.5

     total cpu time spent up to now is       20.2 secs

     total energy              =    -333.17961948 Ry
     estimated scf accuracy    <       0.00009525 Ry

     iteration #  4     ecut=    30.00 Ry     beta= 0.70
     Davidson diagonalization with overlap
     ethr =  2.16E-07,  avg # of iterations =  3.3

     total cpu time spent up to now is       20.5 secs

     total energy              =    -333.17962926 Ry
     estimated scf accuracy    <       0.00000618 Ry

     iteration #  5     ecut=    30.00 Ry     beta= 0.70
     Davidson diagonalization with overlap
     ethr =  1.40E-08,  avg # of iterations =  5.7

     total cpu time spent up to now is       20.9 secs

     total energy              =    -333.17963484 Ry
     estimated scf accuracy    <       0.00000801 Ry

     iteration #  6     ecut=    30.00 Ry     beta= 0.70
     Davidson diagonalization with overlap
     ethr =  1.40E-08,  avg # of iterations =  1.8

     total cpu time spent up to now is       21.2 secs

     total energy              =    -333.17963378 Ry
     estimated scf accuracy    <       0.00000467 Ry

     iteration #  7     ecut=    30.00 Ry     beta= 0.70
     Davidson diagonalization with overlap
     ethr =  1.06E-08,  avg # of iterations =  3.3

     total cpu time spent up to now is       21.5 secs

     total energy              =    -333.17963446 Ry
     estimated scf accuracy    <       0.00000034 Ry

     iteration #  8     ecut=    30.00 Ry     beta= 0.70
     Davidson diagonalization with overlap
     ethr =  7.83E-10,  avg # of iterations =  5.0

     total cpu time spent up to now is       21.8 secs

     total energy              =    -333.17963461 Ry
     estimated scf accuracy    <       0.00000002 Ry

     iteration #  9     ecut=    30.00 Ry     beta= 0.70
     Davidson diagonalization with overlap
     ethr =  5.47E-11,  avg # of iterations =  3.3

     total cpu time spent up to now is       22.1 secs

     total energy              =    -333.17963461 Ry
     estimated scf accuracy    <       0.00000001 Ry

     iteration # 10     ecut=    30.00 Ry     beta= 0.70
     Davidson diagonalization with overlap
     ethr =  2.94E-11,  avg # of iterations =  4.5

     total cpu time spent up to now is       22.4 secs

     End of self-consistent calculation

          k = 0.1250 0.1250 0.1250 (  1096 PWs)   bands (ev):

   -44.6826 -21.3268 -21.2851 -21.2843  -6.3758  -5.3195  -5.2708  -4.0419
    -4.0340  -4.0224  -3.8547  -3.8461   4.5820   7.2422   7.2665   8.0202
     8.9820   9.0725   9.7030   9.7938   9.9921  10.1208

          k = 0.1250 0.1250 0.3750 (  1095 PWs)   bands (ev):

   -44.6813 -21.3839 -21.2828 -21.2819  -5.9418  -5.1749  -5.1472  -4.0991
    -4.0370  -4.0172  -3.9436  -3.8266   3.8396   6.7723   7.1940   7.7727
     8.4468   8.6256   9.3774   9.8485  10.1185  10.8601

          k = 0.1250 0.3750 0.3750 (  1093 PWs)   bands (ev):

   -44.6801 -21.3806 -21.3375 -21.2804  -5.7293  -5.0837  -4.9900  -4.0735
    -4.0296  -3.9757  -3.8846  -3.7212   3.4910   6.6587   6.9038   7.1387
     7.4658   8.6606   9.3477   9.4760  10.0010  10.6382

          k = 0.3750 0.3750 0.3750 (  1082 PWs)   bands (ev):

   -44.6788 -21.3780 -21.3349 -21.3347  -5.3698  -5.2015  -5.1687  -3.9877
    -3.9791  -3.6988  -3.6344  -3.6149   4.1045   5.8853   5.9259   6.6376
     7.0752   7.1034   7.9571  10.5805  10.6291  10.7082

          k = 0.3750-0.1250 0.1250 (  1095 PWs)   bands (ev):

   -44.6813 -21.3409 -21.3243 -21.2824  -5.9814  -5.1907  -5.1163  -4.0967
    -4.0318  -4.0204  -3.9488  -3.8209   3.8561   6.8368   7.3320   7.7944
     8.3877   8.7518   9.2727   9.8621   9.9870  10.7940

          k = 0.3750-0.3750 0.1250 (  1093 PWs)   bands (ev):

   -44.6801 -21.3381 -21.3372 -21.3223  -5.7992  -5.0429  -4.9702  -4.0660
    -4.0259  -3.9661  -3.8810  -3.7526   3.5036   6.7822   6.8487   7.1442
     7.4448   8.6346   9.4523   9.4603   9.9662  10.7081

     highest occupied level (ev):    10.8601

!    total energy              =    -333.17963461 Ry
     estimated scf accuracy    <          7.2E-10 Ry

     The total energy is the sum of the following terms:
     one-electron contribution =     -77.21435431 Ry
     hartree contribution      =      66.49353683 Ry
     xc contribution           =     -49.64048670 Ry
     ewald contribution        =    -272.81833043 Ry

     convergence has been achieved in  10 iterations

     Forces acting on atoms (cartesian axes, Ry/au):

     atom    1 type  2   force =     0.00000000    0.00000000   -0.01945883
     atom    2 type  3   force =     0.00000000    0.00000000    0.03109494
     atom    3 type  1   force =     0.00000000    0.00000000   -0.01045341
     atom    4 type  1   force =     0.00000000    0.00000000   -0.01045341
     atom    5 type  1   force =     0.00000000    0.00000000    0.00927073
     The non-local contrib.  to forces
     atom    1 type  2   force =     0.00000000    0.00000000    0.03550047
     atom    2 type  3   force =     0.00000000    0.00000000   -0.02017433
     atom    3 type  1   force =     0.00000000    0.00000000   -0.13703030
     atom    4 type  1   force =     0.00000000    0.00000000   -0.13703030
     atom    5 type  1   force =     0.00000000    0.00000000    0.24693583
     The ionic contribution  to forces
     atom    1 type  2   force =     0.00000000    0.00000000   -1.40406350
     atom    2 type  3   force =     0.00000000    0.00000000    1.48840671
     atom    3 type  1   force =     0.00000000   -0.00000000    1.20622484
     atom    4 type  1   force =    -0.00000000    0.00000000    1.20622484
     atom    5 type  1   force =    -0.00000000   -0.00000000   -2.49679288
     The local contribution  to forces
     atom    1 type  2   force =     0.00000000   -0.00000000    1.34911517
     atom    2 type  3   force =    -0.00000000   -0.00000000   -1.43712562
     atom    3 type  1   force =    -0.00000000   -0.00000000   -1.07964557
     atom    4 type  1   force =    -0.00000000    0.00000000   -1.07964557
     atom    5 type  1   force =    -0.00000000   -0.00000000    2.25914107
     The core correction contribution to forces
     atom    1 type  2   force =     0.00000000    0.00000000    0.00000000
     atom    2 type  3   force =     0.00000000    0.00000000    0.00000000
     atom    3 type  1   force =     0.00000000    0.00000000    0.00000000
     atom    4 type  1   force =     0.00000000    0.00000000    0.00000000
     atom    5 type  1   force =     0.00000000    0.00000000    0.00000000
     The Hubbard contrib.    to forces
     atom    1 type  2   force =     0.00000000    0.00000000    0.00000000
     atom    2 type  3   force =     0.00000000    0.00000000    0.00000000
     atom    3 type  1   force =     0.00000000    0.00000000    0.00000000
     atom    4 type  1   force =     0.00000000    0.00000000    0.00000000
     atom    5 type  1   force =     0.00000000    0.00000000    0.00000000
     The SCF correction term to forces
     atom    1 type  2   force =     0.00000000   -0.00000000   -0.00000000
     atom    2 type  3   force =     0.00000000    0.00000000   -0.00000000
     atom    3 type  1   force =    -0.00000000    0.00000000    0.00000234
     atom    4 type  1   force =     0.00000000    0.00000000    0.00000234
     atom    5 type  1   force =     0.00000000   -0.00000000   -0.00000858

     Total force =     0.017450     Total SCF correction =     0.000009


     Computing stress (Cartesian axis) and pressure

          total   stress  (Ry/bohr**3)                   (kbar)     P=      -17.17
  -0.00014375   0.00000000   0.00000000          -21.15        0.00        0.00
   0.00000000  -0.00014375   0.00000000            0.00      -21.15        0.00
   0.00000000   0.00000000  -0.00006264            0.00        0.00       -9.22

     Energy error            =      4.5E-04 Ry
     Gradient error          =      1.0E-02 Ry/Bohr

     number of scf cycles    =   5
     number of bfgs steps    =   4

     energy             old  =    -333.1791797128 Ry
     energy             new  =    -333.1796346132 Ry

     CASE: energy            _new < energy            _old

     new trust radius        =       0.0531501338 bohr
     new conv_thr            =       0.0000000045 Ry


ATOMIC_POSITIONS (angstrom)
Pb            0.0000000000        0.0000000000        0.0000000000    0   0   0
Ti            1.9400000000        1.9400000000        1.7562100000    0   0   0
O             0.0000000000        1.9400000000        1.8778715016
O             1.9400000000        0.0000000000        1.8778715016
O             1.9400000000        1.9400000000       -0.1016334241



     Writing config-only to output data dir /home/gridsan/epan1/labutil/lab3_samples/problem2/Lab3/PbTiO3_a_3.88_ecut_30_nk_4_displ_-0.04736842105263159/pwscf.save/
     NEW-OLD atomic charge density approx. for the potential

     total cpu time spent up to now is       24.8 secs

     Self-consistent Calculation

     iteration #  1     ecut=    30.00 Ry     beta= 0.70
     Davidson diagonalization with overlap
     ethr =  1.00E-06,  avg # of iterations =  9.0

     total cpu time spent up to now is       25.3 secs

     total energy              =    -333.18015835 Ry
     estimated scf accuracy    <       0.00063646 Ry

     iteration #  2     ecut=    30.00 Ry     beta= 0.70
     Davidson diagonalization with overlap
     ethr =  1.45E-06,  avg # of iterations =  4.0

     total cpu time spent up to now is       25.6 secs

     total energy              =    -333.18015832 Ry
     estimated scf accuracy    <       0.00031295 Ry

     iteration #  3     ecut=    30.00 Ry     beta= 0.70
     Davidson diagonalization with overlap
     ethr =  7.11E-07,  avg # of iterations =  4.7

     total cpu time spent up to now is       26.0 secs

     total energy              =    -333.18024123 Ry
     estimated scf accuracy    <       0.00023318 Ry

     iteration #  4     ecut=    30.00 Ry     beta= 0.70
     Davidson diagonalization with overlap
     ethr =  5.30E-07,  avg # of iterations =  3.3

     total cpu time spent up to now is       26.3 secs

     total energy              =    -333.18026631 Ry
     estimated scf accuracy    <       0.00001274 Ry

     iteration #  5     ecut=    30.00 Ry     beta= 0.70
     Davidson diagonalization with overlap
     ethr =  2.90E-08,  avg # of iterations =  5.8

     total cpu time spent up to now is       26.6 secs

     total energy              =    -333.18027896 Ry
     estimated scf accuracy    <       0.00002126 Ry

     iteration #  6     ecut=    30.00 Ry     beta= 0.70
     Davidson diagonalization with overlap
     ethr =  2.90E-08,  avg # of iterations =  2.0

     total cpu time spent up to now is       26.9 secs

     total energy              =    -333.18027628 Ry
     estimated scf accuracy    <       0.00001264 Ry

     iteration #  7     ecut=    30.00 Ry     beta= 0.70
     Davidson diagonalization with overlap
     ethr =  2.87E-08,  avg # of iterations =  3.3

     total cpu time spent up to now is       27.2 secs

     total energy              =    -333.18027754 Ry
     estimated scf accuracy    <       0.00000140 Ry

     iteration #  8     ecut=    30.00 Ry     beta= 0.70
     Davidson diagonalization with overlap
     ethr =  3.18E-09,  avg # of iterations =  4.8

     total cpu time spent up to now is       27.5 secs

     total energy              =    -333.18027814 Ry
     estimated scf accuracy    <       0.00000011 Ry

     iteration #  9     ecut=    30.00 Ry     beta= 0.70
     Davidson diagonalization with overlap
     ethr =  2.56E-10,  avg # of iterations =  2.7

     total cpu time spent up to now is       27.8 secs

     total energy              =    -333.18027812 Ry
     estimated scf accuracy    <       0.00000007 Ry

     iteration # 10     ecut=    30.00 Ry     beta= 0.70
     Davidson diagonalization with overlap
     ethr =  1.64E-10,  avg # of iterations =  4.3

     total cpu time spent up to now is       28.1 secs

     End of self-consistent calculation

          k = 0.1250 0.1250 0.1250 (  1096 PWs)   bands (ev):

   -44.7072 -21.3344 -21.3117 -21.3110  -6.3795  -5.3154  -5.2936  -4.0348
    -4.0289  -4.0170  -3.8499  -3.8401   4.5875   7.2481   7.2613   8.0284
     9.0152   9.0802   9.7708   9.8116   9.9623  10.1011

          k = 0.1250 0.1250 0.3750 (  1095 PWs)   bands (ev):

   -44.7060 -21.3913 -21.3095 -21.3085  -5.9590  -5.1733  -5.1590  -4.0912
    -4.0294  -4.0122  -3.9371  -3.8207   3.8573   6.7800   7.2363   7.7749
     8.4180   8.6506   9.3593   9.8660  10.0920  10.8430

          k = 0.1250 0.3750 0.3750 (  1093 PWs)   bands (ev):

   -44.7048 -21.3880 -21.3644 -21.3071  -5.7464  -5.0735  -4.9992  -4.0665
    -4.0231  -3.9688  -3.8780  -3.7175   3.4988   6.6910   6.8638   7.1380
     7.4532   8.6435   9.3601   9.4605  10.0060  10.6499

          k = 0.3750 0.3750 0.3750 (  1082 PWs)   bands (ev):

   -44.7035 -21.3853 -21.3618 -21.3616  -5.3662  -5.1981  -5.1825  -3.9804
    -3.9740  -3.6911  -3.6278  -3.6116   4.1006   5.8967   5.9123   6.6466
     7.0428   7.0547   7.9669  10.5997  10.6329  10.6984

          k = 0.3750-0.1250 0.1250 (  1095 PWs)   bands (ev):

   -44.7060 -21.3678 -21.3320 -21.3090  -5.9790  -5.1964  -5.1321  -4.0911
    -4.0256  -4.0146  -3.9387  -3.8150   3.8601   6.8142   7.3198   7.7951
     8.3906   8.7300   9.2928   9.8713  10.0141  10.7995

          k = 0.3750-0.3750 0.1250 (  1093 PWs)   bands (ev):

   -44.7048 -21.3649 -21.3640 -21.3300  -5.7804  -5.0589  -4.9890  -4.0613
    -4.0186  -3.9582  -3.8728  -3.7426   3.4960   6.7698   6.8291   7.1433
     7.4409   8.6316   9.4367   9.4541   9.9786  10.6892

     highest occupied level (ev):    10.8430

!    total energy              =    -333.18027814 Ry
     estimated scf accuracy    <          5.6E-10 Ry

     The total energy is the sum of the following terms:
     one-electron contribution =     -77.27252128 Ry
     hartree contribution      =      66.51589725 Ry
     xc contribution           =     -49.63854139 Ry
     ewald contribution        =    -272.78511272 Ry

     convergence has been achieved in  10 iterations

     Forces acting on atoms (cartesian axes, Ry/au):

     atom    1 type  2   force =     0.00000000    0.00000000   -0.01758892
     atom    2 type  3   force =     0.00000000    0.00000000    0.02583197
     atom    3 type  1   force =     0.00000000    0.00000000   -0.01028033
     atom    4 type  1   force =     0.00000000    0.00000000   -0.01028033
     atom    5 type  1   force =     0.00000000    0.00000000    0.01231760
     The non-local contrib.  to forces
     atom    1 type  2   force =     0.00000000    0.00000000    0.05581524
     atom    2 type  3   force =     0.00000000    0.00000000   -0.01755857
     atom    3 type  1   force =     0.00000000    0.00000000   -0.13574704
     atom    4 type  1   force =     0.00000000    0.00000000   -0.13574704
     atom    5 type  1   force =     0.00000000    0.00000000    0.20673251
     The ionic contribution  to forces
     atom    1 type  2   force =     0.00000000    0.00000000   -1.71078755
     atom    2 type  3   force =     0.00000000    0.00000000    1.36728882
     atom    3 type  1   force =     0.00000000   -0.00000000    1.21308482
     atom    4 type  1   force =    -0.00000000    0.00000000    1.21308482
     atom    5 type  1   force =    -0.00000000   -0.00000000   -2.08267091
     The local contribution  to forces
     atom    1 type  2   force =     0.00000000    0.00000000    1.63737657
     atom    2 type  3   force =    -0.00000000   -0.00000000   -1.32390577
     atom    3 type  1   force =     0.00000000   -0.00000000   -1.08762731
     atom    4 type  1   force =    -0.00000000    0.00000000   -1.08762731
     atom    5 type  1   force =    -0.00000000   -0.00000000    1.88825526
     The core correction contribution to forces
     atom    1 type  2   force =     0.00000000    0.00000000    0.00000000
     atom    2 type  3   force =     0.00000000    0.00000000    0.00000000
     atom    3 type  1   force =     0.00000000    0.00000000    0.00000000
     atom    4 type  1   force =     0.00000000    0.00000000    0.00000000
     atom    5 type  1   force =     0.00000000    0.00000000    0.00000000
     The Hubbard contrib.    to forces
     atom    1 type  2   force =     0.00000000    0.00000000    0.00000000
     atom    2 type  3   force =     0.00000000    0.00000000    0.00000000
     atom    3 type  1   force =     0.00000000    0.00000000    0.00000000
     atom    4 type  1   force =     0.00000000    0.00000000    0.00000000
     atom    5 type  1   force =     0.00000000    0.00000000    0.00000000
     The SCF correction term to forces
     atom    1 type  2   force =    -0.00000000    0.00000000   -0.00000000
     atom    2 type  3   force =    -0.00000000    0.00000000    0.00000000
     atom    3 type  1   force =     0.00000000   -0.00000000    0.00000184
     atom    4 type  1   force =     0.00000000   -0.00000000    0.00000184
     atom    5 type  1   force =     0.00000000    0.00000000   -0.00000662

     Total force =     0.019055     Total SCF correction =     0.000007


     Computing stress (Cartesian axis) and pressure

          total   stress  (Ry/bohr**3)                   (kbar)     P=      -18.30
  -0.00013512   0.00000000   0.00000000          -19.88        0.00        0.00
   0.00000000  -0.00013512   0.00000000            0.00      -19.88        0.00
   0.00000000   0.00000000  -0.00010302            0.00        0.00      -15.16

     Energy error            =      6.4E-04 Ry
     Gradient error          =      1.2E-02 Ry/Bohr

     number of scf cycles    =   6
     number of bfgs steps    =   5

     energy             old  =    -333.1796346132 Ry
     energy             new  =    -333.1802781393 Ry

     CASE: energy            _new < energy            _old

     new trust radius        =       0.0797252007 bohr
     new conv_thr            =       0.0000000064 Ry


ATOMIC_POSITIONS (angstrom)
Pb            0.0000000000        0.0000000000        0.0000000000    0   0   0
Ti            1.9400000000        1.9400000000        1.7562100000    0   0   0
O             0.0000000000        1.9400000000        1.8356827423
O             1.9400000000        0.0000000000        1.8356827423
O             1.9400000000        1.9400000000       -0.1300741785



     Writing config-only to output data dir /home/gridsan/epan1/labutil/lab3_samples/problem2/Lab3/PbTiO3_a_3.88_ecut_30_nk_4_displ_-0.04736842105263159/pwscf.save/
     NEW-OLD atomic charge density approx. for the potential

     total cpu time spent up to now is       29.5 secs

     Self-consistent Calculation

     iteration #  1     ecut=    30.00 Ry     beta= 0.70
     Davidson diagonalization with overlap
     ethr =  1.00E-06,  avg # of iterations =  9.2

     total cpu time spent up to now is       30.0 secs

     total energy              =    -333.18095321 Ry
     estimated scf accuracy    <       0.00125249 Ry

     iteration #  2     ecut=    30.00 Ry     beta= 0.70
     Davidson diagonalization with overlap
     ethr =  2.85E-06,  avg # of iterations =  3.3

     total cpu time spent up to now is       30.3 secs

     total energy              =    -333.18106448 Ry
     estimated scf accuracy    <       0.00026398 Ry

     iteration #  3     ecut=    30.00 Ry     beta= 0.70
     Davidson diagonalization with overlap
     ethr =  6.00E-07,  avg # of iterations =  4.8

     total cpu time spent up to now is       30.7 secs

     total energy              =    -333.18111879 Ry
     estimated scf accuracy    <       0.00024370 Ry

     iteration #  4     ecut=    30.00 Ry     beta= 0.70
     Davidson diagonalization with overlap
     ethr =  5.54E-07,  avg # of iterations =  4.0

     total cpu time spent up to now is       31.0 secs

     total energy              =    -333.18116571 Ry
     estimated scf accuracy    <       0.00000572 Ry

     iteration #  5     ecut=    30.00 Ry     beta= 0.70
     Davidson diagonalization with overlap
     ethr =  1.30E-08,  avg # of iterations =  6.5

     total cpu time spent up to now is       31.4 secs

     total energy              =    -333.18116801 Ry
     estimated scf accuracy    <       0.00001198 Ry

     iteration #  6     ecut=    30.00 Ry     beta= 0.70
     Davidson diagonalization with overlap
     ethr =  1.30E-08,  avg # of iterations =  4.3

     total cpu time spent up to now is       31.7 secs

     total energy              =    -333.18116918 Ry
     estimated scf accuracy    <       0.00000083 Ry

     iteration #  7     ecut=    30.00 Ry     beta= 0.70
     Davidson diagonalization with overlap
     ethr =  1.89E-09,  avg # of iterations =  4.5

     total cpu time spent up to now is       32.0 secs

     total energy              =    -333.18116943 Ry
     estimated scf accuracy    <       0.00000010 Ry

     iteration #  8     ecut=    30.00 Ry     beta= 0.70
     Davidson diagonalization with overlap
     ethr =  2.26E-10,  avg # of iterations =  2.0

     total cpu time spent up to now is       32.3 secs

     total energy              =    -333.18116942 Ry
     estimated scf accuracy    <       0.00000005 Ry

     iteration #  9     ecut=    30.00 Ry     beta= 0.70
     Davidson diagonalization with overlap
     ethr =  1.19E-10,  avg # of iterations =  4.8

     total cpu time spent up to now is       32.6 secs

     End of self-consistent calculation

          k = 0.1250 0.1250 0.1250 (  1096 PWs)   bands (ev):

   -44.7338 -21.3445 -21.3407 -21.3400  -6.3895  -5.3280  -5.3101  -4.0232
    -4.0197  -4.0068  -3.8417  -3.8259   4.5948   7.2499   7.2562   8.0379
     9.0486   9.0809   9.8293   9.8567   9.9212  10.0640

          k = 0.1250 0.1250 0.3750 (  1095 PWs)   bands (ev):

   -44.7325 -21.4009 -21.3386 -21.3376  -5.9870  -5.2128  -5.1384  -4.0776
    -4.0168  -4.0026  -3.9222  -3.8107   3.8797   6.7905   7.2805   7.7707
     8.3816   8.6786   9.3301   9.8831  10.0531  10.8235

          k = 0.1250 0.3750 0.3750 (  1093 PWs)   bands (ev):

   -44.7313 -21.3977 -21.3937 -21.3361  -5.7733  -5.0772  -5.0029  -4.0544
    -4.0119  -3.9566  -3.8655  -3.7068   3.5097   6.7269   6.8123   7.1288
     7.4399   8.6178   9.3596   9.4471  10.0125  10.6616

          k = 0.3750 0.3750 0.3750 (  1082 PWs)   bands (ev):

   -44.7300 -21.3951 -21.3911 -21.3909  -5.3709  -5.2059  -5.1908  -3.9682
    -3.9642  -3.6802  -3.6149  -3.6021   4.0895   5.8926   5.9091   6.6525
     6.9964   7.0048   7.9889  10.6168  10.6179  10.6961

          k = 0.3750-0.1250 0.1250 (  1095 PWs)   bands (ev):

   -44.7325 -21.3971 -21.3421 -21.3380  -5.9816  -5.2078  -5.1563  -4.0812
    -4.0148  -4.0035  -3.9198  -3.8026   3.8643   6.7841   7.3005   7.7948
     8.3904   8.7014   9.3110   9.8748  10.0404  10.8082

          k = 0.3750-0.3750 0.1250 (  1093 PWs)   bands (ev):

   -44.7313 -21.3942 -21.3933 -21.3401  -5.7585  -5.0865  -5.0217  -4.0522
    -4.0049  -3.9411  -3.8552  -3.7275   3.4818   6.7508   6.8007   7.1378
     7.4358   8.6301   9.4160   9.4463   9.9981  10.6597

     highest occupied level (ev):    10.8235

!    total energy              =    -333.18116943 Ry
     estimated scf accuracy    <          5.2E-09 Ry

     The total energy is the sum of the following terms:
     one-electron contribution =     -77.45190301 Ry
     hartree contribution      =      66.59846230 Ry
     xc contribution           =     -49.63898042 Ry
     ewald contribution        =    -272.68874831 Ry

     convergence has been achieved in   9 iterations

     Forces acting on atoms (cartesian axes, Ry/au):

     atom    1 type  2   force =     0.00000000    0.00000000   -0.01512843
     atom    2 type  3   force =     0.00000000    0.00000000    0.02172519
     atom    3 type  1   force =     0.00000000    0.00000000   -0.00917187
     atom    4 type  1   force =     0.00000000    0.00000000   -0.00917187
     atom    5 type  1   force =     0.00000000    0.00000000    0.01174697
     The non-local contrib.  to forces
     atom    1 type  2   force =     0.00000000    0.00000000    0.08599900
     atom    2 type  3   force =     0.00000000    0.00000000   -0.01505930
     atom    3 type  1   force =     0.00000000    0.00000000   -0.13258888
     atom    4 type  1   force =     0.00000000    0.00000000   -0.13258888
     atom    5 type  1   force =     0.00000000    0.00000000    0.15051934
     The ionic contribution  to forces
     atom    1 type  2   force =     0.00000000    0.00000000   -2.18577251
     atom    2 type  3   force =     0.00000000    0.00000000    1.31008019
     atom    3 type  1   force =     0.00000000   -0.00000000    1.23112364
     atom    4 type  1   force =    -0.00000000    0.00000000    1.23112364
     atom    5 type  1   force =    -0.00000000   -0.00000000   -1.58655497
     The local contribution  to forces
     atom    1 type  2   force =     0.00000000   -0.00000000    2.08465074
     atom    2 type  3   force =    -0.00000000   -0.00000000   -1.27325981
     atom    3 type  1   force =     0.00000000   -0.00000000   -1.10768396
     atom    4 type  1   force =    -0.00000000    0.00000000   -1.10768396
     atom    5 type  1   force =    -0.00000000   -0.00000000    1.44780452
     The core correction contribution to forces
     atom    1 type  2   force =     0.00000000    0.00000000    0.00000000
     atom    2 type  3   force =     0.00000000    0.00000000    0.00000000
     atom    3 type  1   force =     0.00000000    0.00000000    0.00000000
     atom    4 type  1   force =     0.00000000    0.00000000    0.00000000
     atom    5 type  1   force =     0.00000000    0.00000000    0.00000000
     The Hubbard contrib.    to forces
     atom    1 type  2   force =     0.00000000    0.00000000    0.00000000
     atom    2 type  3   force =     0.00000000    0.00000000    0.00000000
     atom    3 type  1   force =     0.00000000    0.00000000    0.00000000
     atom    4 type  1   force =     0.00000000    0.00000000    0.00000000
     atom    5 type  1   force =     0.00000000    0.00000000    0.00000000
     The SCF correction term to forces
     atom    1 type  2   force =     0.00000000    0.00000000    0.00000000
     atom    2 type  3   force =     0.00000000   -0.00000000   -0.00000000
     atom    3 type  1   force =    -0.00000000    0.00000000   -0.00000868
     atom    4 type  1   force =     0.00000000    0.00000000   -0.00000868
     atom    5 type  1   force =     0.00000000   -0.00000000   -0.00000793

     Total force =     0.017500     Total SCF correction =     0.000015


     Computing stress (Cartesian axis) and pressure

          total   stress  (Ry/bohr**3)                   (kbar)     P=      -18.07
  -0.00011924   0.00000000   0.00000000          -17.54        0.00        0.00
   0.00000000  -0.00011924   0.00000000            0.00      -17.54        0.00
   0.00000000   0.00000000  -0.00012998            0.00        0.00      -19.12

     Energy error            =      8.9E-04 Ry
     Gradient error          =      1.2E-02 Ry/Bohr

     number of scf cycles    =   7
     number of bfgs steps    =   6

     energy             old  =    -333.1802781393 Ry
     energy             new  =    -333.1811694316 Ry

     CASE: energy            _new < energy            _old

     new trust radius        =       0.1195878010 bohr
     new conv_thr            =       0.0000000089 Ry


ATOMIC_POSITIONS (angstrom)
Pb            0.0000000000        0.0000000000        0.0000000000    0   0   0
Ti            1.9400000000        1.9400000000        1.7562100000    0   0   0
O             0.0000000000        1.9400000000        1.7723996033
O             1.9400000000        0.0000000000        1.7723996033
O             1.9400000000        1.9400000000       -0.1714591855



     Writing config-only to output data dir /home/gridsan/epan1/labutil/lab3_samples/problem2/Lab3/PbTiO3_a_3.88_ecut_30_nk_4_displ_-0.04736842105263159/pwscf.save/
     NEW-OLD atomic charge density approx. for the potential

     total cpu time spent up to now is       33.8 secs

     Self-consistent Calculation

     iteration #  1     ecut=    30.00 Ry     beta= 0.70
     Davidson diagonalization with overlap
     ethr =  1.00E-06,  avg # of iterations = 10.3

     total cpu time spent up to now is       34.3 secs

     total energy              =    -333.18195057 Ry
     estimated scf accuracy    <       0.00269166 Ry

     iteration #  2     ecut=    30.00 Ry     beta= 0.70
     Davidson diagonalization with overlap
     ethr =  6.12E-06,  avg # of iterations =  2.7

     total cpu time spent up to now is       34.6 secs

     total energy              =    -333.18230748 Ry
     estimated scf accuracy    <       0.00026045 Ry

     iteration #  3     ecut=    30.00 Ry     beta= 0.70
     Davidson diagonalization with overlap
     ethr =  5.92E-07,  avg # of iterations =  4.5

     total cpu time spent up to now is       35.0 secs

     total energy              =    -333.18235186 Ry
     estimated scf accuracy    <       0.00012891 Ry

     iteration #  4     ecut=    30.00 Ry     beta= 0.70
     Davidson diagonalization with overlap
     ethr =  2.93E-07,  avg # of iterations =  4.7

     total cpu time spent up to now is       35.3 secs

     total energy              =    -333.18238039 Ry
     estimated scf accuracy    <       0.00003923 Ry

     iteration #  5     ecut=    30.00 Ry     beta= 0.70
     Davidson diagonalization with overlap
     ethr =  8.92E-08,  avg # of iterations =  4.0

     total cpu time spent up to now is       35.7 secs

     total energy              =    -333.18238816 Ry
     estimated scf accuracy    <       0.00000299 Ry

     iteration #  6     ecut=    30.00 Ry     beta= 0.70
     Davidson diagonalization with overlap
     ethr =  6.80E-09,  avg # of iterations =  5.0

     total cpu time spent up to now is       36.0 secs

     total energy              =    -333.18238897 Ry
     estimated scf accuracy    <       0.00000160 Ry

     iteration #  7     ecut=    30.00 Ry     beta= 0.70
     Davidson diagonalization with overlap
     ethr =  3.65E-09,  avg # of iterations =  3.3

     total cpu time spent up to now is       36.3 secs

     total energy              =    -333.18238908 Ry
     estimated scf accuracy    <       0.00000021 Ry

     iteration #  8     ecut=    30.00 Ry     beta= 0.70
     Davidson diagonalization with overlap
     ethr =  4.79E-10,  avg # of iterations =  4.8

     total cpu time spent up to now is       36.6 secs

     total energy              =    -333.18238920 Ry
     estimated scf accuracy    <       0.00000015 Ry

     iteration #  9     ecut=    30.00 Ry     beta= 0.70
     Davidson diagonalization with overlap
     ethr =  3.35E-10,  avg # of iterations =  1.2

     total cpu time spent up to now is       36.9 secs

     total energy              =    -333.18238918 Ry
     estimated scf accuracy    <       0.00000007 Ry

     iteration # 10     ecut=    30.00 Ry     beta= 0.70
     Davidson diagonalization with overlap
     ethr =  1.48E-10,  avg # of iterations =  4.3

     total cpu time spent up to now is       37.2 secs

     End of self-consistent calculation

          k = 0.1250 0.1250 0.1250 (  1096 PWs)   bands (ev):

   -44.7615 -21.3714 -21.3705 -21.3580  -6.4145  -5.3814  -5.3018  -4.0023
    -4.0005  -3.9844  -3.8253  -3.7919   4.6053   7.2361   7.2503   8.0443
     9.0680   9.0737   9.8198   9.8840   9.9105  10.0468

          k = 0.1250 0.1250 0.3750 (  1095 PWs)   bands (ev):

   -44.7603 -21.4142 -21.3691 -21.3681  -6.0357  -5.2743  -5.1107  -4.0519
    -3.9931  -3.9815  -3.8868  -3.7915   3.9078   6.8037   7.2998   7.7436
     8.3547   8.7039   9.2876   9.8870   9.9969  10.8103

          k = 0.1250 0.3750 0.3750 (  1093 PWs)   bands (ev):

   -44.7590 -21.4246 -21.4109 -21.3667  -5.8182  -5.1181  -4.9903  -4.0312
    -3.9897  -3.9324  -3.8393  -3.6783   3.5278   6.7199   6.7869   7.1019
     7.4269   8.5790   9.3309   9.4436  10.0286  10.6676

          k = 0.3750 0.3750 0.3750 (  1082 PWs)   bands (ev):

   -44.7577 -21.4220 -21.4217 -21.4082  -5.3974  -5.2492  -5.1757  -3.9447
    -3.9433  -3.6620  -3.5887  -3.5773   4.0632   5.8659   5.9217   6.6416
     6.9406   6.9742   8.0407  10.5700  10.6290  10.6988

          k = 0.3750-0.1250 0.1250 (  1095 PWs)   bands (ev):

   -44.7602 -21.4278 -21.3686 -21.3556  -5.9985  -5.2361  -5.1897  -4.0608
    -3.9938  -3.9797  -3.8817  -3.7747   3.8691   6.7453   7.2725   7.7888
     8.3768   8.6726   9.3217   9.8643  10.0493  10.8270

          k = 0.3750-0.3750 0.1250 (  1093 PWs)   bands (ev):

   -44.7590 -21.4249 -21.4241 -21.3537  -5.7369  -5.1360  -5.0823  -4.0323
    -3.9771  -3.9037  -3.8159  -3.7021   3.4548   6.7194   6.7631   7.1307
     7.4381   8.6338   9.3952   9.4362  10.0292  10.6111

     highest occupied level (ev):    10.8270

!    total energy              =    -333.18238920 Ry
     estimated scf accuracy    <          5.7E-09 Ry

     The total energy is the sum of the following terms:
     one-electron contribution =     -77.83123019 Ry
     hartree contribution      =      66.78052935 Ry
     xc contribution           =     -49.64359827 Ry
     ewald contribution        =    -272.48809009 Ry

     convergence has been achieved in  10 iterations

     Forces acting on atoms (cartesian axes, Ry/au):

     atom    1 type  2   force =     0.00000000    0.00000000   -0.01243312
     atom    2 type  3   force =     0.00000000    0.00000000    0.02012155
     atom    3 type  1   force =     0.00000000    0.00000000   -0.00719653
     atom    4 type  1   force =     0.00000000    0.00000000   -0.00719653
     atom    5 type  1   force =     0.00000000    0.00000000    0.00670464
     The non-local contrib.  to forces
     atom    1 type  2   force =     0.00000000    0.00000000    0.13052469
     atom    2 type  3   force =     0.00000000    0.00000000   -0.01266263
     atom    3 type  1   force =     0.00000000    0.00000000   -0.12930581
     atom    4 type  1   force =     0.00000000    0.00000000   -0.12930581
     atom    5 type  1   force =     0.00000000    0.00000000    0.06698152
     The ionic contribution  to forces
     atom    1 type  2   force =     0.00000000    0.00000000   -2.89578938
[...]
     estimated scf accuracy    <       0.00000070 Ry

     iteration #  3     ecut=    30.00 Ry     beta= 0.70
     Davidson diagonalization with overlap
     ethr =  1.60E-09,  avg # of iterations =  4.5

     total cpu time spent up to now is       71.3 secs

     total energy              =    -333.18526951 Ry
     estimated scf accuracy    <       0.00000037 Ry

     iteration #  4     ecut=    30.00 Ry     beta= 0.70
     Davidson diagonalization with overlap
     ethr =  8.32E-10,  avg # of iterations =  3.8

     total cpu time spent up to now is       71.6 secs

     total energy              =    -333.18526958 Ry
     estimated scf accuracy    <       0.00000002 Ry

     iteration #  5     ecut=    30.00 Ry     beta= 0.70
     Davidson diagonalization with overlap
     ethr =  3.55E-11,  avg # of iterations =  5.7

     total cpu time spent up to now is       72.0 secs

     total energy              =    -333.18526958 Ry
     estimated scf accuracy    <       0.00000002 Ry

     iteration #  6     ecut=    30.00 Ry     beta= 0.70
     Davidson diagonalization with overlap
     ethr =  3.55E-11,  avg # of iterations =  3.3

     total cpu time spent up to now is       72.3 secs

     total energy              =    -333.18526958 Ry
     estimated scf accuracy    <          3.7E-09 Ry

     iteration #  7     ecut=    30.00 Ry     beta= 0.70
     Davidson diagonalization with overlap
     ethr =  8.31E-12,  avg # of iterations =  4.5

     total cpu time spent up to now is       72.6 secs

     total energy              =    -333.18526959 Ry
     estimated scf accuracy    <          2.1E-09 Ry

     iteration #  8     ecut=    30.00 Ry     beta= 0.70
     Davidson diagonalization with overlap
     ethr =  4.85E-12,  avg # of iterations =  1.0

     total cpu time spent up to now is       72.9 secs

     total energy              =    -333.18526959 Ry
     estimated scf accuracy    <          1.2E-09 Ry

     iteration #  9     ecut=    30.00 Ry     beta= 0.70
     Davidson diagonalization with overlap
     ethr =  2.70E-12,  avg # of iterations =  2.7

     total cpu time spent up to now is       73.2 secs

     End of self-consistent calculation

          k = 0.1250 0.1250 0.1250 (  1096 PWs)   bands (ev):

   -44.7432 -21.3802 -21.3543 -21.3536  -6.5426  -5.5425  -5.3000  -3.9133
    -3.9099  -3.8759  -3.7511  -3.6033   4.6337   7.0896   7.2204   8.0272
     8.9619   8.9647   9.5496   9.6567   9.8152  10.1981

          k = 0.1250 0.1250 0.3750 (  1095 PWs)   bands (ev):

   -44.7420 -21.4366 -21.3521 -21.3512  -6.2049  -5.4582  -5.0784  -3.9488
    -3.8926  -3.8745  -3.7126  -3.6877   3.9485   6.7937   7.0333   7.5855
     8.4626   8.5694   9.2225   9.7369   9.8633  10.8906

          k = 0.1250 0.3750 0.3750 (  1093 PWs)   bands (ev):

   -44.7408 -21.4332 -21.4070 -21.3497  -5.9664  -5.3260  -4.9962  -3.9330
    -3.8843  -3.8291  -3.7094  -3.5117   3.5903   6.4817   6.8300   7.0355
     7.3490   8.5144   9.2111   9.3606  10.1470  10.5795

          k = 0.3750 0.3750 0.3750 (  1082 PWs)   bands (ev):

   -44.7395 -21.4305 -21.4044 -21.4043  -5.5574  -5.4245  -5.1609  -3.8434
    -3.8382  -3.5966  -3.4706  -3.4300   3.9181   5.8069   5.9145   6.5201
     7.0211   7.0458   8.3150  10.4021  10.5257  10.6133

          k = 0.3750-0.1250 0.1250 (  1095 PWs)   bands (ev):

   -44.7420 -21.4105 -21.3775 -21.3517  -6.1197  -5.4116  -5.2683  -3.9601
    -3.8996  -3.8716  -3.7195  -3.6140   3.8762   6.6857   7.2053   7.7294
     8.2551   8.6906   9.2181   9.7340   9.8523  10.8916

          k = 0.3750-0.3750 0.1250 (  1093 PWs)   bands (ev):

   -44.7408 -21.4077 -21.4067 -21.3753  -5.7716  -5.3152  -5.3138  -3.9287
    -3.8605  -3.7366  -3.6160  -3.6046   3.3353   6.6268   6.7318   7.1283
     7.5036   8.6657   9.3820   9.3970  10.1226  10.4437

     highest occupied level (ev):    10.8916

!    total energy              =    -333.18526959 Ry
     estimated scf accuracy    <          8.9E-11 Ry

     The total energy is the sum of the following terms:
     one-electron contribution =     -79.73844861 Ry
     hartree contribution      =      67.74375588 Ry
     xc contribution           =     -49.68810043 Ry
     ewald contribution        =    -271.50247643 Ry

     convergence has been achieved in   9 iterations

     Forces acting on atoms (cartesian axes, Ry/au):

     atom    1 type  2   force =     0.00000000    0.00000000   -0.01250135
     atom    2 type  3   force =     0.00000000    0.00000000    0.01297962
     atom    3 type  1   force =     0.00000000    0.00000000    0.00039777
     atom    4 type  1   force =     0.00000000    0.00000000    0.00039777
     atom    5 type  1   force =     0.00000000    0.00000000   -0.00127380
     The non-local contrib.  to forces
     atom    1 type  2   force =     0.00000000    0.00000000    0.26006899
     atom    2 type  3   force =     0.00000000    0.00000000    0.00421175
     atom    3 type  1   force =     0.00000000    0.00000000   -0.10657903
     atom    4 type  1   force =     0.00000000    0.00000000   -0.10657903
     atom    5 type  1   force =     0.00000000    0.00000000   -0.19851668
     The ionic contribution  to forces
     atom    1 type  2   force =     0.00000000    0.00000000   -4.89366990
     atom    2 type  3   force =     0.00000000    0.00000000    0.83478990
     atom    3 type  1   force =     0.00000000   -0.00000000    1.23156608
     atom    4 type  1   force =     0.00000000    0.00000000    1.23156608
     atom    5 type  1   force =    -0.00000000   -0.00000000    1.59574784
     The local contribution  to forces
     atom    1 type  2   force =     0.00000000    0.00000000    4.62109511
     atom    2 type  3   force =    -0.00000000   -0.00000000   -0.82603031
     atom    3 type  1   force =    -0.00000000   -0.00000000   -1.12459571
     atom    4 type  1   force =    -0.00000000    0.00000000   -1.12459571
     atom    5 type  1   force =    -0.00000000   -0.00000000   -1.39851636
     The core correction contribution to forces
     atom    1 type  2   force =     0.00000000    0.00000000    0.00000000
     atom    2 type  3   force =     0.00000000    0.00000000    0.00000000
     atom    3 type  1   force =     0.00000000    0.00000000    0.00000000
     atom    4 type  1   force =     0.00000000    0.00000000    0.00000000
     atom    5 type  1   force =     0.00000000    0.00000000    0.00000000
     The Hubbard contrib.    to forces
     atom    1 type  2   force =     0.00000000    0.00000000    0.00000000
     atom    2 type  3   force =     0.00000000    0.00000000    0.00000000
     atom    3 type  1   force =     0.00000000    0.00000000    0.00000000
     atom    4 type  1   force =     0.00000000    0.00000000    0.00000000
     atom    5 type  1   force =     0.00000000    0.00000000    0.00000000
     The SCF correction term to forces
     atom    1 type  2   force =     0.00000000    0.00000000   -0.00000000
     atom    2 type  3   force =    -0.00000000   -0.00000000    0.00000000
     atom    3 type  1   force =    -0.00000000    0.00000000   -0.00000149
     atom    4 type  1   force =     0.00000000    0.00000000   -0.00000149
     atom    5 type  1   force =     0.00000000   -0.00000000    0.00000349

     Total force =     0.001392     Total SCF correction =     0.000004


     Computing stress (Cartesian axis) and pressure

          total   stress  (Ry/bohr**3)                   (kbar)     P=        6.47
  -0.00001293   0.00000000   0.00000000           -1.90        0.00        0.00
   0.00000000  -0.00001293   0.00000000            0.00       -1.90        0.00
   0.00000000   0.00000000   0.00015786            0.00        0.00       23.22

     Energy error            =      4.6E-06 Ry
     Gradient error          =      1.3E-03 Ry/Bohr

     number of scf cycles    =  15
     number of bfgs steps    =  14

     energy             old  =    -333.1852649420 Ry
     energy             new  =    -333.1852695863 Ry

     CASE: energy            _new < energy            _old

     new trust radius        =       0.0023066992 bohr
     new conv_thr            =       0.0000000010 Ry


ATOMIC_POSITIONS (angstrom)
Pb            0.0000000000        0.0000000000        0.0000000000    0   0   0
Ti            1.9400000000        1.9400000000        1.7562100000    0   0   0
O             0.0000000000        1.9400000000        1.5828438968
O             1.9400000000        0.0000000000        1.5828438968
O             1.9400000000        1.9400000000       -0.3088582061



     Writing config-only to output data dir /home/gridsan/epan1/labutil/lab3_samples/problem2/Lab3/PbTiO3_a_3.88_ecut_30_nk_4_displ_-0.04736842105263159/pwscf.save/
     NEW-OLD atomic charge density approx. for the potential

     total cpu time spent up to now is       74.6 secs

     Self-consistent Calculation

     iteration #  1     ecut=    30.00 Ry     beta= 0.70
     Davidson diagonalization with overlap
     ethr =  1.00E-06,  avg # of iterations =  2.0

     Threshold (ethr) on eigenvalues was too large:
     Diagonalizing with lowered threshold

     Davidson diagonalization with overlap
     ethr =  2.14E-09,  avg # of iterations =  5.8

     total cpu time spent up to now is       75.2 secs

     total energy              =    -333.18527084 Ry
     estimated scf accuracy    <       0.00000208 Ry

     iteration #  2     ecut=    30.00 Ry     beta= 0.70
     Davidson diagonalization with overlap
     ethr =  4.73E-09,  avg # of iterations =  5.2

     total cpu time spent up to now is       75.5 secs

     total energy              =    -333.18527094 Ry
     estimated scf accuracy    <       0.00000238 Ry

     iteration #  3     ecut=    30.00 Ry     beta= 0.70
     Davidson diagonalization with overlap
     ethr =  4.73E-09,  avg # of iterations =  4.7

     total cpu time spent up to now is       75.8 secs

     total energy              =    -333.18527151 Ry
     estimated scf accuracy    <       0.00000044 Ry

     iteration #  4     ecut=    30.00 Ry     beta= 0.70
     Davidson diagonalization with overlap
     ethr =  1.00E-09,  avg # of iterations =  3.0

     total cpu time spent up to now is       76.1 secs

     total energy              =    -333.18527156 Ry
     estimated scf accuracy    <       0.00000004 Ry

     iteration #  5     ecut=    30.00 Ry     beta= 0.70
     Davidson diagonalization with overlap
     ethr =  8.76E-11,  avg # of iterations =  5.3

     total cpu time spent up to now is       76.5 secs

     total energy              =    -333.18527158 Ry
     estimated scf accuracy    <       0.00000003 Ry

     iteration #  6     ecut=    30.00 Ry     beta= 0.70
     Davidson diagonalization with overlap
     ethr =  7.45E-11,  avg # of iterations =  1.3

     total cpu time spent up to now is       76.7 secs

     total energy              =    -333.18527158 Ry
     estimated scf accuracy    <       0.00000002 Ry

     iteration #  7     ecut=    30.00 Ry     beta= 0.70
     Davidson diagonalization with overlap
     ethr =  4.06E-11,  avg # of iterations =  3.5

     total cpu time spent up to now is       77.0 secs

     End of self-consistent calculation

          k = 0.1250 0.1250 0.1250 (  1096 PWs)   bands (ev):

   -44.7409 -21.3792 -21.3520 -21.3514  -6.5414  -5.5412  -5.3008  -3.9143
    -3.9109  -3.8771  -3.7522  -3.6048   4.6330   7.0914   7.2206   8.0291
     8.9605   8.9649   9.5476   9.6573   9.8156  10.1964

          k = 0.1250 0.1250 0.3750 (  1095 PWs)   bands (ev):

   -44.7397 -21.4356 -21.3498 -21.3489  -6.2033  -5.4568  -5.0794  -3.9498
    -3.8936  -3.8757  -3.7138  -3.6893   3.9470   6.7940   7.0354   7.5877
     8.4604   8.5690   9.2214   9.7376   9.8645  10.8899

          k = 0.1250 0.3750 0.3750 (  1093 PWs)   bands (ev):

   -44.7385 -21.4323 -21.4048 -21.3475  -5.9650  -5.3243  -4.9970  -3.9340
    -3.8854  -3.8303  -3.7107  -3.5129   3.5896   6.4817   6.8300   7.0362
     7.3499   8.5150   9.2119   9.3588  10.1454  10.5793

          k = 0.3750 0.3750 0.3750 (  1082 PWs)   bands (ev):

   -44.7372 -21.4295 -21.4021 -21.4020  -5.5560  -5.4231  -5.1615  -3.8445
    -3.8392  -3.5980  -3.4718  -3.4311   3.9188   5.8066   5.9141   6.5212
     7.0207   7.0449   8.3130  10.4035  10.5248  10.6126

          k = 0.3750-0.1250 0.1250 (  1095 PWs)   bands (ev):

   -44.7397 -21.4083 -21.3766 -21.3494  -6.1185  -5.4102  -5.2687  -3.9611
    -3.9005  -3.8728  -3.7207  -3.6155   3.8762   6.6861   7.2051   7.7306
     8.2552   8.6900   9.2161   9.7343   9.8519  10.8907

          k = 0.3750-0.3750 0.1250 (  1093 PWs)   bands (ev):

   -44.7385 -21.4055 -21.4045 -21.3744  -5.7714  -5.3134  -5.3130  -3.9297
    -3.8617  -3.7380  -3.6175  -3.6061   3.3360   6.6275   6.7326   7.1273
     7.5022   8.6651   9.3809   9.3958  10.1215  10.4449

     highest occupied level (ev):    10.8907

!    total energy              =    -333.18527158 Ry
     estimated scf accuracy    <          7.4E-10 Ry

     The total energy is the sum of the following terms:
     one-electron contribution =     -79.73744443 Ry
     hartree contribution      =      67.74363404 Ry
     xc contribution           =     -49.68844004 Ry
     ewald contribution        =    -271.50302115 Ry

     convergence has been achieved in   7 iterations

     Forces acting on atoms (cartesian axes, Ry/au):

     atom    1 type  2   force =     0.00000000    0.00000000   -0.01245960
     atom    2 type  3   force =     0.00000000    0.00000000    0.01266811
     atom    3 type  1   force =     0.00000000    0.00000000   -0.00000722
     atom    4 type  1   force =     0.00000000    0.00000000   -0.00000722
     atom    5 type  1   force =     0.00000000    0.00000000   -0.00019407
     The non-local contrib.  to forces
     atom    1 type  2   force =     0.00000000    0.00000000    0.25952953
     atom    2 type  3   force =     0.00000000    0.00000000    0.00426870
     atom    3 type  1   force =     0.00000000    0.00000000   -0.10797687
     atom    4 type  1   force =     0.00000000    0.00000000   -0.10797687
     atom    5 type  1   force =     0.00000000    0.00000000   -0.19919286
     The ionic contribution  to forces
     atom    1 type  2   force =     0.00000000    0.00000000   -4.87866774
     atom    2 type  3   force =     0.00000000    0.00000000    0.79222088
     atom    3 type  1   force =     0.00000000   -0.00000000    1.22620296
     atom    4 type  1   force =    -0.00000000    0.00000000    1.22620296
     atom    5 type  1   force =    -0.00000000   -0.00000000    1.63404094
     The local contribution  to forces
     atom    1 type  2   force =    -0.00000000    0.00000000    4.60666399
     atom    2 type  3   force =    -0.00000000   -0.00000000   -0.78380845
     atom    3 type  1   force =     0.00000000   -0.00000000   -1.11823725
     atom    4 type  1   force =    -0.00000000    0.00000000   -1.11823725
     atom    5 type  1   force =    -0.00000000   -0.00000000   -1.43503953
     The core correction contribution to forces
     atom    1 type  2   force =     0.00000000    0.00000000    0.00000000
     atom    2 type  3   force =     0.00000000    0.00000000    0.00000000
     atom    3 type  1   force =     0.00000000    0.00000000    0.00000000
     atom    4 type  1   force =     0.00000000    0.00000000    0.00000000
     atom    5 type  1   force =     0.00000000    0.00000000    0.00000000
     The Hubbard contrib.    to forces
     atom    1 type  2   force =     0.00000000    0.00000000    0.00000000
     atom    2 type  3   force =     0.00000000    0.00000000    0.00000000
     atom    3 type  1   force =     0.00000000    0.00000000    0.00000000
     atom    4 type  1   force =     0.00000000    0.00000000    0.00000000
     atom    5 type  1   force =     0.00000000    0.00000000    0.00000000
     The SCF correction term to forces
     atom    1 type  2   force =    -0.00000000   -0.00000000    0.00000000
     atom    2 type  3   force =     0.00000000   -0.00000000   -0.00000000
     atom    3 type  1   force =    -0.00000000    0.00000000    0.00000142
     atom    4 type  1   force =     0.00000000    0.00000000    0.00000142
     atom    5 type  1   force =     0.00000000    0.00000000   -0.00000513

     Total force =     0.000194     Total SCF correction =     0.000006


     Computing stress (Cartesian axis) and pressure

          total   stress  (Ry/bohr**3)                   (kbar)     P=        6.68
  -0.00001257   0.00000000   0.00000000           -1.85        0.00        0.00
   0.00000000  -0.00001257   0.00000000            0.00       -1.85        0.00
   0.00000000   0.00000000   0.00016142            0.00        0.00       23.75

     Energy error            =      2.0E-06 Ry
     Gradient error          =      1.9E-04 Ry/Bohr

     bfgs converged in  16 scf cycles and  15 bfgs steps
     (criteria: energy <  1.0E-04 Ry, force <  1.0E-03 Ry/Bohr)

     End of BFGS Geometry Optimization

     Final energy             =    -333.1852715823 Ry

     File /home/gridsan/epan1/labutil/lab3_samples/problem2/Lab3/PbTiO3_a_3.88_ecut_30_nk_4_displ_-0.04736842105263159/pwscf.bfgs deleted, as requested
Begin final coordinates

ATOMIC_POSITIONS (angstrom)
Pb            0.0000000000        0.0000000000        0.0000000000    0   0   0
Ti            1.9400000000        1.9400000000        1.7562100000    0   0   0
O             0.0000000000        1.9400000000        1.5828438968
O             1.9400000000        0.0000000000        1.5828438968
O             1.9400000000        1.9400000000       -0.3088582061
End final coordinates



     init_run     :      0.72s CPU      0.70s WALL (       1 calls)
     electrons    :     62.06s CPU     50.54s WALL (      16 calls)
     update_pot   :      0.61s CPU      0.71s WALL (      15 calls)
     forces       :      2.39s CPU      1.89s WALL (      16 calls)
     stress       :     16.67s CPU     14.31s WALL (      16 calls)

     Called by init_run:
     wfcinit      :      0.09s CPU      0.08s WALL (       1 calls)
     potinit      :      0.05s CPU      0.05s WALL (       1 calls)
     hinit0       :      0.46s CPU      0.46s WALL (       1 calls)

     Called by electrons:
     c_bands      :     35.62s CPU     27.91s WALL (     151 calls)
     sum_band     :     16.19s CPU     13.84s WALL (     151 calls)
     v_of_rho     :      0.56s CPU      0.52s WALL (     164 calls)
     newd         :      9.97s CPU      8.46s WALL (     164 calls)
     mix_rho      :      0.33s CPU      0.31s WALL (     151 calls)

     Called by c_bands:
     init_us_2    :      1.06s CPU      0.84s WALL (    2010 calls)
     init_us_2:cp :      1.05s CPU      0.83s WALL (    2010 calls)
     cegterg      :     32.91s CPU     25.43s WALL (     906 calls)

     Called by *egterg:
     cdiaghg      :      5.77s CPU      4.36s WALL (    4798 calls)
     h_psi        :     21.79s CPU     17.15s WALL (    4912 calls)
     s_psi        :      0.97s CPU      0.73s WALL (    4912 calls)
     g_psi        :      0.23s CPU      0.17s WALL (    4000 calls)

     Called by h_psi:
     h_psi:calbec :      1.34s CPU      1.05s WALL (    4912 calls)
     vloc_psi     :     19.32s CPU     15.23s WALL (    4912 calls)
     add_vuspsi   :      1.00s CPU      0.76s WALL (    4912 calls)

     General routines
     calbec       :      1.89s CPU      1.48s WALL (    6298 calls)
     fft          :      0.96s CPU      0.85s WALL (    1050 calls)
     ffts         :      0.09s CPU      0.08s WALL (     315 calls)
     fftw         :     18.38s CPU     14.50s WALL (  144772 calls)
     interpolate  :      0.20s CPU      0.18s WALL (     164 calls)

     Parallel routines

     PWSCF        :   1m24.18s CPU   1m18.21s WALL


   This run was terminated on:  18: 1:58   2Nov2023            

=------------------------------------------------------------------------------=
   JOB DONE.
=------------------------------------------------------------------------------=
