LAMMPS (29 Oct 2020)
Reading data file ...
  orthogonal box = (0.0000000 0.0000000 0.0000000) to (14.598200 14.598200 28.258000)
  1 by 1 by 1 MPI processor grid
  reading atoms ...
  125 atoms
  read_data CPU = 0.000 seconds
WARNING: No fixes defined, atoms won't move (../verlet.cpp:54)
Neighbor list info ...
  update every 1 steps, delay 10 steps, check yes
  max neighbors/atom: 2000, page size: 100000
  master list distance cutoff = 6.5
  ghost atom cutoff = 6.5
  binsize = 3.25, bins = 5 5 9
  1 neighbor lists, perpetual/occasional/extra = 1 0 0
  (1) pair lj/cut, perpetual
      attributes: half, newton on
      pair build: half/bin/atomonly/newton
      stencil: half/bin/3d/newton
      bin: standard
Setting up Verlet run ...
  Unit style    : metal
  Current step  : 0
  Time step     : 0.001
Per MPI rank memory allocation (min/avg/max) = 3.065 | 3.065 | 3.065 Mbytes
Step PotEng Lx Ly Lz Press Pxx Pyy Pzz 
       0   -251.19486      14.5982      14.5982       28.258    167.75899   -1399.9886   -1399.9886    3303.2541 
Loop time of 0 on 1 procs for 0 steps with 125 atoms

0.0% CPU use with 1 MPI tasks x no OpenMP threads

MPI task timing breakdown:
Section |  min time  |  avg time  |  max time  |%varavg| %total
---------------------------------------------------------------
Pair    | 0          | 0          | 0          |   0.0 |  0.00
Neigh   | 0          | 0          | 0          |   0.0 |  0.00
Comm    | 0          | 0          | 0          |   0.0 |  0.00
Output  | 0          | 0          | 0          |   0.0 |  0.00
Modify  | 0          | 0          | 0          |   0.0 |  0.00
Other   |            | 0          |            |       |  0.00

Nlocal:        125.000 ave         125 max         125 min
Histogram: 1 0 0 0 0 0 0 0 0 0
Nghost:        337.000 ave         337 max         337 min
Histogram: 1 0 0 0 0 0 0 0 0 0
Neighs:        2625.00 ave        2625 max        2625 min
Histogram: 1 0 0 0 0 0 0 0 0 0

Total # of neighbors = 2625
Ave neighs/atom = 21.000000
Neighbor list builds = 0
Dangerous builds = 0
Total energy (eV) = -251.194856422448
Number of atoms = 125
Lattice constant (Angstoms) = 14.5982
Total wall time: 0:00:00
