
     Program PWSCF v.7.2 starts on  3Nov2023 at 10:52:36 

     This program is part of the open-source Quantum ESPRESSO suite
     for quantum simulation of materials; please cite
         "P. Giannozzi et al., J. Phys.:Condens. Matter 21 395502 (2009);
         "P. Giannozzi et al., J. Phys.:Condens. Matter 29 465901 (2017);
         "P. Giannozzi et al., J. Chem. Phys. 152 154105 (2020);
          URL http://www.quantum-espresso.org", 
     in publications or presentations arising from this work. More details at
     http://www.quantum-espresso.org/quote

     Parallel version (MPI), running on     8 processors

     MPI processes distributed on     8 nodes
     185900 MiB available memory on the printing compute node when the environment starts

     Waiting for input...
     Reading input from standard input

     Current dimensions of program PWSCF are:
     Max number of different atomic species (ntypx) = 10
     Max number of k-points (npk) =  40000
     Max angular momentum in pseudopotentials (lmaxx) =  4
     file Cu.pz-d-rrkjus.UPF: wavefunction(s)  3D renormalized
     Message from routine setup:
     using ibrav=0 with symmetry is DISCOURAGED, use correct ibrav instead

     R & G space division:  proc/nbgrp/npool/nimage =       8
     Subspace diagonalization in iterative solution of the eigenvalue problem:
     a serial algorithm will be used


     Parallelization info
     --------------------
     sticks:   dense  smooth     PW     G-vecs:    dense   smooth      PW
     Min          59      30     10                  858      305      65
     Max          60      31     11                  861      308      68
     Sum         475     241     85                 6879     2445     531

     Using Slab Decomposition



     bravais-lattice index     =            0
     lattice parameter (alat)  =       4.6768  a.u.
     unit-cell volume          =      72.3337 (a.u.)^3
     number of atoms/cell      =            1
     number of atomic types    =            1
     number of electrons       =        11.00
     number of Kohn-Sham states=           10
     kinetic-energy cutoff     =      40.0000  Ry
     charge density cutoff     =     320.0000  Ry
     scf convergence threshold =      1.0E-07
     mixing beta               =       0.5000
     number of iterations used =            8  plain     mixing
     energy convergence thresh.=      1.0E-04
     force convergence thresh. =      1.0E-03
     press convergence thresh. =      5.0E-01
     Exchange-correlation=  SLA  PZ   NOGX NOGC
                           (   1   1   0   0   0   0   0)
     nstep                     =           50


     celldm(1)=   4.676834  celldm(2)=   0.000000  celldm(3)=   0.000000
     celldm(4)=   0.000000  celldm(5)=   0.000000  celldm(6)=   0.000000

     crystal axes: (cart. coord. in units of alat)
               a(1) = (   0.000000   0.707107   0.707107 )  
               a(2) = (   0.707107   0.000000   0.707107 )  
               a(3) = (   0.707107   0.707107   0.000000 )  

     reciprocal axes: (cart. coord. in units 2 pi/alat)
               b(1) = ( -0.707107  0.707107  0.707107 )  
               b(2) = (  0.707107 -0.707107  0.707107 )  
               b(3) = (  0.707107  0.707107 -0.707107 )  


     PseudoPot. # 1 for Cu read from file:
     /home/gridsan/epan1/labutil/lab3_samples/pseudopotentials/Cu.pz-d-rrkjus.UPF
     MD5 check sum: fd38ae683e239c95a66f426e1f8e5fc7
     Pseudo is Ultrasoft, Zval = 11.0
     Generated by new atomic code, or converted to UPF format
     Using radial grid of  899 points,  3 beta functions with: 
                l(1) =   2
                l(2) =   2
                l(3) =   1
     Q(r) pseudized with 0 coefficients 


     atomic species   valence    mass     pseudopotential
        Cu            11.00    63.54600     Cu( 1.00)

     Starting magnetic structure 
     atomic species   magnetization
        Cu           0.700

     48 Sym. Ops., with inversion, found



   Cartesian axes

     site n.     atom                  positions (alat units)
         1           Cu  tau(   1) = (   0.0000000   0.0000000   0.0000000  )

     number of k points=     8  Methfessel-Paxton smearing, width (Ry)=  0.0200
                       cart. coord. in units 2pi/alat
        k(    1) = (   0.0000000   0.0000000   0.0000000), wk =   0.0156250
        k(    2) = (   0.1767767   0.1767767  -0.1767767), wk =   0.1250000
        k(    3) = (  -0.3535534  -0.3535534   0.3535534), wk =   0.0625000
        k(    4) = (   0.3535534   0.0000000   0.0000000), wk =   0.0937500
        k(    5) = (  -0.1767767  -0.5303301   0.5303301), wk =   0.3750000
        k(    6) = (   0.0000000  -0.3535534   0.3535534), wk =   0.1875000
        k(    7) = (  -0.7071068   0.0000000   0.0000000), wk =   0.0468750
        k(    8) = (  -0.7071068   0.3535534   0.0000000), wk =   0.0937500

     Dense  grid:     6879 G-vectors     FFT dimensions: (  27,  27,  27)

     Smooth grid:     2445 G-vectors     FFT dimensions: (  20,  20,  20)

     Estimated max dynamical RAM per process >       3.46 MB

     Estimated total dynamical RAM >      27.67 MB
     Generating pointlists ...
     new r_m :   0.4125 (alat units)  1.9292 (a.u.) for type    1

     Initial potential from superposition of free atoms

     starting charge      10.9997, renormalised to      11.0000
     Starting wfcs are    6 randomized atomic wfcs +    4 random wfcs

     total cpu time spent up to now is        0.3 secs

     Self-consistent Calculation

     iteration #  1     ecut=    40.00 Ry     beta= 0.50
     Davidson diagonalization with overlap
     ethr =  1.00E-02,  avg # of iterations =  6.8

     total cpu time spent up to now is        0.4 secs

     total energy              =     -86.86860735 Ry
     estimated scf accuracy    <       1.51526073 Ry

     total magnetization       =     1.94 Bohr mag/cell
     absolute magnetization    =     1.98 Bohr mag/cell

     iteration #  2     ecut=    40.00 Ry     beta= 0.50
     Davidson diagonalization with overlap
     ethr =  1.00E-02,  avg # of iterations =  1.6

     total cpu time spent up to now is        0.5 secs

     total energy              =     -87.59691974 Ry
     estimated scf accuracy    <       0.76706009 Ry

     total magnetization       =     0.53 Bohr mag/cell
     absolute magnetization    =     0.53 Bohr mag/cell

     iteration #  3     ecut=    40.00 Ry     beta= 0.50
     Davidson diagonalization with overlap
     ethr =  6.97E-03,  avg # of iterations =  1.1

     negative rho (up, down):  0.000E+00 3.443E-07

     total cpu time spent up to now is        0.5 secs

     total energy              =     -87.77458079 Ry
     estimated scf accuracy    <       0.22684146 Ry

     total magnetization       =     0.43 Bohr mag/cell
     absolute magnetization    =     0.50 Bohr mag/cell

     iteration #  4     ecut=    40.00 Ry     beta= 0.50
     Davidson diagonalization with overlap
     ethr =  2.06E-03,  avg # of iterations =  1.6

     total cpu time spent up to now is        0.6 secs

     total energy              =     -87.81832648 Ry
     estimated scf accuracy    <       0.05027946 Ry

     total magnetization       =    -0.06 Bohr mag/cell
     absolute magnetization    =     0.07 Bohr mag/cell

     iteration #  5     ecut=    40.00 Ry     beta= 0.50
     Davidson diagonalization with overlap
     ethr =  4.57E-04,  avg # of iterations =  1.4

     total cpu time spent up to now is        0.6 secs

     total energy              =     -87.82848734 Ry
     estimated scf accuracy    <       0.00071819 Ry

     total magnetization       =    -0.05 Bohr mag/cell
     absolute magnetization    =     0.05 Bohr mag/cell

     iteration #  6     ecut=    40.00 Ry     beta= 0.50
     Davidson diagonalization with overlap
     ethr =  6.53E-06,  avg # of iterations =  2.6

     total cpu time spent up to now is        0.7 secs

     total energy              =     -87.82898370 Ry
     estimated scf accuracy    <       0.00022398 Ry

     total magnetization       =     0.02 Bohr mag/cell
     absolute magnetization    =     0.03 Bohr mag/cell

     iteration #  7     ecut=    40.00 Ry     beta= 0.50
     Davidson diagonalization with overlap
     ethr =  2.04E-06,  avg # of iterations =  1.5

     total cpu time spent up to now is        0.7 secs

     total energy              =     -87.82905374 Ry
     estimated scf accuracy    <       0.00004952 Ry

     total magnetization       =     0.02 Bohr mag/cell
     absolute magnetization    =     0.02 Bohr mag/cell

     iteration #  8     ecut=    40.00 Ry     beta= 0.50
     Davidson diagonalization with overlap
     ethr =  4.50E-07,  avg # of iterations =  1.4
     Minimization algorithm failed to find Fermi energy: reverting to bisection
     Possible cause: smearing is larger than the electronic band-gap.

     total cpu time spent up to now is        0.8 secs

     total energy              =     -87.82907151 Ry
     estimated scf accuracy    <       0.00000064 Ry

     total magnetization       =     0.00 Bohr mag/cell
     absolute magnetization    =     0.00 Bohr mag/cell

     iteration #  9     ecut=    40.00 Ry     beta= 0.50
     Davidson diagonalization with overlap
     ethr =  5.86E-09,  avg # of iterations =  2.2
     Minimization algorithm failed to find Fermi energy: reverting to bisection
     Possible cause: smearing is larger than the electronic band-gap.

     total cpu time spent up to now is        0.8 secs

     total energy              =     -87.82907175 Ry
     estimated scf accuracy    <       0.00000010 Ry

     total magnetization       =     0.00 Bohr mag/cell
     absolute magnetization    =     0.00 Bohr mag/cell

     iteration # 10     ecut=    40.00 Ry     beta= 0.50
     Davidson diagonalization with overlap
     ethr =  9.38E-10,  avg # of iterations =  1.6
     Minimization algorithm failed to find Fermi energy: reverting to bisection
     Possible cause: smearing is larger than the electronic band-gap.

     Magnetic moment per site  (integrated on atomic sphere of radius R)
     atom   1 (R=0.412)  charge=  9.7742  magn= -0.0000

     total cpu time spent up to now is        0.9 secs

     End of self-consistent calculation

 ------ SPIN UP ------------


          k = 0.0000 0.0000 0.0000 (   331 PWs)   bands (ev):

     5.6307  12.0606  12.0606  12.0606  13.0261  13.0261  40.4867  43.0173
    43.0173  43.0173

          k = 0.1768 0.1768-0.1768 (   311 PWs)   bands (ev):

     7.8686  11.7876  12.2442  12.2442  13.1236  13.1236  29.0579  40.1227
    40.3230  40.3230

          k =-0.3536-0.3536 0.3536 (   302 PWs)   bands (ev):

     9.8344  12.0225  12.0225  13.6900  13.6900  14.3605  19.9743  38.5886
    39.5726  39.5726

          k = 0.3536 0.0000 0.0000 (   311 PWs)   bands (ev):

     8.5224  11.2279  12.5288  12.8368  12.8368  13.3451  34.0343  34.0343
    35.3785  36.2016

          k =-0.1768-0.5303 0.5303 (   311 PWs)   bands (ev):

    10.5194  11.1096  12.1257  12.8104  13.7375  16.6272  22.9455  29.2146
    32.9552  36.8975

          k = 0.0000-0.3536 0.3536 (   307 PWs)   bands (ev):

    10.4021  11.4891  11.7222  12.6460  13.0246  15.2751  26.0060  27.5409
    37.7492  39.1670

          k =-0.7071 0.0000 0.0000 (   302 PWs)   bands (ev):

     9.9616  10.4415  13.6702  13.8569  13.8569  17.0828  23.5403  29.6889
    29.6889  34.5755

          k =-0.7071 0.3536 0.0000 (   308 PWs)   bands (ev):

    10.7829  11.4892  11.4892  12.9876  13.8578  22.2174  22.2174  24.4570
    25.6294  46.6790

 ------ SPIN DOWN ----------


          k = 0.0000 0.0000 0.0000 (   331 PWs)   bands (ev):

     5.6307  12.0605  12.0605  12.0605  13.0260  13.0260  40.4867  43.0172
    43.0172  43.0173

          k = 0.1768 0.1768-0.1768 (   311 PWs)   bands (ev):

     7.8686  11.7876  12.2441  12.2441  13.1235  13.1235  29.0579  40.1227
    40.3230  40.3230

          k =-0.3536-0.3536 0.3536 (   302 PWs)   bands (ev):

     9.8343  12.0224  12.0224  13.6899  13.6899  14.3604  19.9742  38.5886
    39.5726  39.5726

          k = 0.3536 0.0000 0.0000 (   311 PWs)   bands (ev):

     8.5224  11.2278  12.5287  12.8367  12.8367  13.3450  34.0343  34.0343
    35.3784  36.2016

          k =-0.1768-0.5303 0.5303 (   311 PWs)   bands (ev):

    10.5194  11.1095  12.1256  12.8103  13.7374  16.6272  22.9454  29.2145
    32.9552  36.8975

          k = 0.0000-0.3536 0.3536 (   307 PWs)   bands (ev):

    10.4021  11.4890  11.7221  12.6459  13.0245  15.2750  26.0059  27.5409
    37.7492  39.1669

          k =-0.7071 0.0000 0.0000 (   302 PWs)   bands (ev):

     9.9616  10.4414  13.6701  13.8568  13.8568  17.0828  23.5403  29.6888
    29.6888  34.5754

          k =-0.7071 0.3536 0.0000 (   308 PWs)   bands (ev):

    10.7828  11.4892  11.4892  12.9875  13.8577  22.2173  22.2173  24.4570
    25.6294  46.6793

     the Fermi energy is    16.4381 ev

!    total energy              =     -87.82907180 Ry
     estimated scf accuracy    <       0.00000001 Ry
     smearing contrib. (-TS)   =      -0.00003483 Ry
     internal energy E=F+TS    =     -87.82903697 Ry

     The total energy is F=E-TS. E is the sum of the following terms:
     one-electron contribution =      -8.02343929 Ry
     hartree contribution      =      18.15825030 Ry
     xc contribution           =     -14.08649155 Ry
     ewald contribution        =     -83.87735643 Ry

     total magnetization       =    -0.00 Bohr mag/cell
     absolute magnetization    =     0.00 Bohr mag/cell

     convergence has been achieved in  10 iterations

     Forces acting on atoms (cartesian axes, Ry/au):

     atom    1 type  1   force =     0.00000000    0.00000000    0.00000000
     The non-local contrib.  to forces
     atom    1 type  1   force =     0.00000000    0.00000000    0.00000000
     The ionic contribution  to forces
     atom    1 type  1   force =    -0.00000000   -0.00000000   -0.00000000
     The local contribution  to forces
     atom    1 type  1   force =    -0.00000000   -0.00000000   -0.00000000
     The core correction contribution to forces
     atom    1 type  1   force =     0.00000000    0.00000000    0.00000000
     The Hubbard contrib.    to forces
     atom    1 type  1   force =     0.00000000    0.00000000    0.00000000
     The SCF correction term to forces
     atom    1 type  1   force =    -0.00000000   -0.00000000    0.00000000

     Total force =     0.000000     Total SCF correction =     0.000000


     Computing stress (Cartesian axis) and pressure

          total   stress  (Ry/bohr**3)                   (kbar)     P=      109.21
   0.00074238   0.00000000   0.00000000          109.21        0.00        0.00
   0.00000000   0.00074238   0.00000000            0.00      109.21        0.00
   0.00000000   0.00000000   0.00074238            0.00        0.00      109.21


     BFGS Geometry Optimization
     Energy error            =      0.0E+00 Ry
     Gradient error          =      0.0E+00 Ry/Bohr
     Cell gradient error     =      1.1E+02 kbar

     number of scf cycles    =   1
     number of bfgs steps    =   0

     enthalpy           new  =     -87.8290717995 Ry

     new trust radius        =       0.0315695290 bohr
     new conv_thr            =       0.0000001000 Ry

     new unit-cell volume =     76.43637 a.u.^3 (    11.32670 Ang^3 )
     density =      9.31609 g/cm^3

CELL_PARAMETERS (angstrom)
   0.000000000   1.782479234   1.782479234
   1.782479234   0.000000000   1.782479234
   1.782479234   1.782479234   0.000000000

ATOMIC_POSITIONS (angstrom)
Cu            0.0000000000        0.0000000000        0.0000000000



     Writing config-only to output data dir /home/gridsan/epan1/labutil/lab3_samples/problem3/Lab3/Cu_a_3.5_ecut_40_nk_4/pwscf.save/
     NEW-OLD atomic charge density approx. for the potential
     extrapolated charge   11.59040, renormalised to   11.00000
     Generating pointlists ...

     total cpu time spent up to now is        1.1 secs

     Self-consistent Calculation

     iteration #  1     ecut=    40.00 Ry     beta= 0.50
     Davidson diagonalization with overlap
     ethr =  1.00E-06,  avg # of iterations =  4.8

     total cpu time spent up to now is        1.2 secs

     total energy              =     -87.54242097 Ry
     estimated scf accuracy    <       0.27712239 Ry

     total magnetization       =    -0.00 Bohr mag/cell
     absolute magnetization    =     0.00 Bohr mag/cell

     iteration #  2     ecut=    40.00 Ry     beta= 0.50
     Davidson diagonalization with overlap
     ethr =  2.52E-03,  avg # of iterations =  2.0
     Minimization algorithm failed to find Fermi energy: reverting to bisection
     Possible cause: smearing is larger than the electronic band-gap.

     total cpu time spent up to now is        1.2 secs

     total energy              =     -87.84030871 Ry
     estimated scf accuracy    <       0.39729630 Ry

     total magnetization       =    -0.00 Bohr mag/cell
     absolute magnetization    =     0.00 Bohr mag/cell

     iteration #  3     ecut=    40.00 Ry     beta= 0.50
     Davidson diagonalization with overlap
     ethr =  2.52E-03,  avg # of iterations =  1.0

     total cpu time spent up to now is        1.3 secs

     total energy              =     -87.83324731 Ry
     estimated scf accuracy    <       0.09359908 Ry

     total magnetization       =    -0.00 Bohr mag/cell
     absolute magnetization    =     0.00 Bohr mag/cell

     iteration #  4     ecut=    40.00 Ry     beta= 0.50
     Davidson diagonalization with overlap
     ethr =  8.51E-04,  avg # of iterations =  1.0

     total cpu time spent up to now is        1.3 secs

     total energy              =     -87.83158833 Ry
     estimated scf accuracy    <       0.02345227 Ry

     total magnetization       =    -0.00 Bohr mag/cell
     absolute magnetization    =     0.00 Bohr mag/cell

     iteration #  5     ecut=    40.00 Ry     beta= 0.50
     Davidson diagonalization with overlap
     ethr =  2.13E-04,  avg # of iterations =  1.0

     total cpu time spent up to now is        1.4 secs

     total energy              =     -87.82926564 Ry
     estimated scf accuracy    <       0.00674950 Ry

     total magnetization       =    -0.00 Bohr mag/cell
     absolute magnetization    =     0.00 Bohr mag/cell

     iteration #  6     ecut=    40.00 Ry     beta= 0.50
     Davidson diagonalization with overlap
     ethr =  6.14E-05,  avg # of iterations =  1.1

     total cpu time spent up to now is        1.4 secs

     total energy              =     -87.83047134 Ry
     estimated scf accuracy    <       0.00000774 Ry

     total magnetization       =    -0.00 Bohr mag/cell
     absolute magnetization    =     0.00 Bohr mag/cell

     iteration #  7     ecut=    40.00 Ry     beta= 0.50
     Davidson diagonalization with overlap
     ethr =  7.04E-08,  avg # of iterations =  3.2

     total cpu time spent up to now is        1.5 secs

     total energy              =     -87.83048046 Ry
     estimated scf accuracy    <       0.00000091 Ry

     total magnetization       =    -0.00 Bohr mag/cell
     absolute magnetization    =     0.00 Bohr mag/cell

     iteration #  8     ecut=    40.00 Ry     beta= 0.50
     Davidson diagonalization with overlap
     ethr =  8.28E-09,  avg # of iterations =  2.0
     Minimization algorithm failed to find Fermi energy: reverting to bisection
     Possible cause: smearing is larger than the electronic band-gap.

     total cpu time spent up to now is        1.6 secs

     total energy              =     -87.83047380 Ry
     estimated scf accuracy    <       0.00001852 Ry

     total magnetization       =    -0.00 Bohr mag/cell
     absolute magnetization    =     0.00 Bohr mag/cell

     iteration #  9     ecut=    40.00 Ry     beta= 0.50
     Davidson diagonalization with overlap
     ethr =  8.28E-09,  avg # of iterations =  2.0
     Minimization algorithm failed to find Fermi energy: reverting to bisection
     Possible cause: smearing is larger than the electronic band-gap.

     Magnetic moment per site  (integrated on atomic sphere of radius R)
     atom   1 (R=0.412)  charge=  9.7170  magn= -0.0000

     total cpu time spent up to now is        1.6 secs

     End of self-consistent calculation

 ------ SPIN UP ------------


          k = 0.0000 0.0000 0.0000 (   331 PWs)   bands (ev):

     4.9529  11.1323  11.1323  11.1323  12.0175  12.0175  38.7654  40.8987
    40.8987  40.8987

          k = 0.1736 0.1736-0.1736 (   311 PWs)   bands (ev):

     7.1129  10.8871  11.3017  11.3017  12.1083  12.1083  27.4330  38.2534
    38.2534  38.3706

          k =-0.3471-0.3471 0.3471 (   302 PWs)   bands (ev):

     9.0579  11.0990  11.0990  12.6276  12.6276  13.4137  18.5533  36.9341
    37.4952  37.4952

          k = 0.3471 0.0000 0.0000 (   311 PWs)   bands (ev):

     7.7507  10.3707  11.5646  11.8461  11.8461  12.3106  32.2382  32.2382
    33.6603  34.4338

          k =-0.1736-0.5207 0.5207 (   311 PWs)   bands (ev):

     9.7099  10.2686  11.1978  11.8225  12.6711  15.4569  21.5166  27.5795
    31.2034  35.0223

          k = 0.0000-0.3471 0.3471 (   307 PWs)   bands (ev):

     9.5746  10.6128  10.8305  11.6723  12.0177  14.1276  24.5074  25.9332
    35.7859  37.2813

          k =-0.6942 0.0000 0.0000 (   302 PWs)   bands (ev):

     9.2048   9.6477  12.6090  12.7807  12.7807  16.0048  22.0162  28.0926
    28.0926  32.8070

          k =-0.6942 0.3471 0.0000 (   308 PWs)   bands (ev):

     9.9709  10.6137  10.6137  11.9849  12.7815  20.8722  20.8722  23.0502
    23.9586  44.5273

 ------ SPIN DOWN ----------


          k = 0.0000 0.0000 0.0000 (   331 PWs)   bands (ev):

     4.9529  11.1323  11.1323  11.1323  12.0175  12.0175  38.7654  40.8987
    40.8987  40.8987

          k = 0.1736 0.1736-0.1736 (   311 PWs)   bands (ev):

     7.1129  10.8871  11.3017  11.3017  12.1083  12.1083  27.4330  38.2533
    38.2533  38.3706

          k =-0.3471-0.3471 0.3471 (   302 PWs)   bands (ev):

     9.0579  11.0990  11.0990  12.6276  12.6276  13.4137  18.5533  36.9341
    37.4952  37.4952

          k = 0.3471 0.0000 0.0000 (   311 PWs)   bands (ev):

     7.7507  10.3707  11.5646  11.8461  11.8461  12.3106  32.2382  32.2382
    33.6603  34.4338

          k =-0.1736-0.5207 0.5207 (   311 PWs)   bands (ev):

     9.7099  10.2686  11.1978  11.8225  12.6711  15.4569  21.5166  27.5795
    31.2034  35.0223

          k = 0.0000-0.3471 0.3471 (   307 PWs)   bands (ev):

     9.5746  10.6128  10.8305  11.6723  12.0177  14.1276  24.5074  25.9332
    35.7859  37.2813

          k =-0.6942 0.0000 0.0000 (   302 PWs)   bands (ev):

     9.2048   9.6477  12.6090  12.7807  12.7807  16.0048  22.0162  28.0926
    28.0926  32.8070

          k =-0.6942 0.3471 0.0000 (   308 PWs)   bands (ev):

     9.9709  10.6137  10.6137  11.9849  12.7815  20.8722  20.8722  23.0502
    23.9586  44.5273

     the Fermi energy is    15.2677 ev

!    total energy              =     -87.83047693 Ry
     estimated scf accuracy    <       0.00000006 Ry
     smearing contrib. (-TS)   =      -0.00004026 Ry
     internal energy E=F+TS    =     -87.83043667 Ry

     The total energy is F=E-TS. E is the sum of the following terms:
     one-electron contribution =     -10.35042780 Ry
     hartree contribution      =      18.92134650 Ry
     xc contribution           =     -14.05236026 Ry
     ewald contribution        =     -82.34899510 Ry

     total magnetization       =    -0.00 Bohr mag/cell
     absolute magnetization    =     0.00 Bohr mag/cell

     convergence has been achieved in   9 iterations

     Forces acting on atoms (cartesian axes, Ry/au):

     atom    1 type  1   force =     0.00000000    0.00000000    0.00000000
     The non-local contrib.  to forces
     atom    1 type  1   force =     0.00000000    0.00000000    0.00000000
     The ionic contribution  to forces
     atom    1 type  1   force =    -0.00000000   -0.00000000   -0.00000000
     The local contribution  to forces
     atom    1 type  1   force =    -0.00000000   -0.00000000   -0.00000000
     The core correction contribution to forces
     atom    1 type  1   force =     0.00000000    0.00000000    0.00000000
     The Hubbard contrib.    to forces
     atom    1 type  1   force =     0.00000000    0.00000000    0.00000000
     The SCF correction term to forces
     atom    1 type  1   force =     0.00000000    0.00000000   -0.00000000

     Total force =     0.000000     Total SCF correction =     0.000000


     Computing stress (Cartesian axis) and pressure

          total   stress  (Ry/bohr**3)                   (kbar)     P=        4.52
   0.00003075   0.00000000   0.00000000            4.52        0.00        0.00
   0.00000000   0.00003075   0.00000000            0.00        4.52        0.00
   0.00000000   0.00000000   0.00003075            0.00        0.00        4.52

     Energy error            =      1.4E-03 Ry
     Gradient error          =      0.0E+00 Ry/Bohr
     Cell gradient error     =      4.5E+00 kbar

     number of scf cycles    =   2
     number of bfgs steps    =   1

     enthalpy           old  =     -87.8290717995 Ry
     enthalpy           new  =     -87.8304769265 Ry

     CASE: enthalpy          _new < enthalpy          _old

     new trust radius        =       0.0014306870 bohr
     new conv_thr            =       0.0000000010 Ry

     new unit-cell volume =     76.62414 a.u.^3 (    11.35453 Ang^3 )
     density =      9.29326 g/cm^3

CELL_PARAMETERS (angstrom)
   0.000000000   1.783937676   1.783937676
   1.783937676   0.000000000   1.783937676
   1.783937676   1.783937676   0.000000000

ATOMIC_POSITIONS (angstrom)
Cu            0.0000000000        0.0000000000        0.0000000000



     Writing config-only to output data dir /home/gridsan/epan1/labutil/lab3_samples/problem3/Lab3/Cu_a_3.5_ecut_40_nk_4/pwscf.save/
     NEW-OLD atomic charge density approx. for the potential
     extrapolated charge   11.02696, renormalised to   11.00000
     Generating pointlists ...

     total cpu time spent up to now is        1.8 secs

     Self-consistent Calculation

     iteration #  1     ecut=    40.00 Ry     beta= 0.50
     Davidson diagonalization with overlap
     ethr =  1.00E-06,  avg # of iterations =  2.0
     Minimization algorithm failed to find Fermi energy: reverting to bisection
     Possible cause: smearing is larger than the electronic band-gap.

     total cpu time spent up to now is        1.8 secs

     total energy              =     -87.82997942 Ry
     estimated scf accuracy    <       0.00047257 Ry

     total magnetization       =    -0.00 Bohr mag/cell
     absolute magnetization    =     0.00 Bohr mag/cell

     iteration #  2     ecut=    40.00 Ry     beta= 0.50
     Davidson diagonalization with overlap
     ethr =  4.30E-06,  avg # of iterations =  2.0

     total cpu time spent up to now is        1.9 secs

     total energy              =     -87.83046436 Ry
     estimated scf accuracy    <       0.00076351 Ry

     total magnetization       =    -0.00 Bohr mag/cell
     absolute magnetization    =     0.00 Bohr mag/cell

     iteration #  3     ecut=    40.00 Ry     beta= 0.50
     Davidson diagonalization with overlap
     ethr =  4.30E-06,  avg # of iterations =  1.0

     total cpu time spent up to now is        1.9 secs

     total energy              =     -87.83049355 Ry
     estimated scf accuracy    <       0.00013396 Ry

     total magnetization       =    -0.00 Bohr mag/cell
     absolute magnetization    =     0.00 Bohr mag/cell

     iteration #  4     ecut=    40.00 Ry     beta= 0.50
     Davidson diagonalization with overlap
     ethr =  1.22E-06,  avg # of iterations =  1.0

     total cpu time spent up to now is        2.0 secs

     total energy              =     -87.83046320 Ry
     estimated scf accuracy    <       0.00007317 Ry

     total magnetization       =    -0.00 Bohr mag/cell
     absolute magnetization    =     0.00 Bohr mag/cell

     iteration #  5     ecut=    40.00 Ry     beta= 0.50
     Davidson diagonalization with overlap
     ethr =  6.65E-07,  avg # of iterations =  1.0

     total cpu time spent up to now is        2.0 secs

     total energy              =     -87.83047217 Ry
     estimated scf accuracy    <       0.00000158 Ry

     total magnetization       =    -0.00 Bohr mag/cell
     absolute magnetization    =     0.00 Bohr mag/cell

     iteration #  6     ecut=    40.00 Ry     beta= 0.50
     Davidson diagonalization with overlap
     ethr =  1.43E-08,  avg # of iterations =  2.0
     Minimization algorithm failed to find Fermi energy: reverting to bisection
     Possible cause: smearing is larger than the electronic band-gap.

     total cpu time spent up to now is        2.1 secs

     total energy              =     -87.83047263 Ry
     estimated scf accuracy    <       0.00000277 Ry

     total magnetization       =    -0.00 Bohr mag/cell
     absolute magnetization    =     0.00 Bohr mag/cell

     iteration #  7     ecut=    40.00 Ry     beta= 0.50
     Davidson diagonalization with overlap
     ethr =  1.43E-08,  avg # of iterations =  1.2
     Minimization algorithm failed to find Fermi energy: reverting to bisection
     Possible cause: smearing is larger than the electronic band-gap.

     total cpu time spent up to now is        2.1 secs

     total energy              =     -87.83047300 Ry
     estimated scf accuracy    <       0.00000005 Ry

     total magnetization       =    -0.00 Bohr mag/cell
     absolute magnetization    =     0.00 Bohr mag/cell

     iteration #  8     ecut=    40.00 Ry     beta= 0.50
     Davidson diagonalization with overlap
     ethr =  4.48E-10,  avg # of iterations =  2.0

     total cpu time spent up to now is        2.2 secs

     total energy              =     -87.83047301 Ry
     estimated scf accuracy    <       0.00000002 Ry

     total magnetization       =    -0.00 Bohr mag/cell
     absolute magnetization    =     0.00 Bohr mag/cell

     iteration #  9     ecut=    40.00 Ry     beta= 0.50
     Davidson diagonalization with overlap
     ethr =  1.70E-10,  avg # of iterations =  1.2

     Magnetic moment per site  (integrated on atomic sphere of radius R)
     atom   1 (R=0.412)  charge=  9.7145  magn= -0.0000

     total cpu time spent up to now is        2.3 secs

     End of self-consistent calculation

 ------ SPIN UP ------------


          k = 0.0000 0.0000 0.0000 (   331 PWs)   bands (ev):

     4.9239  11.0932  11.0932  11.0932  11.9750  11.9750  38.6907  40.8066
    40.8066  40.8066

          k = 0.1734 0.1734-0.1734 (   311 PWs)   bands (ev):

     7.0805  10.8491  11.2620  11.2620  12.0656  12.0656  27.3630  38.1639
    38.1639  38.2944

          k =-0.3468-0.3468 0.3468 (   302 PWs)   bands (ev):

     9.0250  11.0601  11.0601  12.5829  12.5829  13.3730  18.4926  36.8621
    37.4053  37.4053

          k = 0.3468 0.0000 0.0000 (   311 PWs)   bands (ev):

     7.7176  10.3346  11.5239  11.8044  11.8044  12.2670  32.1606  32.1606
    33.5858  34.3576

          k =-0.1734-0.5202 0.5202 (   311 PWs)   bands (ev):

     9.6756  10.2330  11.1586  11.7809  12.6262  15.4070  21.4552  27.5090
    31.1277  34.9414

          k = 0.0000-0.3468 0.3468 (   307 PWs)   bands (ev):

     9.5393  10.5758  10.7928  11.6313  11.9753  14.0789  24.4430  25.8639
    35.7011  37.1996

          k =-0.6937 0.0000 0.0000 (   302 PWs)   bands (ev):

     9.1728   9.6142  12.5643  12.7354  12.7354  15.9584  21.9507  28.0236
    28.0236  32.7309

          k =-0.6937 0.3468 0.0000 (   308 PWs)   bands (ev):

     9.9366  10.5767  10.5767  11.9426  12.7362  20.8145  20.8145  22.9897
    23.8865  44.4342

 ------ SPIN DOWN ----------


          k = 0.0000 0.0000 0.0000 (   331 PWs)   bands (ev):

     4.9239  11.0932  11.0932  11.0932  11.9750  11.9750  38.6907  40.8066
    40.8066  40.8066

          k = 0.1734 0.1734-0.1734 (   311 PWs)   bands (ev):

     7.0805  10.8491  11.2620  11.2620  12.0656  12.0656  27.3630  38.1639
    38.1639  38.2944

          k =-0.3468-0.3468 0.3468 (   302 PWs)   bands (ev):

     9.0250  11.0601  11.0601  12.5829  12.5829  13.3730  18.4926  36.8621
    37.4053  37.4053

          k = 0.3468 0.0000 0.0000 (   311 PWs)   bands (ev):

     7.7176  10.3346  11.5239  11.8044  11.8044  12.2670  32.1606  32.1606
    33.5858  34.3576

          k =-0.1734-0.5202 0.5202 (   311 PWs)   bands (ev):

     9.6756  10.2330  11.1586  11.7809  12.6262  15.4070  21.4552  27.5090
    31.1277  34.9414

          k = 0.0000-0.3468 0.3468 (   307 PWs)   bands (ev):

     9.5393  10.5758  10.7928  11.6313  11.9753  14.0789  24.4430  25.8639
    35.7011  37.1996

          k =-0.6937 0.0000 0.0000 (   302 PWs)   bands (ev):

     9.1728   9.6142  12.5643  12.7354  12.7354  15.9584  21.9507  28.0236
    28.0236  32.7309

          k =-0.6937 0.3468 0.0000 (   308 PWs)   bands (ev):

     9.9366  10.5767  10.5767  11.9426  12.7362  20.8145  20.8145  22.9897
    23.8865  44.4342

     the Fermi energy is    15.2178 ev

!    total energy              =     -87.83047302 Ry
     estimated scf accuracy    <          1.3E-12 Ry
     smearing contrib. (-TS)   =      -0.00004036 Ry
     internal energy E=F+TS    =     -87.83043266 Ry

     The total energy is F=E-TS. E is the sum of the following terms:
     one-electron contribution =     -10.45228398 Ry
     hartree contribution      =      18.95416905 Ry
     xc contribution           =     -14.05064629 Ry
     ewald contribution        =     -82.28167145 Ry

     total magnetization       =    -0.00 Bohr mag/cell
     absolute magnetization    =     0.00 Bohr mag/cell

     convergence has been achieved in   9 iterations

     Forces acting on atoms (cartesian axes, Ry/au):

     atom    1 type  1   force =     0.00000000    0.00000000    0.00000000
     The non-local contrib.  to forces
     atom    1 type  1   force =     0.00000000    0.00000000   -0.00000000
     The ionic contribution  to forces
     atom    1 type  1   force =    -0.00000000   -0.00000000   -0.00000000
     The local contribution  to forces
     atom    1 type  1   force =    -0.00000000   -0.00000000    0.00000000
     The core correction contribution to forces
     atom    1 type  1   force =     0.00000000    0.00000000    0.00000000
     The Hubbard contrib.    to forces
     atom    1 type  1   force =     0.00000000    0.00000000    0.00000000
     The SCF correction term to forces
     atom    1 type  1   force =    -0.00000000    0.00000000    0.00000000

     Total force =     0.000000     Total SCF correction =     0.000000


     Computing stress (Cartesian axis) and pressure

          total   stress  (Ry/bohr**3)                   (kbar)     P=       -5.18
  -0.00003518   0.00000000   0.00000000           -5.18        0.00        0.00
   0.00000000  -0.00003518   0.00000000            0.00       -5.18        0.00
   0.00000000   0.00000000  -0.00003518            0.00        0.00       -5.18

     Energy error            =      3.9E-06 Ry
     Gradient error          =      0.0E+00 Ry/Bohr
     Cell gradient error     =      5.2E+00 kbar

     number of scf cycles    =   3
     number of bfgs steps    =   2

     enthalpy           old  =     -87.8304769265 Ry
     enthalpy           new  =     -87.8304730183 Ry

     CASE: enthalpy          _new > enthalpy          _old

     new trust radius        =       0.0004266378 bohr
     new conv_thr            =       0.0000000010 Ry

     new unit-cell volume =     76.49231 a.u.^3 (    11.33499 Ang^3 )
     density =      9.30928 g/cm^3

CELL_PARAMETERS (angstrom)
   0.000000000   1.782913971   1.782913971
   1.782913971   0.000000000   1.782913971
   1.782913971   1.782913971   0.000000000

ATOMIC_POSITIONS (angstrom)
Cu            0.0000000000        0.0000000000        0.0000000000



     Writing config-only to output data dir /home/gridsan/epan1/labutil/lab3_samples/problem3/Lab3/Cu_a_3.5_ecut_40_nk_4/pwscf.save/
     NEW-OLD atomic charge density approx. for the potential
     extrapolated charge   10.98104, renormalised to   11.00000
     Generating pointlists ...

     total cpu time spent up to now is        2.4 secs

     Self-consistent Calculation

     iteration #  1     ecut=    40.00 Ry     beta= 0.50
     Davidson diagonalization with overlap
     ethr =  1.00E-06,  avg # of iterations =  2.0

     total cpu time spent up to now is        2.5 secs

     total energy              =     -87.83024158 Ry
     estimated scf accuracy    <       0.00022109 Ry

     total magnetization       =    -0.00 Bohr mag/cell
     absolute magnetization    =     0.00 Bohr mag/cell

     iteration #  2     ecut=    40.00 Ry     beta= 0.50
     Davidson diagonalization with overlap
     ethr =  2.01E-06,  avg # of iterations =  2.0

     total cpu time spent up to now is        2.5 secs

     total energy              =     -87.83047239 Ry
     estimated scf accuracy    <       0.00036826 Ry

     total magnetization       =    -0.00 Bohr mag/cell
     absolute magnetization    =     0.00 Bohr mag/cell

     iteration #  3     ecut=    40.00 Ry     beta= 0.50
     Davidson diagonalization with overlap
     ethr =  2.01E-06,  avg # of iterations =  1.0

     total cpu time spent up to now is        2.6 secs

     total energy              =     -87.83048829 Ry
     estimated scf accuracy    <       0.00006503 Ry

     total magnetization       =     0.00 Bohr mag/cell
     absolute magnetization    =     0.00 Bohr mag/cell

     iteration #  4     ecut=    40.00 Ry     beta= 0.50
     Davidson diagonalization with overlap
     ethr =  5.91E-07,  avg # of iterations =  1.0

     total cpu time spent up to now is        2.6 secs

     total energy              =     -87.83047018 Ry
     estimated scf accuracy    <       0.00004105 Ry

     total magnetization       =     0.00 Bohr mag/cell
     absolute magnetization    =     0.00 Bohr mag/cell

     iteration #  5     ecut=    40.00 Ry     beta= 0.50
     Davidson diagonalization with overlap
     ethr =  3.73E-07,  avg # of iterations =  1.0
     Minimization algorithm failed to find Fermi energy: reverting to bisection
     Possible cause: smearing is larger than the electronic band-gap.

     total cpu time spent up to now is        2.7 secs

     total energy              =     -87.83047605 Ry
     estimated scf accuracy    <       0.00000049 Ry

     total magnetization       =    -0.00 Bohr mag/cell
     absolute magnetization    =     0.00 Bohr mag/cell

     iteration #  6     ecut=    40.00 Ry     beta= 0.50
     Davidson diagonalization with overlap
     ethr =  4.42E-09,  avg # of iterations =  2.0

     total cpu time spent up to now is        2.7 secs

     total energy              =     -87.83047614 Ry
     estimated scf accuracy    <       0.00000165 Ry

     total magnetization       =     0.00 Bohr mag/cell
     absolute magnetization    =     0.00 Bohr mag/cell

     iteration #  7     ecut=    40.00 Ry     beta= 0.50
     Davidson diagonalization with overlap
     ethr =  4.42E-09,  avg # of iterations =  2.0

     total cpu time spent up to now is        2.8 secs

     total energy              =     -87.83047633 Ry
     estimated scf accuracy    <       0.00000005 Ry

     total magnetization       =     0.00 Bohr mag/cell
     absolute magnetization    =     0.00 Bohr mag/cell

     iteration #  8     ecut=    40.00 Ry     beta= 0.50
     Davidson diagonalization with overlap
     ethr =  4.53E-10,  avg # of iterations =  1.5
     Minimization algorithm failed to find Fermi energy: reverting to bisection
     Possible cause: smearing is larger than the electronic band-gap.

     Magnetic moment per site  (integrated on atomic sphere of radius R)
     atom   1 (R=0.412)  charge=  9.7162  magn=  0.0000

     total cpu time spent up to now is        2.9 secs

     End of self-consistent calculation

 ------ SPIN UP ------------


          k = 0.0000 0.0000 0.0000 (   331 PWs)   bands (ev):

     4.9443  11.1212  11.1212  11.1212  12.0054  12.0054  38.7431  40.8713
    40.8713  40.8713

          k = 0.1735 0.1735-0.1735 (   311 PWs)   bands (ev):

     7.1033  10.8763  11.2904  11.2904  12.0962  12.0962  27.4122  38.2268
    38.2268  38.3479

          k =-0.3470-0.3470 0.3470 (   302 PWs)   bands (ev):

     9.0485  11.0880  11.0880  12.6149  12.6149  13.4016  18.5356  36.9125
    37.4685  37.4685

          k = 0.3470 0.0000 0.0000 (   311 PWs)   bands (ev):

     7.7409  10.3605  11.5530  11.8343  11.8343  12.2982  32.2151  32.2151
    33.6381  34.4112

          k =-0.1735-0.5205 0.5205 (   311 PWs)   bands (ev):

     9.7001  10.2584  11.1867  11.8107  12.6584  15.4423  21.4984  27.5586
    31.1809  34.9983

          k = 0.0000-0.3470 0.3470 (   307 PWs)   bands (ev):

     9.5643  10.6023  10.8198  11.6607  12.0057  14.1136  24.4884  25.9127
    35.7607  37.2570

          k =-0.6941 0.0000 0.0000 (   302 PWs)   bands (ev):

     9.1957   9.6382  12.5963  12.7679  12.7679  15.9910  21.9969  28.0720
    28.0720  32.7845

          k =-0.6941 0.3470 0.0000 (   308 PWs)   bands (ev):

     9.9612  10.6032  10.6032  11.9729  12.7687  20.8552  20.8552  23.0323
    23.9372  44.4996

 ------ SPIN DOWN ----------


          k = 0.0000 0.0000 0.0000 (   331 PWs)   bands (ev):

     4.9443  11.1212  11.1212  11.1212  12.0054  12.0054  38.7431  40.8713
    40.8713  40.8713

          k = 0.1735 0.1735-0.1735 (   311 PWs)   bands (ev):

     7.1033  10.8763  11.2904  11.2904  12.0962  12.0962  27.4122  38.2268
    38.2268  38.3479

          k =-0.3470-0.3470 0.3470 (   302 PWs)   bands (ev):

     9.0485  11.0880  11.0880  12.6149  12.6149  13.4016  18.5356  36.9125
    37.4685  37.4685

          k = 0.3470 0.0000 0.0000 (   311 PWs)   bands (ev):

     7.7409  10.3605  11.5530  11.8343  11.8343  12.2982  32.2151  32.2151
    33.6381  34.4112

          k =-0.1735-0.5205 0.5205 (   311 PWs)   bands (ev):

     9.7001  10.2584  11.1867  11.8107  12.6584  15.4423  21.4984  27.5586
    31.1809  34.9983

          k = 0.0000-0.3470 0.3470 (   307 PWs)   bands (ev):

     9.5643  10.6023  10.8198  11.6607  12.0057  14.1136  24.4884  25.9127
    35.7607  37.2570

          k =-0.6941 0.0000 0.0000 (   302 PWs)   bands (ev):

     9.1957   9.6382  12.5963  12.7679  12.7679  15.9910  21.9969  28.0720
    28.0720  32.7845

          k =-0.6941 0.3470 0.0000 (   308 PWs)   bands (ev):

     9.9612  10.6032  10.6032  11.9729  12.7687  20.8552  20.8552  23.0323
    23.9372  44.4996

     the Fermi energy is    15.2531 ev

!    total energy              =     -87.83047634 Ry
     estimated scf accuracy    <          6.6E-10 Ry
     smearing contrib. (-TS)   =      -0.00004028 Ry
     internal energy E=F+TS    =     -87.83043606 Ry

     The total energy is F=E-TS. E is the sum of the following terms:
     one-electron contribution =     -10.38017618 Ry
     hartree contribution      =      18.93034351 Ry
     xc contribution           =     -14.05168784 Ry
     ewald contribution        =     -82.32891555 Ry

     total magnetization       =     0.00 Bohr mag/cell
     absolute magnetization    =     0.00 Bohr mag/cell

     convergence has been achieved in   8 iterations

     Forces acting on atoms (cartesian axes, Ry/au):

     atom    1 type  1   force =     0.00000000    0.00000000    0.00000000
     The non-local contrib.  to forces
     atom    1 type  1   force =    -0.00000000    0.00000000    0.00000000
     The ionic contribution  to forces
     atom    1 type  1   force =    -0.00000000   -0.00000000   -0.00000000
     The local contribution  to forces
     atom    1 type  1   force =    -0.00000000   -0.00000000   -0.00000000
     The core correction contribution to forces
     atom    1 type  1   force =     0.00000000    0.00000000    0.00000000
     The Hubbard contrib.    to forces
     atom    1 type  1   force =     0.00000000    0.00000000    0.00000000
     The SCF correction term to forces
     atom    1 type  1   force =    -0.00000000    0.00000000    0.00000000

     Total force =     0.000000     Total SCF correction =     0.000000


     Computing stress (Cartesian axis) and pressure

          total   stress  (Ry/bohr**3)                   (kbar)     P=       -1.66
  -0.00001127  -0.00000000  -0.00000000           -1.66       -0.00       -0.00
  -0.00000000  -0.00001127  -0.00000000           -0.00       -1.66       -0.00
  -0.00000000  -0.00000000  -0.00001127           -0.00       -0.00       -1.66

     Energy error            =      5.9E-07 Ry
     Gradient error          =      0.0E+00 Ry/Bohr
     Cell gradient error     =      1.7E+00 kbar

     number of scf cycles    =   4
     number of bfgs steps    =   2

     enthalpy           old  =     -87.8304769265 Ry
     enthalpy           new  =     -87.8304763392 Ry

     CASE: enthalpy          _new > enthalpy          _old

     new trust radius        =       0.0001589696 bohr
     new conv_thr            =       0.0000000010 Ry

     new unit-cell volume =     76.45721 a.u.^3 (    11.32979 Ang^3 )
     density =      9.31355 g/cm^3

CELL_PARAMETERS (angstrom)
   0.000000000   1.782641268   1.782641268
   1.782641268   0.000000000   1.782641268
   1.782641268   1.782641268   0.000000000

ATOMIC_POSITIONS (angstrom)
Cu            0.0000000000        0.0000000000        0.0000000000



     Writing config-only to output data dir /home/gridsan/epan1/labutil/lab3_samples/problem3/Lab3/Cu_a_3.5_ecut_40_nk_4/pwscf.save/
     NEW-OLD atomic charge density approx. for the potential
     extrapolated charge   10.99495, renormalised to   11.00000
     Generating pointlists ...

     total cpu time spent up to now is        3.0 secs

     Self-consistent Calculation

     iteration #  1     ecut=    40.00 Ry     beta= 0.50
     Davidson diagonalization with overlap
     ethr =  1.00E-06,  avg # of iterations =  2.0

     total cpu time spent up to now is        3.1 secs

     total energy              =     -87.83046028 Ry
     estimated scf accuracy    <       0.00001539 Ry

     total magnetization       =    -0.00 Bohr mag/cell
     absolute magnetization    =     0.00 Bohr mag/cell

     iteration #  2     ecut=    40.00 Ry     beta= 0.50
     Davidson diagonalization with overlap
     ethr =  1.40E-07,  avg # of iterations =  2.0

     total cpu time spent up to now is        3.1 secs

     total energy              =     -87.83047655 Ry
     estimated scf accuracy    <       0.00002602 Ry

     total magnetization       =    -0.00 Bohr mag/cell
     absolute magnetization    =     0.00 Bohr mag/cell

     iteration #  3     ecut=    40.00 Ry     beta= 0.50
     Davidson diagonalization with overlap
     ethr =  1.40E-07,  avg # of iterations =  1.0

     total cpu time spent up to now is        3.2 secs

     total energy              =     -87.83047764 Ry
     estimated scf accuracy    <       0.00000468 Ry

     total magnetization       =    -0.00 Bohr mag/cell
     absolute magnetization    =     0.00 Bohr mag/cell

     iteration #  4     ecut=    40.00 Ry     beta= 0.50
     Davidson diagonalization with overlap
     ethr =  4.25E-08,  avg # of iterations =  1.0

     total cpu time spent up to now is        3.2 secs

     total energy              =     -87.83047636 Ry
     estimated scf accuracy    <       0.00000294 Ry

     total magnetization       =    -0.00 Bohr mag/cell
     absolute magnetization    =     0.00 Bohr mag/cell

     iteration #  5     ecut=    40.00 Ry     beta= 0.50
     Davidson diagonalization with overlap
     ethr =  2.67E-08,  avg # of iterations =  1.0
     Minimization algorithm failed to find Fermi energy: reverting to bisection
     Possible cause: smearing is larger than the electronic band-gap.

     total cpu time spent up to now is        3.3 secs

     total energy              =     -87.83047676 Ry
     estimated scf accuracy    <       0.00000004 Ry

     total magnetization       =    -0.00 Bohr mag/cell
     absolute magnetization    =     0.00 Bohr mag/cell

     iteration #  6     ecut=    40.00 Ry     beta= 0.50
     Davidson diagonalization with overlap
     ethr =  4.02E-10,  avg # of iterations =  2.0
     Minimization algorithm failed to find Fermi energy: reverting to bisection
     Possible cause: smearing is larger than the electronic band-gap.

     total cpu time spent up to now is        3.3 secs

     total energy              =     -87.83047677 Ry
     estimated scf accuracy    <       0.00000012 Ry

     total magnetization       =     0.00 Bohr mag/cell
     absolute magnetization    =     0.00 Bohr mag/cell

     iteration #  7     ecut=    40.00 Ry     beta= 0.50
     Davidson diagonalization with overlap
     ethr =  4.02E-10,  avg # of iterations =  1.6
     Minimization algorithm failed to find Fermi energy: reverting to bisection
     Possible cause: smearing is larger than the electronic band-gap.

     total cpu time spent up to now is        3.4 secs

     total energy              =     -87.83047678 Ry
     estimated scf accuracy    <          4.4E-09 Ry

     total magnetization       =     0.00 Bohr mag/cell
     absolute magnetization    =     0.00 Bohr mag/cell

     iteration #  8     ecut=    40.00 Ry     beta= 0.50
     Davidson diagonalization with overlap
     ethr =  3.96E-11,  avg # of iterations =  2.0
     Minimization algorithm failed to find Fermi energy: reverting to bisection
     Possible cause: smearing is larger than the electronic band-gap.

     Magnetic moment per site  (integrated on atomic sphere of radius R)
     atom   1 (R=0.412)  charge=  9.7166  magn=  0.0000

     total cpu time spent up to now is        3.4 secs

     End of self-consistent calculation

 ------ SPIN UP ------------


          k = 0.0000 0.0000 0.0000 (   331 PWs)   bands (ev):

     4.9497  11.1290  11.1290  11.1290  12.0138  12.0138  38.7571  40.8886
    40.8886  40.8886

          k = 0.1735 0.1735-0.1735 (   311 PWs)   bands (ev):

     7.1094  10.8838  11.2983  11.2983  12.1046  12.1046  27.4254  38.2436
    38.2436  38.3621

          k =-0.3471-0.3471 0.3471 (   302 PWs)   bands (ev):

     9.0549  11.0957  11.0957  12.6238  12.6238  13.4092  18.5471  36.9259
    37.4853  37.4853

          k = 0.3471 0.0000 0.0000 (   311 PWs)   bands (ev):

     7.7472  10.3677  11.5610  11.8425  11.8425  12.3068  32.2297  32.2297
    33.6521  34.4255

          k =-0.1735-0.5206 0.5206 (   311 PWs)   bands (ev):

     9.7068  10.2654  11.1944  11.8190  12.6672  15.4519  21.5101  27.5719
    31.1951  35.0135

          k = 0.0000-0.3471 0.3471 (   307 PWs)   bands (ev):

     9.5711  10.6096  10.8272  11.6688  12.0141  14.1230  24.5006  25.9257
    35.7766  37.2723

          k =-0.6942 0.0000 0.0000 (   302 PWs)   bands (ev):

     9.2020   9.6449  12.6051  12.7768  12.7768  15.9997  22.0093  28.0850
    28.0850  32.7988

          k =-0.6942 0.3471 0.0000 (   308 PWs)   bands (ev):

     9.9679  10.6104  10.6104  11.9812  12.7776  20.8661  20.8661  23.0437
    23.9508  44.5170

 ------ SPIN DOWN ----------


          k = 0.0000 0.0000 0.0000 (   331 PWs)   bands (ev):

     4.9497  11.1290  11.1290  11.1290  12.0138  12.0138  38.7571  40.8886
    40.8886  40.8886

          k = 0.1735 0.1735-0.1735 (   311 PWs)   bands (ev):

     7.1094  10.8838  11.2983  11.2983  12.1046  12.1046  27.4254  38.2436
    38.2436  38.3621

          k =-0.3471-0.3471 0.3471 (   302 PWs)   bands (ev):

     9.0549  11.0957  11.0957  12.6238  12.6238  13.4092  18.5471  36.9259
    37.4853  37.4853

          k = 0.3471 0.0000 0.0000 (   311 PWs)   bands (ev):

     7.7472  10.3677  11.5610  11.8425  11.8425  12.3068  32.2297  32.2297
    33.6521  34.4255

          k =-0.1735-0.5206 0.5206 (   311 PWs)   bands (ev):

     9.7068  10.2654  11.1944  11.8190  12.6672  15.4519  21.5101  27.5719
    31.1951  35.0135

          k = 0.0000-0.3471 0.3471 (   307 PWs)   bands (ev):

     9.5711  10.6096  10.8272  11.6688  12.0141  14.1230  24.5006  25.9257
    35.7766  37.2723

          k =-0.6942 0.0000 0.0000 (   302 PWs)   bands (ev):

     9.2020   9.6449  12.6051  12.7768  12.7768  15.9997  22.0093  28.0850
    28.0850  32.7988

          k =-0.6942 0.3471 0.0000 (   308 PWs)   bands (ev):

     9.9679  10.6104  10.6104  11.9812  12.7776  20.8661  20.8661  23.0437
    23.9508  44.5170

     the Fermi energy is    15.2627 ev

!    total energy              =     -87.83047678 Ry
     estimated scf accuracy    <          6.4E-10 Ry
     smearing contrib. (-TS)   =      -0.00004025 Ry
     internal energy E=F+TS    =     -87.83043653 Ry

     The total energy is F=E-TS. E is the sum of the following terms:
     one-electron contribution =     -10.36070325 Ry
     hartree contribution      =      18.92367768 Ry
     xc contribution           =     -14.05190099 Ry
     ewald contribution        =     -82.34150996 Ry

     total magnetization       =    -0.00 Bohr mag/cell
     absolute magnetization    =     0.00 Bohr mag/cell

     convergence has been achieved in   8 iterations

     Forces acting on atoms (cartesian axes, Ry/au):

     atom    1 type  1   force =     0.00000000    0.00000000    0.00000000
     The non-local contrib.  to forces
     atom    1 type  1   force =    -0.00000000   -0.00000000    0.00000000
     The ionic contribution  to forces
     atom    1 type  1   force =    -0.00000000   -0.00000000   -0.00000000
     The local contribution  to forces
     atom    1 type  1   force =     0.00000000   -0.00000000   -0.00000000
     The core correction contribution to forces
     atom    1 type  1   force =     0.00000000    0.00000000    0.00000000
     The Hubbard contrib.    to forces
     atom    1 type  1   force =     0.00000000    0.00000000    0.00000000
     The SCF correction term to forces
     atom    1 type  1   force =    -0.00000000    0.00000000   -0.00000000

     Total force =     0.000000     Total SCF correction =     0.000000


     Computing stress (Cartesian axis) and pressure

          total   stress  (Ry/bohr**3)                   (kbar)     P=       -2.04
  -0.00001386   0.00000000  -0.00000000           -2.04        0.00       -0.00
   0.00000000  -0.00001386   0.00000000            0.00       -2.04        0.00
   0.00000000   0.00000000  -0.00001386            0.00        0.00       -2.04

     Energy error            =      1.4E-07 Ry
     Gradient error          =      0.0E+00 Ry/Bohr
     Cell gradient error     =      2.0E+00 kbar

     number of scf cycles    =   5
     number of bfgs steps    =   2

     enthalpy           old  =     -87.8304769265 Ry
     enthalpy           new  =     -87.8304767825 Ry

     CASE: enthalpy          _new > enthalpy          _old

     new trust radius        =       0.0000648967 bohr

     trust_radius < trust_radius_min

     resetting bfgs history

     new conv_thr            =       0.0000000010 Ry

     new unit-cell volume =     76.61277 a.u.^3 (    11.35284 Ang^3 )
     density =      9.29464 g/cm^3

CELL_PARAMETERS (angstrom)
   0.000000000   1.783849444   1.783849444
   1.783849444   0.000000000   1.783849444
   1.783849444   1.783849444   0.000000000

ATOMIC_POSITIONS (angstrom)
Cu            0.0000000000        0.0000000000        0.0000000000



     Writing config-only to output data dir /home/gridsan/epan1/labutil/lab3_samples/problem3/Lab3/Cu_a_3.5_ecut_40_nk_4/pwscf.save/
     NEW-OLD atomic charge density approx. for the potential
     extrapolated charge   11.02233, renormalised to   11.00000
     Generating pointlists ...

     total cpu time spent up to now is        3.6 secs

     Self-consistent Calculation

     iteration #  1     ecut=    40.00 Ry     beta= 0.50
     Davidson diagonalization with overlap
     ethr =  1.00E-06,  avg # of iterations =  2.0

     total cpu time spent up to now is        3.6 secs

     total energy              =     -87.83014325 Ry
     estimated scf accuracy    <       0.00031031 Ry

     total magnetization       =    -0.00 Bohr mag/cell
     absolute magnetization    =     0.00 Bohr mag/cell

     iteration #  2     ecut=    40.00 Ry     beta= 0.50
     Davidson diagonalization with overlap
     ethr =  2.82E-06,  avg # of iterations =  2.0

     total cpu time spent up to now is        3.7 secs

     total energy              =     -87.83046873 Ry
     estimated scf accuracy    <       0.00051762 Ry

     total magnetization       =     0.00 Bohr mag/cell
     absolute magnetization    =     0.00 Bohr mag/cell

     iteration #  3     ecut=    40.00 Ry     beta= 0.50
     Davidson diagonalization with overlap
     ethr =  2.82E-06,  avg # of iterations =  1.0

     total cpu time spent up to now is        3.7 secs

     total energy              =     -87.83048836 Ry
     estimated scf accuracy    <       0.00009291 Ry

     total magnetization       =     0.00 Bohr mag/cell
     absolute magnetization    =     0.00 Bohr mag/cell

     iteration #  4     ecut=    40.00 Ry     beta= 0.50
     Davidson diagonalization with overlap
     ethr =  8.45E-07,  avg # of iterations =  1.0
     Minimization algorithm failed to find Fermi energy: reverting to bisection
     Possible cause: smearing is larger than the electronic band-gap.

     total cpu time spent up to now is        3.8 secs

     total energy              =     -87.83046612 Ry
     estimated scf accuracy    <       0.00005265 Ry

     total magnetization       =     0.00 Bohr mag/cell
     absolute magnetization    =     0.00 Bohr mag/cell

     iteration #  5     ecut=    40.00 Ry     beta= 0.50
     Davidson diagonalization with overlap
     ethr =  4.79E-07,  avg # of iterations =  1.0

     total cpu time spent up to now is        3.8 secs

     total energy              =     -87.83047287 Ry
     estimated scf accuracy    <       0.00000098 Ry

     total magnetization       =     0.00 Bohr mag/cell
     absolute magnetization    =     0.00 Bohr mag/cell

     iteration #  6     ecut=    40.00 Ry     beta= 0.50
     Davidson diagonalization with overlap
     ethr =  8.93E-09,  avg # of iterations =  2.0
     Minimization algorithm failed to find Fermi energy: reverting to bisection
     Possible cause: smearing is larger than the electronic band-gap.

     total cpu time spent up to now is        3.9 secs

     total energy              =     -87.83047314 Ry
     estimated scf accuracy    <       0.00000192 Ry

     total magnetization       =    -0.00 Bohr mag/cell
     absolute magnetization    =     0.00 Bohr mag/cell

     iteration #  7     ecut=    40.00 Ry     beta= 0.50
     Davidson diagonalization with overlap
     ethr =  8.93E-09,  avg # of iterations =  1.2
     Minimization algorithm failed to find Fermi energy: reverting to bisection
     Possible cause: smearing is larger than the electronic band-gap.

     total cpu time spent up to now is        4.0 secs

     total energy              =     -87.83047339 Ry
     estimated scf accuracy    <       0.00000004 Ry

     total magnetization       =    -0.00 Bohr mag/cell
     absolute magnetization    =     0.00 Bohr mag/cell

     iteration #  8     ecut=    40.00 Ry     beta= 0.50
     Davidson diagonalization with overlap
     ethr =  3.19E-10,  avg # of iterations =  2.0

     total cpu time spent up to now is        4.0 secs

     total energy              =     -87.83047340 Ry
     estimated scf accuracy    <       0.00000002 Ry

     total magnetization       =     0.00 Bohr mag/cell
     absolute magnetization    =     0.00 Bohr mag/cell

     iteration #  9     ecut=    40.00 Ry     beta= 0.50
     Davidson diagonalization with overlap
     ethr =  1.80E-10,  avg # of iterations =  1.1

     Magnetic moment per site  (integrated on atomic sphere of radius R)
     atom   1 (R=0.412)  charge=  9.7146  magn=  0.0000

     total cpu time spent up to now is        4.1 secs

     End of self-consistent calculation

 ------ SPIN UP ------------


          k = 0.0000 0.0000 0.0000 (   331 PWs)   bands (ev):

     4.9256  11.0956  11.0956  11.0956  11.9776  11.9776  38.6952  40.8122
    40.8122  40.8122

          k = 0.1734 0.1734-0.1734 (   311 PWs)   bands (ev):

     7.0825  10.8514  11.2644  11.2644  12.0682  12.0682  27.3672  38.1693
    38.1693  38.2990

          k =-0.3468-0.3468 0.3468 (   302 PWs)   bands (ev):

     9.0270  11.0625  11.0625  12.5857  12.5857  13.3754  18.4963  36.8664
    37.4108  37.4108

          k = 0.3468 0.0000 0.0000 (   311 PWs)   bands (ev):

     7.7196  10.3368  11.5264  11.8070  11.8070  12.2697  32.1653  32.1653
    33.5903  34.3622

          k =-0.1734-0.5203 0.5203 (   311 PWs)   bands (ev):

     9.6777  10.2352  11.1610  11.7835  12.6290  15.4100  21.4589  27.5133
    31.1323  34.9463

          k = 0.0000-0.3468 0.3468 (   307 PWs)   bands (ev):

     9.5415  10.5781  10.7951  11.6338  11.9779  14.0819  24.4469  25.8681
    35.7062  37.2046

          k =-0.6937 0.0000 0.0000 (   302 PWs)   bands (ev):

     9.1747   9.6163  12.5671  12.7382  12.7382  15.9612  21.9547  28.0277
    28.0277  32.7355

          k =-0.6937 0.3468 0.0000 (   308 PWs)   bands (ev):

     9.9387  10.5790  10.5790  11.9452  12.7390  20.8180  20.8180  22.9934
    23.8909  44.4398

 ------ SPIN DOWN ----------


          k = 0.0000 0.0000 0.0000 (   331 PWs)   bands (ev):

     4.9256  11.0956  11.0956  11.0956  11.9776  11.9776  38.6952  40.8122
    40.8122  40.8122

          k = 0.1734 0.1734-0.1734 (   311 PWs)   bands (ev):

     7.0825  10.8514  11.2644  11.2644  12.0682  12.0682  27.3672  38.1693
    38.1693  38.2990

          k =-0.3468-0.3468 0.3468 (   302 PWs)   bands (ev):

     9.0270  11.0625  11.0625  12.5857  12.5857  13.3754  18.4963  36.8664
    37.4108  37.4108

          k = 0.3468 0.0000 0.0000 (   311 PWs)   bands (ev):

     7.7196  10.3368  11.5264  11.8070  11.8070  12.2697  32.1653  32.1653
    33.5903  34.3622

          k =-0.1734-0.5203 0.5203 (   311 PWs)   bands (ev):

     9.6777  10.2352  11.1610  11.7835  12.6290  15.4100  21.4589  27.5133
    31.1323  34.9463

          k = 0.0000-0.3468 0.3468 (   307 PWs)   bands (ev):

     9.5415  10.5781  10.7951  11.6338  11.9779  14.0819  24.4469  25.8681
    35.7062  37.2046

          k =-0.6937 0.0000 0.0000 (   302 PWs)   bands (ev):

     9.1747   9.6163  12.5671  12.7382  12.7382  15.9612  21.9547  28.0277
    28.0277  32.7355

          k =-0.6937 0.3468 0.0000 (   308 PWs)   bands (ev):

     9.9387  10.5790  10.5790  11.9452  12.7390  20.8180  20.8180  22.9934
    23.8909  44.4398

     the Fermi energy is    15.2208 ev

!    total energy              =     -87.83047341 Ry
     estimated scf accuracy    <          4.1E-12 Ry
     smearing contrib. (-TS)   =      -0.00004035 Ry
     internal energy E=F+TS    =     -87.83043305 Ry

     The total energy is F=E-TS. E is the sum of the following terms:
     one-electron contribution =     -10.44607475 Ry
     hartree contribution      =      18.95211967 Ry
     xc contribution           =     -14.05073672 Ry
     ewald contribution        =     -82.28574125 Ry

     total magnetization       =     0.00 Bohr mag/cell
     absolute magnetization    =     0.00 Bohr mag/cell

     convergence has been achieved in   9 iterations

     Forces acting on atoms (cartesian axes, Ry/au):

     atom    1 type  1   force =     0.00000000    0.00000000    0.00000000
     The non-local contrib.  to forces
     atom    1 type  1   force =    -0.00000000   -0.00000000    0.00000000
     The ionic contribution  to forces
     atom    1 type  1   force =    -0.00000000   -0.00000000   -0.00000000
     The local contribution  to forces
     atom    1 type  1   force =    -0.00000000   -0.00000000   -0.00000000
     The core correction contribution to forces
     atom    1 type  1   force =     0.00000000    0.00000000    0.00000000
     The Hubbard contrib.    to forces
     atom    1 type  1   force =     0.00000000    0.00000000    0.00000000
     The SCF correction term to forces
     atom    1 type  1   force =    -0.00000000   -0.00000000    0.00000000

     Total force =     0.000000     Total SCF correction =     0.000000


     Computing stress (Cartesian axis) and pressure

          total   stress  (Ry/bohr**3)                   (kbar)     P=       -4.86
  -0.00003301   0.00000000   0.00000000           -4.86        0.00        0.00
   0.00000000  -0.00003301   0.00000000            0.00       -4.86        0.00
   0.00000000   0.00000000  -0.00003301            0.00        0.00       -4.86

     Energy error            =      3.5E-06 Ry
     Gradient error          =      0.0E+00 Ry/Bohr
     Cell gradient error     =      4.9E+00 kbar

     number of scf cycles    =   6
     number of bfgs steps    =   2

     enthalpy           old  =     -87.8304769265 Ry
     enthalpy           new  =     -87.8304734073 Ry

     CASE: enthalpy          _new > enthalpy          _old

     new trust radius        =       0.0004076601 bohr
     new conv_thr            =       0.0000000010 Ry

     new unit-cell volume =     76.48982 a.u.^3 (    11.33462 Ang^3 )
     density =      9.30958 g/cm^3

CELL_PARAMETERS (angstrom)
   0.000000000   1.782894643   1.782894643
   1.782894643   0.000000000   1.782894643
   1.782894643   1.782894643   0.000000000

ATOMIC_POSITIONS (angstrom)
Cu            0.0000000000        0.0000000000        0.0000000000



     Writing config-only to output data dir /home/gridsan/epan1/labutil/lab3_samples/problem3/Lab3/Cu_a_3.5_ecut_40_nk_4/pwscf.save/
     NEW-OLD atomic charge density approx. for the potential
     extrapolated charge   10.98232, renormalised to   11.00000
     Generating pointlists ...

     total cpu time spent up to now is        4.2 secs

     Self-consistent Calculation

     iteration #  1     ecut=    40.00 Ry     beta= 0.50
     Davidson diagonalization with overlap
     ethr =  1.00E-06,  avg # of iterations =  2.0

     total cpu time spent up to now is        4.3 secs

     total energy              =     -87.83027217 Ry
     estimated scf accuracy    <       0.00019225 Ry

     total magnetization       =     0.00 Bohr mag/cell
     absolute magnetization    =     0.00 Bohr mag/cell

     iteration #  2     ecut=    40.00 Ry     beta= 0.50
     Davidson diagonalization with overlap
     ethr =  1.75E-06,  avg # of iterations =  2.0

     total cpu time spent up to now is        4.3 secs

     total energy              =     -87.83047297 Ry
     estimated scf accuracy    <       0.00032034 Ry

     total magnetization       =     0.00 Bohr mag/cell
     absolute magnetization    =     0.00 Bohr mag/cell

     iteration #  3     ecut=    40.00 Ry     beta= 0.50
     Davidson diagonalization with overlap
     ethr =  1.75E-06,  avg # of iterations =  1.0

     total cpu time spent up to now is        4.4 secs

     total energy              =     -87.83048677 Ry
     estimated scf accuracy    <       0.00005661 Ry

     total magnetization       =     0.00 Bohr mag/cell
     absolute magnetization    =     0.00 Bohr mag/cell

     iteration #  4     ecut=    40.00 Ry     beta= 0.50
     Davidson diagonalization with overlap
     ethr =  5.15E-07,  avg # of iterations =  1.0

     total cpu time spent up to now is        4.4 secs

     total energy              =     -87.83047101 Ry
     estimated scf accuracy    <       0.00003568 Ry

     total magnetization       =     0.00 Bohr mag/cell
     absolute magnetization    =     0.00 Bohr mag/cell

     iteration #  5     ecut=    40.00 Ry     beta= 0.50
     Davidson diagonalization with overlap
     ethr =  3.24E-07,  avg # of iterations =  1.0
     Minimization algorithm failed to find Fermi energy: reverting to bisection
     Possible cause: smearing is larger than the electronic band-gap.

     total cpu time spent up to now is        4.5 secs

     total energy              =     -87.83047613 Ry
     estimated scf accuracy    <       0.00000042 Ry

     total magnetization       =     0.00 Bohr mag/cell
     absolute magnetization    =     0.00 Bohr mag/cell

     iteration #  6     ecut=    40.00 Ry     beta= 0.50
     Davidson diagonalization with overlap
     ethr =  3.80E-09,  avg # of iterations =  2.0
     Minimization algorithm failed to find Fermi energy: reverting to bisection
     Possible cause: smearing is larger than the electronic band-gap.

     total cpu time spent up to now is        4.6 secs

     total energy              =     -87.83047620 Ry
     estimated scf accuracy    <       0.00000141 Ry

     total magnetization       =     0.00 Bohr mag/cell
     absolute magnetization    =     0.00 Bohr mag/cell

     iteration #  7     ecut=    40.00 Ry     beta= 0.50
     Davidson diagonalization with overlap
     ethr =  3.80E-09,  avg # of iterations =  2.0

     total cpu time spent up to now is        4.6 secs

     total energy              =     -87.83047637 Ry
     estimated scf accuracy    <       0.00000004 Ry

     total magnetization       =     0.00 Bohr mag/cell
     absolute magnetization    =     0.00 Bohr mag/cell

     iteration #  8     ecut=    40.00 Ry     beta= 0.50
     Davidson diagonalization with overlap
     ethr =  3.83E-10,  avg # of iterations =  1.5
     Minimization algorithm failed to find Fermi energy: reverting to bisection
     Possible cause: smearing is larger than the electronic band-gap.

     Magnetic moment per site  (integrated on atomic sphere of radius R)
     atom   1 (R=0.412)  charge=  9.7162  magn=  0.0000

     total cpu time spent up to now is        4.7 secs

     End of self-consistent calculation

 ------ SPIN UP ------------


          k = 0.0000 0.0000 0.0000 (   331 PWs)   bands (ev):

     4.9447  11.1218  11.1218  11.1218  12.0061  12.0061  38.7441  40.8725
    40.8725  40.8725

          k = 0.1735 0.1735-0.1735 (   311 PWs)   bands (ev):

     7.1037  10.8768  11.2910  11.2910  12.0968  12.0968  27.4132  38.2280
    38.2280  38.3489

          k =-0.3470-0.3470 0.3470 (   302 PWs)   bands (ev):

     9.0489  11.0886  11.0886  12.6156  12.6156  13.4021  18.5364  36.9135
    37.4697  37.4697

          k = 0.3470 0.0000 0.0000 (   311 PWs)   bands (ev):

     7.7414  10.3610  11.5536  11.8349  11.8349  12.2989  32.2161  32.2161
    33.6391  34.4122

          k =-0.1735-0.5205 0.5205 (   311 PWs)   bands (ev):

     9.7006  10.2589  11.1872  11.8113  12.6590  15.4430  21.4993  27.5596
    31.1819  34.9994

          k = 0.0000-0.3470 0.3470 (   307 PWs)   bands (ev):

     9.5648  10.6028  10.8203  11.6613  12.0063  14.1142  24.4893  25.9136
    35.7618  37.2581

          k =-0.6941 0.0000 0.0000 (   302 PWs)   bands (ev):

     9.1962   9.6387  12.5970  12.7685  12.7685  15.9916  21.9978  28.0729
    28.0729  32.7855

          k =-0.6941 0.3470 0.0000 (   308 PWs)   bands (ev):

     9.9617  10.6037  10.6037  11.9735  12.7693  20.8559  20.8559  23.0331
    23.9382  44.5008

 ------ SPIN DOWN ----------


          k = 0.0000 0.0000 0.0000 (   331 PWs)   bands (ev):

     4.9447  11.1218  11.1218  11.1218  12.0061  12.0061  38.7441  40.8725
    40.8725  40.8725

          k = 0.1735 0.1735-0.1735 (   311 PWs)   bands (ev):

     7.1037  10.8768  11.2910  11.2910  12.0968  12.0968  27.4132  38.2280
    38.2280  38.3489

          k =-0.3470-0.3470 0.3470 (   302 PWs)   bands (ev):

     9.0489  11.0886  11.0886  12.6156  12.6156  13.4021  18.5364  36.9135
    37.4697  37.4697

          k = 0.3470 0.0000 0.0000 (   311 PWs)   bands (ev):

     7.7414  10.3610  11.5536  11.8349  11.8349  12.2989  32.2161  32.2161
    33.6391  34.4122

          k =-0.1735-0.5205 0.5205 (   311 PWs)   bands (ev):

     9.7006  10.2589  11.1872  11.8113  12.6590  15.4430  21.4993  27.5596
    31.1819  34.9994

          k = 0.0000-0.3470 0.3470 (   307 PWs)   bands (ev):

     9.5648  10.6028  10.8203  11.6613  12.0063  14.1142  24.4893  25.9136
    35.7618  37.2581

          k =-0.6941 0.0000 0.0000 (   302 PWs)   bands (ev):

     9.1962   9.6387  12.5970  12.7685  12.7685  15.9916  21.9978  28.0729
    28.0729  32.7855

          k =-0.6941 0.3470 0.0000 (   308 PWs)   bands (ev):

     9.9617  10.6037  10.6037  11.9735  12.7693  20.8559  20.8559  23.0331
    23.9382  44.5008

     the Fermi energy is    15.2538 ev

!    total energy              =     -87.83047638 Ry
     estimated scf accuracy    <          2.7E-10 Ry
     smearing contrib. (-TS)   =      -0.00004028 Ry
     internal energy E=F+TS    =     -87.83043610 Ry

     The total energy is F=E-TS. E is the sum of the following terms:
     one-electron contribution =     -10.37877164 Ry
     hartree contribution      =      18.92984021 Ry
     xc contribution           =     -14.05169662 Ry
     ewald contribution        =     -82.32980805 Ry

     total magnetization       =    -0.00 Bohr mag/cell
     absolute magnetization    =     0.00 Bohr mag/cell

     convergence has been achieved in   8 iterations

     Forces acting on atoms (cartesian axes, Ry/au):

     atom    1 type  1   force =     0.00000000    0.00000000    0.00000000
     The non-local contrib.  to forces
     atom    1 type  1   force =     0.00000000    0.00000000    0.00000000
     The ionic contribution  to forces
     atom    1 type  1   force =    -0.00000000   -0.00000000   -0.00000000
     The local contribution  to forces
     atom    1 type  1   force =    -0.00000000   -0.00000000   -0.00000000
     The core correction contribution to forces
     atom    1 type  1   force =     0.00000000    0.00000000    0.00000000
     The Hubbard contrib.    to forces
     atom    1 type  1   force =     0.00000000    0.00000000    0.00000000
     The SCF correction term to forces
     atom    1 type  1   force =    -0.00000000   -0.00000000    0.00000000

     Total force =     0.000000     Total SCF correction =     0.000000


     Computing stress (Cartesian axis) and pressure

          total   stress  (Ry/bohr**3)                   (kbar)     P=       -1.81
  -0.00001232   0.00000000  -0.00000000           -1.81        0.00       -0.00
  -0.00000000  -0.00001232  -0.00000000           -0.00       -1.81       -0.00
   0.00000000  -0.00000000  -0.00001232            0.00       -0.00       -1.81

     Energy error            =      5.5E-07 Ry
     Gradient error          =      0.0E+00 Ry/Bohr
     Cell gradient error     =      1.8E+00 kbar

     number of scf cycles    =   7
     number of bfgs steps    =   2

     enthalpy           old  =     -87.8304769265 Ry
     enthalpy           new  =     -87.8304763768 Ry

     CASE: enthalpy          _new > enthalpy          _old

     new trust radius        =       0.0001526996 bohr
     new conv_thr            =       0.0000000010 Ry

     new unit-cell volume =     76.45639 a.u.^3 (    11.32967 Ang^3 )
     density =      9.31365 g/cm^3

CELL_PARAMETERS (angstrom)
   0.000000000   1.782634878   1.782634878
   1.782634878   0.000000000   1.782634878
   1.782634878   1.782634878   0.000000000

ATOMIC_POSITIONS (angstrom)
Cu            0.0000000000        0.0000000000        0.0000000000



     Writing config-only to output data dir /home/gridsan/epan1/labutil/lab3_samples/problem3/Lab3/Cu_a_3.5_ecut_40_nk_4/pwscf.save/
     NEW-OLD atomic charge density approx. for the potential
     extrapolated charge   10.99519, renormalised to   11.00000
     Generating pointlists ...

     total cpu time spent up to now is        4.8 secs

     Self-consistent Calculation

     iteration #  1     ecut=    40.00 Ry     beta= 0.50
     Davidson diagonalization with overlap
     ethr =  1.00E-06,  avg # of iterations =  2.0

     total cpu time spent up to now is        4.9 secs

     total energy              =     -87.83046175 Ry
     estimated scf accuracy    <       0.00001407 Ry

     total magnetization       =    -0.00 Bohr mag/cell
     absolute magnetization    =     0.00 Bohr mag/cell

     iteration #  2     ecut=    40.00 Ry     beta= 0.50
     Davidson diagonalization with overlap
     ethr =  1.28E-07,  avg # of iterations =  2.0

     total cpu time spent up to now is        4.9 secs

     total energy              =     -87.83047657 Ry
     estimated scf accuracy    <       0.00002365 Ry

     total magnetization       =    -0.00 Bohr mag/cell
     absolute magnetization    =     0.00 Bohr mag/cell

     iteration #  3     ecut=    40.00 Ry     beta= 0.50
     Davidson diagonalization with overlap
     ethr =  1.28E-07,  avg # of iterations =  1.0

     total cpu time spent up to now is        5.0 secs

     total energy              =     -87.83047757 Ry
     estimated scf accuracy    <       0.00000423 Ry

     total magnetization       =    -0.00 Bohr mag/cell
     absolute magnetization    =     0.00 Bohr mag/cell

     iteration #  4     ecut=    40.00 Ry     beta= 0.50
     Davidson diagonalization with overlap
     ethr =  3.85E-08,  avg # of iterations =  1.0

     total cpu time spent up to now is        5.0 secs

     total energy              =     -87.83047640 Ry
     estimated scf accuracy    <       0.00000266 Ry

     total magnetization       =    -0.00 Bohr mag/cell
     absolute magnetization    =     0.00 Bohr mag/cell

     iteration #  5     ecut=    40.00 Ry     beta= 0.50
     Davidson diagonalization with overlap
     ethr =  2.42E-08,  avg # of iterations =  1.0
     Minimization algorithm failed to find Fermi energy: reverting to bisection
     Possible cause: smearing is larger than the electronic band-gap.

     total cpu time spent up to now is        5.1 secs

     total energy              =     -87.83047677 Ry
     estimated scf accuracy    <       0.00000004 Ry

     total magnetization       =    -0.00 Bohr mag/cell
     absolute magnetization    =     0.00 Bohr mag/cell

     iteration #  6     ecut=    40.00 Ry     beta= 0.50
     Davidson diagonalization with overlap
     ethr =  3.47E-10,  avg # of iterations =  2.0
     Minimization algorithm failed to find Fermi energy: reverting to bisection
     Possible cause: smearing is larger than the electronic band-gap.

     total cpu time spent up to now is        5.1 secs

     total energy              =     -87.83047678 Ry
     estimated scf accuracy    <       0.00000011 Ry

     total magnetization       =     0.00 Bohr mag/cell
     absolute magnetization    =     0.00 Bohr mag/cell

     iteration #  7     ecut=    40.00 Ry     beta= 0.50
     Davidson diagonalization with overlap
     ethr =  3.47E-10,  avg # of iterations =  1.8
     Minimization algorithm failed to find Fermi energy: reverting to bisection
     Possible cause: smearing is larger than the electronic band-gap.

     total cpu time spent up to now is        5.2 secs

     total energy              =     -87.83047679 Ry
     estimated scf accuracy    <          3.4E-09 Ry

     total magnetization       =     0.00 Bohr mag/cell
     absolute magnetization    =     0.00 Bohr mag/cell

     iteration #  8     ecut=    40.00 Ry     beta= 0.50
     Davidson diagonalization with overlap
     ethr =  3.10E-11,  avg # of iterations =  2.0
     Minimization algorithm failed to find Fermi energy: reverting to bisection
     Possible cause: smearing is larger than the electronic band-gap.

     Magnetic moment per site  (integrated on atomic sphere of radius R)
     atom   1 (R=0.412)  charge=  9.7166  magn=  0.0000

     total cpu time spent up to now is        5.3 secs

     End of self-consistent calculation

 ------ SPIN UP ------------


          k = 0.0000 0.0000 0.0000 (   331 PWs)   bands (ev):

     4.9498  11.1291  11.1291  11.1291  12.0140  12.0140  38.7574  40.8890
    40.8890  40.8890

          k = 0.1735 0.1735-0.1735 (   311 PWs)   bands (ev):

     7.1095  10.8839  11.2985  11.2985  12.1048  12.1048  27.4257  38.2440
    38.2440  38.3624

          k =-0.3471-0.3471 0.3471 (   302 PWs)   bands (ev):

     9.0550  11.0959  11.0959  12.6240  12.6240  13.4094  18.5474  36.9263
    37.4857  37.4857

          k = 0.3471 0.0000 0.0000 (   311 PWs)   bands (ev):

[...]
     Possible cause: smearing is larger than the electronic band-gap.

     total cpu time spent up to now is       32.6 secs

     total energy              =     -87.83047613 Ry
     estimated scf accuracy    <       0.00000042 Ry

     total magnetization       =    -0.00 Bohr mag/cell
     absolute magnetization    =     0.00 Bohr mag/cell

     iteration #  6     ecut=    40.00 Ry     beta= 0.50
     Davidson diagonalization with overlap
     ethr =  3.80E-09,  avg # of iterations =  2.0
     Minimization algorithm failed to find Fermi energy: reverting to bisection
     Possible cause: smearing is larger than the electronic band-gap.

     total cpu time spent up to now is       32.7 secs

     total energy              =     -87.83047620 Ry
     estimated scf accuracy    <       0.00000140 Ry

     total magnetization       =    -0.00 Bohr mag/cell
     absolute magnetization    =     0.00 Bohr mag/cell

     iteration #  7     ecut=    40.00 Ry     beta= 0.50
     Davidson diagonalization with overlap
     ethr =  3.80E-09,  avg # of iterations =  2.0

     total cpu time spent up to now is       32.8 secs

     total energy              =     -87.83047637 Ry
     estimated scf accuracy    <       0.00000004 Ry

     total magnetization       =    -0.00 Bohr mag/cell
     absolute magnetization    =     0.00 Bohr mag/cell

     iteration #  8     ecut=    40.00 Ry     beta= 0.50
     Davidson diagonalization with overlap
     ethr =  3.83E-10,  avg # of iterations =  1.5
     Minimization algorithm failed to find Fermi energy: reverting to bisection
     Possible cause: smearing is larger than the electronic band-gap.

     Magnetic moment per site  (integrated on atomic sphere of radius R)
     atom   1 (R=0.412)  charge=  9.7162  magn=  0.0000

     total cpu time spent up to now is       32.8 secs

     End of self-consistent calculation

 ------ SPIN UP ------------


          k = 0.0000 0.0000 0.0000 (   331 PWs)   bands (ev):

     4.9447  11.1218  11.1218  11.1218  12.0061  12.0061  38.7441  40.8725
    40.8725  40.8725

          k = 0.1735 0.1735-0.1735 (   311 PWs)   bands (ev):

     7.1037  10.8769  11.2910  11.2910  12.0968  12.0968  27.4132  38.2280
    38.2280  38.3489

          k =-0.3470-0.3470 0.3470 (   302 PWs)   bands (ev):

     9.0489  11.0886  11.0886  12.6156  12.6156  13.4021  18.5364  36.9135
    37.4697  37.4697

          k = 0.3470 0.0000 0.0000 (   311 PWs)   bands (ev):

     7.7414  10.3611  11.5536  11.8349  11.8349  12.2989  32.2161  32.2161
    33.6391  34.4122

          k =-0.1735-0.5205 0.5205 (   311 PWs)   bands (ev):

     9.7006  10.2589  11.1872  11.8114  12.6590  15.4430  21.4993  27.5596
    31.1819  34.9994

          k = 0.0000-0.3470 0.3470 (   307 PWs)   bands (ev):

     9.5648  10.6028  10.8203  11.6613  12.0063  14.1142  24.4893  25.9136
    35.7618  37.2581

          k =-0.6941 0.0000 0.0000 (   302 PWs)   bands (ev):

     9.1962   9.6387  12.5970  12.7685  12.7685  15.9916  21.9978  28.0729
    28.0729  32.7855

          k =-0.6941 0.3470 0.0000 (   308 PWs)   bands (ev):

     9.9617  10.6037  10.6037  11.9735  12.7693  20.8559  20.8559  23.0331
    23.9382  44.5008

 ------ SPIN DOWN ----------


          k = 0.0000 0.0000 0.0000 (   331 PWs)   bands (ev):

     4.9447  11.1218  11.1218  11.1218  12.0061  12.0061  38.7441  40.8725
    40.8725  40.8725

          k = 0.1735 0.1735-0.1735 (   311 PWs)   bands (ev):

     7.1037  10.8769  11.2910  11.2910  12.0968  12.0968  27.4132  38.2280
    38.2280  38.3489

          k =-0.3470-0.3470 0.3470 (   302 PWs)   bands (ev):

     9.0489  11.0886  11.0886  12.6156  12.6156  13.4021  18.5364  36.9135
    37.4697  37.4697

          k = 0.3470 0.0000 0.0000 (   311 PWs)   bands (ev):

     7.7414  10.3611  11.5536  11.8349  11.8349  12.2989  32.2161  32.2161
    33.6391  34.4122

          k =-0.1735-0.5205 0.5205 (   311 PWs)   bands (ev):

     9.7006  10.2589  11.1872  11.8114  12.6590  15.4430  21.4993  27.5596
    31.1819  34.9994

          k = 0.0000-0.3470 0.3470 (   307 PWs)   bands (ev):

     9.5648  10.6028  10.8203  11.6613  12.0063  14.1142  24.4893  25.9136
    35.7618  37.2581

          k =-0.6941 0.0000 0.0000 (   302 PWs)   bands (ev):

     9.1962   9.6387  12.5970  12.7685  12.7685  15.9916  21.9978  28.0729
    28.0729  32.7855

          k =-0.6941 0.3470 0.0000 (   308 PWs)   bands (ev):

     9.9617  10.6037  10.6037  11.9735  12.7693  20.8559  20.8559  23.0331
    23.9382  44.5008

     the Fermi energy is    15.2538 ev

!    total energy              =     -87.83047638 Ry
     estimated scf accuracy    <          2.2E-10 Ry
     smearing contrib. (-TS)   =      -0.00004028 Ry
     internal energy E=F+TS    =     -87.83043610 Ry

     The total energy is F=E-TS. E is the sum of the following terms:
     one-electron contribution =     -10.37876411 Ry
     hartree contribution      =      18.92983068 Ry
     xc contribution           =     -14.05169467 Ry
     ewald contribution        =     -82.32980800 Ry

     total magnetization       =     0.00 Bohr mag/cell
     absolute magnetization    =     0.00 Bohr mag/cell

     convergence has been achieved in   8 iterations

     Forces acting on atoms (cartesian axes, Ry/au):

     atom    1 type  1   force =     0.00000000    0.00000000    0.00000000
     The non-local contrib.  to forces
     atom    1 type  1   force =     0.00000000    0.00000000   -0.00000000
     The ionic contribution  to forces
     atom    1 type  1   force =    -0.00000000   -0.00000000   -0.00000000
     The local contribution  to forces
     atom    1 type  1   force =     0.00000000    0.00000000   -0.00000000
     The core correction contribution to forces
     atom    1 type  1   force =     0.00000000    0.00000000    0.00000000
     The Hubbard contrib.    to forces
     atom    1 type  1   force =     0.00000000    0.00000000    0.00000000
     The SCF correction term to forces
     atom    1 type  1   force =    -0.00000000   -0.00000000    0.00000000

     Total force =     0.000000     Total SCF correction =     0.000000


     Computing stress (Cartesian axis) and pressure

          total   stress  (Ry/bohr**3)                   (kbar)     P=       -1.85
  -0.00001259  -0.00000000   0.00000000           -1.85       -0.00        0.00
   0.00000000  -0.00001259   0.00000000            0.00       -1.85        0.00
   0.00000000   0.00000000  -0.00001259            0.00        0.00       -1.85

     Energy error            =      5.5E-07 Ry
     Gradient error          =      0.0E+00 Ry/Bohr
     Cell gradient error     =      1.9E+00 kbar

     number of scf cycles    =  49
     number of bfgs steps    =   2

     enthalpy           old  =     -87.8304769265 Ry
     enthalpy           new  =     -87.8304763768 Ry

     CASE: enthalpy          _new > enthalpy          _old

     new trust radius        =       0.0001526971 bohr
     new conv_thr            =       0.0000000010 Ry

     new unit-cell volume =     76.45639 a.u.^3 (    11.32967 Ang^3 )
     density =      9.31365 g/cm^3

CELL_PARAMETERS (angstrom)
   0.000000000   1.782634876   1.782634876
   1.782634876   0.000000000   1.782634876
   1.782634876   1.782634876   0.000000000

ATOMIC_POSITIONS (angstrom)
Cu            0.0000000000        0.0000000000        0.0000000000



     Writing config-only to output data dir /home/gridsan/epan1/labutil/lab3_samples/problem3/Lab3/Cu_a_3.5_ecut_40_nk_4/pwscf.save/
     NEW-OLD atomic charge density approx. for the potential
     extrapolated charge   10.99519, renormalised to   11.00000
     Generating pointlists ...

     total cpu time spent up to now is       33.0 secs

     Self-consistent Calculation

     iteration #  1     ecut=    40.00 Ry     beta= 0.50
     Davidson diagonalization with overlap
     ethr =  1.00E-06,  avg # of iterations =  2.0

     total cpu time spent up to now is       33.1 secs

     total energy              =     -87.83046174 Ry
     estimated scf accuracy    <       0.00001409 Ry

     total magnetization       =     0.00 Bohr mag/cell
     absolute magnetization    =     0.00 Bohr mag/cell

     iteration #  2     ecut=    40.00 Ry     beta= 0.50
     Davidson diagonalization with overlap
     ethr =  1.28E-07,  avg # of iterations =  2.0

     total cpu time spent up to now is       33.1 secs

     total energy              =     -87.83047657 Ry
     estimated scf accuracy    <       0.00002366 Ry

     total magnetization       =     0.00 Bohr mag/cell
     absolute magnetization    =     0.00 Bohr mag/cell

     iteration #  3     ecut=    40.00 Ry     beta= 0.50
     Davidson diagonalization with overlap
     ethr =  1.28E-07,  avg # of iterations =  1.0

     total cpu time spent up to now is       33.2 secs

     total energy              =     -87.83047757 Ry
     estimated scf accuracy    <       0.00000423 Ry

     total magnetization       =     0.00 Bohr mag/cell
     absolute magnetization    =     0.00 Bohr mag/cell

     iteration #  4     ecut=    40.00 Ry     beta= 0.50
     Davidson diagonalization with overlap
     ethr =  3.85E-08,  avg # of iterations =  1.0

     total cpu time spent up to now is       33.2 secs

     total energy              =     -87.83047640 Ry
     estimated scf accuracy    <       0.00000266 Ry

     total magnetization       =     0.00 Bohr mag/cell
     absolute magnetization    =     0.00 Bohr mag/cell

     iteration #  5     ecut=    40.00 Ry     beta= 0.50
     Davidson diagonalization with overlap
     ethr =  2.42E-08,  avg # of iterations =  1.0
     Minimization algorithm failed to find Fermi energy: reverting to bisection
     Possible cause: smearing is larger than the electronic band-gap.

     total cpu time spent up to now is       33.3 secs

     total energy              =     -87.83047677 Ry
     estimated scf accuracy    <       0.00000004 Ry

     total magnetization       =    -0.00 Bohr mag/cell
     absolute magnetization    =     0.00 Bohr mag/cell

     iteration #  6     ecut=    40.00 Ry     beta= 0.50
     Davidson diagonalization with overlap
     ethr =  3.50E-10,  avg # of iterations =  2.0
     Minimization algorithm failed to find Fermi energy: reverting to bisection
     Possible cause: smearing is larger than the electronic band-gap.

     total cpu time spent up to now is       33.3 secs

     total energy              =     -87.83047678 Ry
     estimated scf accuracy    <       0.00000011 Ry

     total magnetization       =    -0.00 Bohr mag/cell
     absolute magnetization    =     0.00 Bohr mag/cell

     iteration #  7     ecut=    40.00 Ry     beta= 0.50
     Davidson diagonalization with overlap
     ethr =  3.50E-10,  avg # of iterations =  1.6
     Minimization algorithm failed to find Fermi energy: reverting to bisection
     Possible cause: smearing is larger than the electronic band-gap.

     total cpu time spent up to now is       33.4 secs

     total energy              =     -87.83047679 Ry
     estimated scf accuracy    <          3.3E-09 Ry

     total magnetization       =    -0.00 Bohr mag/cell
     absolute magnetization    =     0.00 Bohr mag/cell

     iteration #  8     ecut=    40.00 Ry     beta= 0.50
     Davidson diagonalization with overlap
     ethr =  3.01E-11,  avg # of iterations =  2.0
     Minimization algorithm failed to find Fermi energy: reverting to bisection
     Possible cause: smearing is larger than the electronic band-gap.

     Magnetic moment per site  (integrated on atomic sphere of radius R)
     atom   1 (R=0.412)  charge=  9.7166  magn= -0.0000

     total cpu time spent up to now is       33.4 secs

     End of self-consistent calculation

 ------ SPIN UP ------------


          k = 0.0000 0.0000 0.0000 (   331 PWs)   bands (ev):

     4.9498  11.1291  11.1291  11.1291  12.0140  12.0140  38.7574  40.8890
    40.8890  40.8890

          k = 0.1735 0.1735-0.1735 (   311 PWs)   bands (ev):

     7.1095  10.8839  11.2984  11.2984  12.1048  12.1048  27.4257  38.2440
    38.2440  38.3624

          k =-0.3471-0.3471 0.3471 (   302 PWs)   bands (ev):

     9.0550  11.0959  11.0959  12.6240  12.6240  13.4094  18.5474  36.9263
    37.4857  37.4857

          k = 0.3471 0.0000 0.0000 (   311 PWs)   bands (ev):

     7.7473  10.3678  11.5611  11.8427  11.8427  12.3070  32.2300  32.2300
    33.6525  34.4259

          k =-0.1735-0.5206 0.5206 (   311 PWs)   bands (ev):

     9.7070  10.2656  11.1945  11.8191  12.6674  15.4521  21.5103  27.5722
    31.1955  35.0139

          k = 0.0000-0.3471 0.3471 (   307 PWs)   bands (ev):

     9.5713  10.6097  10.8274  11.6689  12.0143  14.1232  24.5008  25.9260
    35.7770  37.2727

          k =-0.6942 0.0000 0.0000 (   302 PWs)   bands (ev):

     9.2021   9.6450  12.6053  12.7770  12.7770  15.9999  22.0096  28.0853
    28.0853  32.7992

          k =-0.6942 0.3471 0.0000 (   308 PWs)   bands (ev):

     9.9681  10.6106  10.6106  11.9814  12.7778  20.8663  20.8663  23.0440
    23.9511  44.5174

 ------ SPIN DOWN ----------


          k = 0.0000 0.0000 0.0000 (   331 PWs)   bands (ev):

     4.9498  11.1291  11.1291  11.1291  12.0140  12.0140  38.7574  40.8890
    40.8890  40.8890

          k = 0.1735 0.1735-0.1735 (   311 PWs)   bands (ev):

     7.1095  10.8839  11.2984  11.2984  12.1048  12.1048  27.4257  38.2440
    38.2440  38.3624

          k =-0.3471-0.3471 0.3471 (   302 PWs)   bands (ev):

     9.0550  11.0959  11.0959  12.6240  12.6240  13.4094  18.5474  36.9263
    37.4857  37.4857

          k = 0.3471 0.0000 0.0000 (   311 PWs)   bands (ev):

     7.7473  10.3678  11.5611  11.8427  11.8427  12.3070  32.2300  32.2300
    33.6525  34.4259

          k =-0.1735-0.5206 0.5206 (   311 PWs)   bands (ev):

     9.7070  10.2656  11.1945  11.8191  12.6674  15.4521  21.5103  27.5722
    31.1955  35.0139

          k = 0.0000-0.3471 0.3471 (   307 PWs)   bands (ev):

     9.5713  10.6097  10.8274  11.6689  12.0143  14.1232  24.5008  25.9260
    35.7770  37.2727

          k =-0.6942 0.0000 0.0000 (   302 PWs)   bands (ev):

     9.2021   9.6450  12.6053  12.7770  12.7770  15.9999  22.0096  28.0853
    28.0853  32.7992

          k =-0.6942 0.3471 0.0000 (   308 PWs)   bands (ev):

     9.9681  10.6106  10.6106  11.9814  12.7778  20.8663  20.8663  23.0440
    23.9511  44.5174

     the Fermi energy is    15.2629 ev

!    total energy              =     -87.83047679 Ry
     estimated scf accuracy    <          5.2E-10 Ry
     smearing contrib. (-TS)   =      -0.00004025 Ry
     internal energy E=F+TS    =     -87.83043654 Ry

     The total energy is F=E-TS. E is the sum of the following terms:
     one-electron contribution =     -10.36026268 Ry
     hartree contribution      =      18.92354149 Ry
     xc contribution           =     -14.05191010 Ry
     ewald contribution        =     -82.34180524 Ry

     total magnetization       =    -0.00 Bohr mag/cell
     absolute magnetization    =     0.00 Bohr mag/cell

     convergence has been achieved in   8 iterations

     Forces acting on atoms (cartesian axes, Ry/au):

     atom    1 type  1   force =     0.00000000    0.00000000    0.00000000
     The non-local contrib.  to forces
     atom    1 type  1   force =     0.00000000   -0.00000000    0.00000000
     The ionic contribution  to forces
     atom    1 type  1   force =    -0.00000000   -0.00000000   -0.00000000
     The local contribution  to forces
     atom    1 type  1   force =    -0.00000000   -0.00000000   -0.00000000
     The core correction contribution to forces
     atom    1 type  1   force =     0.00000000    0.00000000    0.00000000
     The Hubbard contrib.    to forces
     atom    1 type  1   force =     0.00000000    0.00000000    0.00000000
     The SCF correction term to forces
     atom    1 type  1   force =    -0.00000000   -0.00000000    0.00000000

     Total force =     0.000000     Total SCF correction =     0.000000


     Computing stress (Cartesian axis) and pressure

          total   stress  (Ry/bohr**3)                   (kbar)     P=       -1.97
  -0.00001337  -0.00000000  -0.00000000           -1.97       -0.00       -0.00
  -0.00000000  -0.00001337  -0.00000000           -0.00       -1.97       -0.00
  -0.00000000  -0.00000000  -0.00001337           -0.00       -0.00       -1.97

     Energy error            =      1.4E-07 Ry
     Gradient error          =      0.0E+00 Ry/Bohr
     Cell gradient error     =      2.0E+00 kbar

     number of scf cycles    =  50
     number of bfgs steps    =   2

     enthalpy           old  =     -87.8304769265 Ry
     enthalpy           new  =     -87.8304767907 Ry

     CASE: enthalpy          _new > enthalpy          _old

     new trust radius        =       0.0000625480 bohr

     trust_radius < trust_radius_min

     resetting bfgs history


     The maximum number of steps has been reached.

     End of BFGS Geometry Optimization
     new unit-cell volume =     76.61277 a.u.^3 (    11.35284 Ang^3 )
     density =      9.29464 g/cm^3

CELL_PARAMETERS (angstrom)
   0.000000000   1.783849448   1.783849448
   1.783849448   0.000000000   1.783849448
   1.783849448   1.783849448   0.000000000

ATOMIC_POSITIONS (angstrom)
Cu            0.0000000000        0.0000000000        0.0000000000



     Writing config-only to output data dir /home/gridsan/epan1/labutil/lab3_samples/problem3/Lab3/Cu_a_3.5_ecut_40_nk_4/pwscf.save/
     NEW-OLD atomic charge density approx. for the potential
     extrapolated charge   11.02245, renormalised to   11.00000
     Generating pointlists ...

     init_run     :      0.24s CPU      0.24s WALL (       1 calls)
     electrons    :     24.40s CPU     24.72s WALL (      50 calls)
     update_pot   :      2.31s CPU      2.01s WALL (      50 calls)
     forces       :      1.22s CPU      1.09s WALL (      50 calls)
     stress       :      3.24s CPU      2.67s WALL (      50 calls)

     Called by init_run:
     wfcinit      :      0.02s CPU      0.03s WALL (       1 calls)
     potinit      :      0.11s CPU      0.11s WALL (       1 calls)
     hinit0       :      0.10s CPU      0.10s WALL (       1 calls)

     Called by electrons:
     c_bands      :     17.36s CPU     18.43s WALL (     419 calls)
     sum_band     :      4.39s CPU      3.91s WALL (     419 calls)
     v_of_rho     :      0.71s CPU      0.63s WALL (     470 calls)
     newd         :      1.01s CPU      0.87s WALL (     470 calls)
     mix_rho      :      0.39s CPU      0.34s WALL (     419 calls)

     Called by c_bands:
     init_us_2    :      0.36s CPU      0.34s WALL (   15024 calls)
     init_us_2:cp :      0.34s CPU      0.31s WALL (   15024 calls)
     cegterg      :     14.00s CPU     13.47s WALL (    6704 calls)

     Called by *egterg:
     cdiaghg      :      2.98s CPU      2.84s WALL (   16420 calls)
     h_psi        :      8.38s CPU      8.12s WALL (   17220 calls)
     s_psi        :      0.13s CPU      0.12s WALL (   17220 calls)
     g_psi        :      0.04s CPU      0.04s WALL (   10500 calls)

     Called by h_psi:
     h_psi:calbec :      0.80s CPU      0.78s WALL (   17220 calls)
     vloc_psi     :      7.33s CPU      7.10s WALL (   17220 calls)
     add_vuspsi   :      0.14s CPU      0.13s WALL (   17220 calls)

     General routines
     calbec       :      1.36s CPU      1.28s WALL (   27924 calls)
     fft          :      0.77s CPU      0.68s WALL (    5267 calls)
     ffts         :      0.16s CPU      0.15s WALL (    1778 calls)
     fftw         :      7.48s CPU      7.19s WALL (  374868 calls)
     interpolate  :      0.28s CPU      0.25s WALL (     940 calls)
     davcio       :      0.00s CPU      0.00s WALL (      16 calls)

     Parallel routines

     PWSCF        :     32.91s CPU     33.62s WALL


   This run was terminated on:  10:53: 9   3Nov2023            

=------------------------------------------------------------------------------=
   JOB DONE.
=------------------------------------------------------------------------------=
