
     Program PWSCF v.7.2 starts on  2Nov2023 at 18: 6: 3 

     This program is part of the open-source Quantum ESPRESSO suite
     for quantum simulation of materials; please cite
         "P. Giannozzi et al., J. Phys.:Condens. Matter 21 395502 (2009);
         "P. Giannozzi et al., J. Phys.:Condens. Matter 29 465901 (2017);
         "P. Giannozzi et al., J. Chem. Phys. 152 154105 (2020);
          URL http://www.quantum-espresso.org", 
     in publications or presentations arising from this work. More details at
     http://www.quantum-espresso.org/quote

     Parallel version (MPI), running on     2 processors

     MPI processes distributed on     2 nodes
     187044 MiB available memory on the printing compute node when the environment starts

     Waiting for input...
     Reading input from standard input
Warning: card &CELL ignored
Warning: card / ignored

     Current dimensions of program PWSCF are:
     Max number of different atomic species (ntypx) = 10
     Max number of k-points (npk) =  40000
     Max angular momentum in pseudopotentials (lmaxx) =  4
     file O.pz-rrkjus.UPF: wavefunction(s)  2S renormalized
     Message from routine setup:
     using ibrav=0 with symmetry is DISCOURAGED, use correct ibrav instead

     R & G space division:  proc/nbgrp/npool/nimage =       2
     Subspace diagonalization in iterative solution of the eigenvalue problem:
     a serial algorithm will be used


     Parallelization info
     --------------------
     sticks:   dense  smooth     PW     G-vecs:    dense   smooth      PW
     Min         516     254     74                12418     4366     709
     Max         517     255     75                12419     4367     710
     Sum        1033     509    149                24837     8733    1419

     Using Slab Decomposition



     bravais-lattice index     =            0
     lattice parameter (alat)  =       7.3321  a.u.
     unit-cell volume          =     394.1775 (a.u.)^3
     number of atoms/cell      =            5
     number of atomic types    =            3
     number of electrons       =        44.00
     number of Kohn-Sham states=           22
     kinetic-energy cutoff     =      30.0000  Ry
     charge density cutoff     =     240.0000  Ry
     scf convergence threshold =      1.0E-07
     mixing beta               =       0.7000
     number of iterations used =            8  plain     mixing
     energy convergence thresh.=      1.0E-04
     force convergence thresh. =      1.0E-03
     Exchange-correlation= SLA  PZ   NOGX NOGC
                           (   1   1   0   0   0   0   0)
     nstep                     =           50


     celldm(1)=   7.332137  celldm(2)=   0.000000  celldm(3)=   0.000000
     celldm(4)=   0.000000  celldm(5)=   0.000000  celldm(6)=   0.000000

     crystal axes: (cart. coord. in units of alat)
               a(1) = (   1.000000   0.000000   0.000000 )  
               a(2) = (   0.000000   1.000000   0.000000 )  
               a(3) = (   0.000000   0.000000   1.000000 )  

     reciprocal axes: (cart. coord. in units 2 pi/alat)
               b(1) = (  1.000000  0.000000  0.000000 )  
               b(2) = (  0.000000  1.000000  0.000000 )  
               b(3) = (  0.000000  0.000000  1.000000 )  


     PseudoPot. # 1 for O  read from file:
     /home/gridsan/epan1/labutil/lab3_samples/pseudopotentials/O.pz-rrkjus.UPF
     MD5 check sum: 24fb942a68ef5d262e498166c462ef4a
     Pseudo is Ultrasoft, Zval =  6.0
     Generated by new atomic code, or converted to UPF format
     Using radial grid of 1269 points,  4 beta functions with: 
                l(1) =   0
                l(2) =   0
                l(3) =   1
                l(4) =   1
     Q(r) pseudized with 0 coefficients 


     PseudoPot. # 2 for Pb read from file:
     /home/gridsan/epan1/labutil/lab3_samples/pseudopotentials/Pb.pz-d-van.UPF
     MD5 check sum: 4e1e5920686a026ae26139ac417581ff
     Pseudo is Ultrasoft, Zval = 14.0
     Generated by new atomic code, or converted to UPF format
     Using radial grid of  899 points,  6 beta functions with: 
                l(1) =   0
                l(2) =   0
                l(3) =   1
                l(4) =   1
                l(5) =   2
                l(6) =   2
     Q(r) pseudized with  8 coefficients,  rinner =    1.000   1.000   1.000
                                                       1.000   1.000

     PseudoPot. # 3 for Ti read from file:
     /home/gridsan/epan1/labutil/lab3_samples/pseudopotentials/Ti.pz-sp-van_ak.UPF
     MD5 check sum: 545d0e6e05332b8871a8093f427cb0ca
     Pseudo is Ultrasoft, Zval = 12.0
     Generated by new atomic code, or converted to UPF format
     Using radial grid of  851 points,  6 beta functions with: 
                l(1) =   0
                l(2) =   0
                l(3) =   1
                l(4) =   1
                l(5) =   2
                l(6) =   2
     Q(r) pseudized with  8 coefficients,  rinner =    1.000   1.000   1.000
                                                       1.000   1.000

     atomic species   valence    mass     pseudopotential
        O              6.00    15.99900     O ( 1.00)
        Pb            14.00   207.20000     Pb( 1.00)
        Ti            12.00    47.86700     Ti( 1.00)

      8 Sym. Ops. (no inversion) found



   Cartesian axes

     site n.     atom                  positions (alat units)
         1           Pb  tau(   1) = (   0.0000000   0.0000000   0.0000000  )
         2           Ti  tau(   2) = (   0.5000000   0.5000000   0.5263170  )
         3           O   tau(   3) = (   0.0000000   0.5000000   0.5000000  )
         4           O   tau(   4) = (   0.5000000   0.0000000   0.5000000  )
         5           O   tau(   5) = (   0.5000000   0.5000000   0.0000000  )

     number of k points=     6
                       cart. coord. in units 2pi/alat
        k(    1) = (   0.1250000   0.1250000   0.1250000), wk =   0.2500000
        k(    2) = (   0.1250000   0.1250000   0.3750000), wk =   0.2500000
        k(    3) = (   0.1250000   0.3750000   0.3750000), wk =   0.5000000
        k(    4) = (   0.3750000   0.3750000   0.3750000), wk =   0.2500000
        k(    5) = (   0.3750000  -0.1250000   0.1250000), wk =   0.5000000
        k(    6) = (   0.3750000  -0.3750000   0.1250000), wk =   0.2500000

     Dense  grid:    24837 G-vectors     FFT dimensions: (  40,  40,  40)

     Smooth grid:     8733 G-vectors     FFT dimensions: (  25,  25,  25)

     Estimated max dynamical RAM per process >      51.66 MB

     Estimated total dynamical RAM >     103.32 MB

     Initial potential from superposition of free atoms

     starting charge      42.9982, renormalised to      44.0000
     Starting wfcs are   31 randomized atomic wfcs

     total cpu time spent up to now is        1.0 secs

     Self-consistent Calculation

     iteration #  1     ecut=    30.00 Ry     beta= 0.70
     Davidson diagonalization with overlap
     ethr =  1.00E-02,  avg # of iterations =  2.0

     total cpu time spent up to now is        1.3 secs

     total energy              =    -332.62070334 Ry
     estimated scf accuracy    <       1.09470330 Ry

     iteration #  2     ecut=    30.00 Ry     beta= 0.70
     Davidson diagonalization with overlap
     ethr =  2.49E-03,  avg # of iterations =  7.2

     total cpu time spent up to now is        1.7 secs

     total energy              =    -332.36237504 Ry
     estimated scf accuracy    <       4.22976482 Ry

     iteration #  3     ecut=    30.00 Ry     beta= 0.70
     Davidson diagonalization with overlap
     ethr =  2.49E-03,  avg # of iterations =  5.7

     total cpu time spent up to now is        2.0 secs

     total energy              =    -333.15746538 Ry
     estimated scf accuracy    <       0.23031172 Ry

     iteration #  4     ecut=    30.00 Ry     beta= 0.70
     Davidson diagonalization with overlap
     ethr =  5.23E-04,  avg # of iterations =  2.2

     total cpu time spent up to now is        2.3 secs

     total energy              =    -333.15325944 Ry
     estimated scf accuracy    <       0.06404228 Ry

     iteration #  5     ecut=    30.00 Ry     beta= 0.70
     Davidson diagonalization with overlap
     ethr =  1.46E-04,  avg # of iterations =  4.8

     total cpu time spent up to now is        2.7 secs

     total energy              =    -333.18159718 Ry
     estimated scf accuracy    <       0.02373966 Ry

     iteration #  6     ecut=    30.00 Ry     beta= 0.70
     Davidson diagonalization with overlap
     ethr =  5.40E-05,  avg # of iterations =  2.3

     total cpu time spent up to now is        2.9 secs

     total energy              =    -333.18057170 Ry
     estimated scf accuracy    <       0.00770555 Ry

     iteration #  7     ecut=    30.00 Ry     beta= 0.70
     Davidson diagonalization with overlap
     ethr =  1.75E-05,  avg # of iterations =  4.3

     total cpu time spent up to now is        3.3 secs

     total energy              =    -333.18300735 Ry
     estimated scf accuracy    <       0.00039553 Ry

     iteration #  8     ecut=    30.00 Ry     beta= 0.70
     Davidson diagonalization with overlap
     ethr =  8.99E-07,  avg # of iterations =  2.7

     total cpu time spent up to now is        3.5 secs

     total energy              =    -333.18297332 Ry
     estimated scf accuracy    <       0.00036131 Ry

     iteration #  9     ecut=    30.00 Ry     beta= 0.70
     Davidson diagonalization with overlap
     ethr =  8.21E-07,  avg # of iterations =  1.7

     total cpu time spent up to now is        3.8 secs

     total energy              =    -333.18293988 Ry
     estimated scf accuracy    <       0.00018099 Ry

     iteration # 10     ecut=    30.00 Ry     beta= 0.70
     Davidson diagonalization with overlap
     ethr =  4.11E-07,  avg # of iterations =  3.5

     total cpu time spent up to now is        4.1 secs

     total energy              =    -333.18295645 Ry
     estimated scf accuracy    <       0.00002148 Ry

     iteration # 11     ecut=    30.00 Ry     beta= 0.70
     Davidson diagonalization with overlap
     ethr =  4.88E-08,  avg # of iterations =  5.0

     total cpu time spent up to now is        4.4 secs

     total energy              =    -333.18296692 Ry
     estimated scf accuracy    <       0.00000459 Ry

     iteration # 12     ecut=    30.00 Ry     beta= 0.70
     Davidson diagonalization with overlap
     ethr =  1.04E-08,  avg # of iterations =  1.8

     total cpu time spent up to now is        4.7 secs

     total energy              =    -333.18296611 Ry
     estimated scf accuracy    <       0.00000331 Ry

     iteration # 13     ecut=    30.00 Ry     beta= 0.70
     Davidson diagonalization with overlap
     ethr =  7.53E-09,  avg # of iterations =  2.8

     total cpu time spent up to now is        5.0 secs

     total energy              =    -333.18296616 Ry
     estimated scf accuracy    <       0.00000071 Ry

     iteration # 14     ecut=    30.00 Ry     beta= 0.70
     Davidson diagonalization with overlap
     ethr =  1.62E-09,  avg # of iterations =  4.5

     total cpu time spent up to now is        5.3 secs

     End of self-consistent calculation

          k = 0.1250 0.1250 0.1250 (  1096 PWs)   bands (ev):

   -44.6765 -21.3211 -21.2795 -21.2786  -6.3695  -5.3213  -5.2760  -4.0365
    -4.0319  -4.0195  -3.8527  -3.8475   4.5930   7.2527   7.2754   8.0274
     9.0182   9.0752   9.7406   9.8158   9.9691  10.1072

          k = 0.1250 0.1250 0.3750 (  1095 PWs)   bands (ev):

   -44.6752 -21.3783 -21.2772 -21.2762  -5.9420  -5.1692  -5.1528  -4.0962
    -4.0317  -4.0152  -3.9453  -3.8236   3.8471   6.7828   7.2322   7.8094
     8.4293   8.6310   9.3608   9.8715  10.1037  10.8366

          k = 0.1250 0.3750 0.3750 (  1093 PWs)   bands (ev):

   -44.6740 -21.3750 -21.3323 -21.2748  -5.7295  -5.0766  -4.9860  -4.0699
    -4.0257  -3.9721  -3.8824  -3.7238   3.4958   6.6764   6.8836   7.1515
     7.4628   8.6522   9.3572   9.4574   9.9850  10.6473

          k = 0.3750 0.3750 0.3750 (  1082 PWs)   bands (ev):

   -44.6727 -21.3723 -21.3297 -21.3295  -5.3600  -5.1979  -5.1653  -3.9835
    -3.9778  -3.6933  -3.6295  -3.6145   4.1181   5.8876   5.9259   6.6571
     7.0307   7.0584   7.9315  10.5904  10.6327  10.7072

          k = 0.3750-0.1250 0.1250 (  1095 PWs)   bands (ev):

   -44.6752 -21.3357 -21.3187 -21.2767  -5.9731  -5.1910  -5.1139  -4.0938
    -4.0284  -4.0166  -3.9510  -3.8190   3.8656   6.8252   7.3154   7.8051
     8.3953   8.7315   9.2793   9.8779  10.0055  10.7899

          k = 0.3750-0.3750 0.1250 (  1093 PWs)   bands (ev):

   -44.6740 -21.3328 -21.3319 -21.3168  -5.7884  -5.0394  -4.9658  -4.0648
    -4.0242  -3.9665  -3.8801  -3.7443   3.5128   6.7836   6.8312   7.1295
     7.4326   8.6277   9.4243   9.4489   9.9687  10.7044

     highest occupied level (ev):    10.8366

!    total energy              =    -333.18296638 Ry
     estimated scf accuracy    <       0.00000006 Ry

     The total energy is the sum of the following terms:
     one-electron contribution =     -77.23658937 Ry
     hartree contribution      =      66.51047690 Ry
     xc contribution           =     -49.64456556 Ry
     ewald contribution        =    -272.81228835 Ry

     convergence has been achieved in  14 iterations

     Forces acting on atoms (cartesian axes, Ry/au):

     atom    1 type  2   force =     0.00000000    0.00000000    0.01134379
     atom    2 type  3   force =     0.00000000    0.00000000   -0.02011432
     atom    3 type  1   force =     0.00000000    0.00000000    0.00015052
     atom    4 type  1   force =     0.00000000    0.00000000    0.00015052
     atom    5 type  1   force =     0.00000000    0.00000000    0.00846949
     The non-local contrib.  to forces
     atom    1 type  2   force =     0.00000000    0.00000000   -0.00620616
     atom    2 type  3   force =     0.00000000    0.00000000    0.01139446
     atom    3 type  1   force =     0.00000000    0.00000000    0.05465993
     atom    4 type  1   force =     0.00000000    0.00000000    0.05465993
     atom    5 type  1   force =     0.00000000    0.00000000   -0.19437328
     The ionic contribution  to forces
     atom    1 type  2   force =     0.00000000    0.00000000    0.68614514
     atom    2 type  3   force =    -0.00000000   -0.00000000   -1.59409639
     atom    3 type  1   force =     0.00000000   -0.00000000   -0.76013520
     atom    4 type  1   force =    -0.00000000    0.00000000   -0.76013520
     atom    5 type  1   force =    -0.00000000   -0.00000000    2.42822164
     The local contribution  to forces
     atom    1 type  2   force =     0.00000000   -0.00000000   -0.66856305
     atom    2 type  3   force =    -0.00000000   -0.00000000    1.56260488
     atom    3 type  1   force =     0.00000000   -0.00000000    0.70559372
     atom    4 type  1   force =    -0.00000000    0.00000000    0.70559372
     atom    5 type  1   force =    -0.00000000   -0.00000000   -2.22531586
     The core correction contribution to forces
     atom    1 type  2   force =     0.00000000    0.00000000    0.00000000
     atom    2 type  3   force =     0.00000000    0.00000000    0.00000000
     atom    3 type  1   force =     0.00000000    0.00000000    0.00000000
     atom    4 type  1   force =     0.00000000    0.00000000    0.00000000
     atom    5 type  1   force =     0.00000000    0.00000000    0.00000000
     The Hubbard contrib.    to forces
     atom    1 type  2   force =     0.00000000    0.00000000    0.00000000
     atom    2 type  3   force =     0.00000000    0.00000000    0.00000000
     atom    3 type  1   force =     0.00000000    0.00000000    0.00000000
     atom    4 type  1   force =     0.00000000    0.00000000    0.00000000
     atom    5 type  1   force =     0.00000000    0.00000000    0.00000000
     The SCF correction term to forces
     atom    1 type  2   force =    -0.00000000   -0.00000000   -0.00000000
     atom    2 type  3   force =     0.00000000    0.00000000   -0.00000000
     atom    3 type  1   force =    -0.00000000    0.00000000    0.00002869
     atom    4 type  1   force =     0.00000000    0.00000000    0.00002869
     atom    5 type  1   force =     0.00000000   -0.00000000   -0.00006640

     Total force =     0.008472     Total SCF correction =     0.000078


     Computing stress (Cartesian axis) and pressure

          total   stress  (Ry/bohr**3)                   (kbar)     P=      -16.32
  -0.00014648   0.00000000   0.00000000          -21.55        0.00        0.00
   0.00000000  -0.00014648   0.00000000            0.00      -21.55        0.00
   0.00000000   0.00000000  -0.00003994            0.00        0.00       -5.88


     BFGS Geometry Optimization
     Energy error            =      0.0E+00 Ry
     Gradient error          =      8.5E-03 Ry/Bohr

     number of scf cycles    =   1
     number of bfgs steps    =   0

     energy             new  =    -333.1829663771 Ry

     new trust radius        =       0.0084694865 bohr
     new conv_thr            =       0.0000001000 Ry


ATOMIC_POSITIONS (angstrom)
Pb            0.0000000000        0.0000000000        0.0000000000    0   0   0
Ti            1.9400000000        1.9400000000        2.0421100000    0   0   0
O             0.0000000000        1.9400000000        1.9400796518
O             1.9400000000        0.0000000000        1.9400796518
O             1.9400000000        1.9400000000        0.0044818592



     Writing config-only to output data dir /home/gridsan/epan1/labutil/lab3_samples/problem2/Lab3/PbTiO3_a_3.88_ecut_30_nk_4_displ_0.02631578947368421/pwscf.save/
     NEW-OLD atomic charge density approx. for the potential

     total cpu time spent up to now is        6.4 secs

     Self-consistent Calculation

     iteration #  1     ecut=    30.00 Ry     beta= 0.70
     Davidson diagonalization with overlap
     ethr =  1.00E-06,  avg # of iterations =  3.5

     Threshold (ethr) on eigenvalues was too large:
     Diagonalizing with lowered threshold

     Davidson diagonalization with overlap
     ethr =  2.22E-08,  avg # of iterations =  4.8

     total cpu time spent up to now is        7.0 secs

     total energy              =    -333.18302568 Ry
     estimated scf accuracy    <       0.00001223 Ry

     iteration #  2     ecut=    30.00 Ry     beta= 0.70
     Davidson diagonalization with overlap
     ethr =  2.78E-08,  avg # of iterations =  3.5

     total cpu time spent up to now is        7.3 secs

     total energy              =    -333.18302769 Ry
     estimated scf accuracy    <       0.00000301 Ry

     iteration #  3     ecut=    30.00 Ry     beta= 0.70
     Davidson diagonalization with overlap
     ethr =  6.84E-09,  avg # of iterations =  4.5

     total cpu time spent up to now is        7.6 secs

     total energy              =    -333.18302832 Ry
     estimated scf accuracy    <       0.00000136 Ry

     iteration #  4     ecut=    30.00 Ry     beta= 0.70
     Davidson diagonalization with overlap
     ethr =  3.08E-09,  avg # of iterations =  3.8

     total cpu time spent up to now is        7.9 secs

     total energy              =    -333.18302862 Ry
     estimated scf accuracy    <       0.00000011 Ry

     iteration #  5     ecut=    30.00 Ry     beta= 0.70
     Davidson diagonalization with overlap
     ethr =  2.49E-10,  avg # of iterations =  4.8

     total cpu time spent up to now is        8.3 secs

     End of self-consistent calculation

          k = 0.1250 0.1250 0.1250 (  1096 PWs)   bands (ev):

   -44.6835 -21.3243 -21.2864 -21.2856  -6.3695  -5.3194  -5.2769  -4.0352
    -4.0309  -4.0186  -3.8516  -3.8467   4.5941   7.2533   7.2744   8.0267
     9.0231   9.0781   9.7485   9.8171   9.9678  10.1079

          k = 0.1250 0.1250 0.3750 (  1095 PWs)   bands (ev):

   -44.6822 -21.3814 -21.2841 -21.2832  -5.9431  -5.1664  -5.1540  -4.0950
    -4.0304  -4.0142  -3.9445  -3.8224   3.8495   6.7830   7.2350   7.8073
     8.4298   8.6367   9.3607   9.8727  10.1024  10.8364

          k = 0.1250 0.3750 0.3750 (  1093 PWs)   bands (ev):

   -44.6810 -21.3781 -21.3391 -21.2817  -5.7305  -5.0743  -4.9863  -4.0687
    -4.0246  -3.9710  -3.8813  -3.7233   3.4974   6.6797   6.8812   7.1513
     7.4626   8.6510   9.3620   9.4568   9.9866  10.6497

          k = 0.3750 0.3750 0.3750 (  1082 PWs)   bands (ev):

   -44.6797 -21.3754 -21.3366 -21.3363  -5.3592  -5.1968  -5.1661  -3.9823
    -3.9769  -3.6921  -3.6283  -3.6142   4.1192   5.8901   5.9259   6.6564
     7.0304   7.0560   7.9329  10.5939  10.6346  10.7073

          k = 0.3750-0.1250 0.1250 (  1095 PWs)   bands (ev):

   -44.6822 -21.3425 -21.3219 -21.2837  -5.9724  -5.1898  -5.1149  -4.0928
    -4.0273  -4.0156  -3.9499  -3.8182   3.8666   6.8238   7.3159   7.8052
     8.3957   8.7316   9.2839   9.8796  10.0091  10.7920

          k = 0.3750-0.3750 0.1250 (  1093 PWs)   bands (ev):

   -44.6810 -21.3397 -21.3388 -21.3200  -5.7860  -5.0401  -4.9669  -4.0639
    -4.0231  -3.9658  -3.8792  -3.7426   3.5130   6.7825   6.8301   7.1328
     7.4362   8.6282   9.4252   9.4487   9.9696  10.7036

     highest occupied level (ev):    10.8364

!    total energy              =    -333.18302862 Ry
     estimated scf accuracy    <       0.00000004 Ry

     The total energy is the sum of the following terms:
     one-electron contribution =     -77.19793963 Ry
     hartree contribution      =      66.49005010 Ry
     xc contribution           =     -49.64300882 Ry
     ewald contribution        =    -272.83213027 Ry

     convergence has been achieved in   5 iterations

     Forces acting on atoms (cartesian axes, Ry/au):

     atom    1 type  2   force =     0.00000000    0.00000000    0.01144848
     atom    2 type  3   force =     0.00000000    0.00000000   -0.01920222
     atom    3 type  1   force =     0.00000000    0.00000000    0.00094272
     atom    4 type  1   force =     0.00000000    0.00000000    0.00094272
     atom    5 type  1   force =     0.00000000    0.00000000    0.00586831
     The non-local contrib.  to forces
     atom    1 type  2   force =     0.00000000    0.00000000   -0.00626593
     atom    2 type  3   force =     0.00000000    0.00000000    0.01124654
     atom    3 type  1   force =     0.00000000    0.00000000    0.05730524
     atom    4 type  1   force =     0.00000000    0.00000000    0.05730524
     atom    5 type  1   force =     0.00000000    0.00000000   -0.18994828
     The ionic contribution  to forces
     atom    1 type  2   force =     0.00000000    0.00000000    0.67107103
     atom    2 type  3   force =    -0.00000000   -0.00000000   -1.48766364
     atom    3 type  1   force =     0.00000000   -0.00000000   -0.74714616
     atom    4 type  1   force =    -0.00000000    0.00000000   -0.74714616
     atom    5 type  1   force =     0.00000000    0.00000000    2.31088492
     The local contribution  to forces
     atom    1 type  2   force =     0.00000000    0.00000000   -0.65329758
     atom    2 type  3   force =    -0.00000000   -0.00000000    1.45709225
     atom    3 type  1   force =     0.00000000   -0.00000000    0.69076795
     atom    4 type  1   force =    -0.00000000    0.00000000    0.69076795
     atom    5 type  1   force =    -0.00000000   -0.00000000   -2.11509906
     The core correction contribution to forces
     atom    1 type  2   force =     0.00000000    0.00000000    0.00000000
     atom    2 type  3   force =     0.00000000    0.00000000    0.00000000
     atom    3 type  1   force =     0.00000000    0.00000000    0.00000000
     atom    4 type  1   force =     0.00000000    0.00000000    0.00000000
     atom    5 type  1   force =     0.00000000    0.00000000    0.00000000
     The Hubbard contrib.    to forces
     atom    1 type  2   force =     0.00000000    0.00000000    0.00000000
     atom    2 type  3   force =     0.00000000    0.00000000    0.00000000
     atom    3 type  1   force =     0.00000000    0.00000000    0.00000000
     atom    4 type  1   force =     0.00000000    0.00000000    0.00000000
     atom    5 type  1   force =     0.00000000    0.00000000    0.00000000
     The SCF correction term to forces
     atom    1 type  2   force =    -0.00000000    0.00000000   -0.00000000
     atom    2 type  3   force =     0.00000000    0.00000000    0.00000000
     atom    3 type  1   force =    -0.00000000   -0.00000000    0.00000791
     atom    4 type  1   force =     0.00000000   -0.00000000    0.00000791
     atom    5 type  1   force =    -0.00000000   -0.00000000    0.00002295

     Total force =     0.006018     Total SCF correction =     0.000026


     Computing stress (Cartesian axis) and pressure

          total   stress  (Ry/bohr**3)                   (kbar)     P=      -16.49
  -0.00014412   0.00000000   0.00000000          -21.20        0.00        0.00
   0.00000000  -0.00014412   0.00000000            0.00      -21.20        0.00
   0.00000000   0.00000000  -0.00004807            0.00        0.00       -7.07

     Energy error            =      6.2E-05 Ry
     Gradient error          =      5.9E-03 Ry/Bohr

     number of scf cycles    =   2
     number of bfgs steps    =   1

     energy             old  =    -333.1829663771 Ry
     energy             new  =    -333.1830286245 Ry

     CASE: energy            _new < energy            _old

     new trust radius        =       0.0093164351 bohr
     new conv_thr            =       0.0000000010 Ry


ATOMIC_POSITIONS (angstrom)
Pb            0.0000000000        0.0000000000        0.0000000000    0   0   0
Ti            1.9400000000        1.9400000000        2.0421100000    0   0   0
O             0.0000000000        1.9400000000        1.9408116788
O             1.9400000000        0.0000000000        1.9408116788
O             1.9400000000        1.9400000000        0.0094119044



     Writing config-only to output data dir /home/gridsan/epan1/labutil/lab3_samples/problem2/Lab3/PbTiO3_a_3.88_ecut_30_nk_4_displ_0.02631578947368421/pwscf.save/
     NEW-OLD atomic charge density approx. for the potential

     total cpu time spent up to now is        9.4 secs

     Self-consistent Calculation

     iteration #  1     ecut=    30.00 Ry     beta= 0.70
     Davidson diagonalization with overlap
     ethr =  1.00E-06,  avg # of iterations =  3.7

     Threshold (ethr) on eigenvalues was too large:
     Diagonalizing with lowered threshold

     Davidson diagonalization with overlap
     ethr =  3.03E-08,  avg # of iterations =  5.0

     total cpu time spent up to now is       10.0 secs

     total energy              =    -333.18306850 Ry
     estimated scf accuracy    <       0.00001868 Ry

     iteration #  2     ecut=    30.00 Ry     beta= 0.70
     Davidson diagonalization with overlap
     ethr =  4.25E-08,  avg # of iterations =  5.2

     total cpu time spent up to now is       10.3 secs

     total energy              =    -333.18306803 Ry
     estimated scf accuracy    <       0.00002583 Ry

     iteration #  3     ecut=    30.00 Ry     beta= 0.70
     Davidson diagonalization with overlap
     ethr =  4.25E-08,  avg # of iterations =  4.3

     total cpu time spent up to now is       10.6 secs

     total energy              =    -333.18307398 Ry
     estimated scf accuracy    <       0.00000305 Ry

     iteration #  4     ecut=    30.00 Ry     beta= 0.70
     Davidson diagonalization with overlap
     ethr =  6.94E-09,  avg # of iterations =  3.0

     total cpu time spent up to now is       10.9 secs

     total energy              =    -333.18307427 Ry
     estimated scf accuracy    <       0.00000038 Ry

     iteration #  5     ecut=    30.00 Ry     beta= 0.70
     Davidson diagonalization with overlap
     ethr =  8.55E-10,  avg # of iterations =  5.2

     total cpu time spent up to now is       11.4 secs

     total energy              =    -333.18307449 Ry
     estimated scf accuracy    <       0.00000017 Ry

     iteration #  6     ecut=    30.00 Ry     beta= 0.70
     Davidson diagonalization with overlap
     ethr =  3.86E-10,  avg # of iterations =  1.7

     total cpu time spent up to now is       11.9 secs

     total energy              =    -333.18307447 Ry
     estimated scf accuracy    <       0.00000008 Ry

     iteration #  7     ecut=    30.00 Ry     beta= 0.70
     Davidson diagonalization with overlap
     ethr =  1.74E-10,  avg # of iterations =  4.5

     total cpu time spent up to now is       12.3 secs

     total energy              =    -333.18307450 Ry
     estimated scf accuracy    <          5.7E-09 Ry

     iteration #  8     ecut=    30.00 Ry     beta= 0.70
     Davidson diagonalization with overlap
     ethr =  1.29E-11,  avg # of iterations =  3.8

     total cpu time spent up to now is       12.6 secs

     End of self-consistent calculation

          k = 0.1250 0.1250 0.1250 (  1096 PWs)   bands (ev):

   -44.6883 -21.3254 -21.2913 -21.2905  -6.3701  -5.3179  -5.2787  -4.0342
    -4.0302  -4.0177  -3.8506  -3.8461   4.5949   7.2536   7.2730   8.0260
     9.0282   9.0808   9.7575   9.8181   9.9656  10.1077

          k = 0.1250 0.1250 0.3750 (  1095 PWs)   bands (ev):

   -44.6871 -21.3825 -21.2891 -21.2881  -5.9449  -5.1638  -5.1560  -4.0940
    -4.0293  -4.0135  -3.9440  -3.8214   3.8519   6.7833   7.2381   7.8051
     8.4297   8.6425   9.3601   9.8738  10.1001  10.8355

          k = 0.1250 0.3750 0.3750 (  1093 PWs)   bands (ev):

   -44.6859 -21.3792 -21.3441 -21.2867  -5.7321  -5.0724  -4.9871  -4.0677
    -4.0236  -3.9701  -3.8805  -3.7230   3.4988   6.6837   6.8780   7.1508
     7.4620   8.6494   9.3667   9.4556   9.9878  10.6516

          k = 0.3750 0.3750 0.3750 (  1082 PWs)   bands (ev):

   -44.6846 -21.3765 -21.3415 -21.3413  -5.3589  -5.1959  -5.1674  -3.9812
    -3.9762  -3.6911  -3.6273  -3.6142   4.1201   5.8926   5.9255   6.6558
     7.0296   7.0530   7.9342  10.5971  10.6358  10.7067

          k = 0.3750-0.1250 0.1250 (  1095 PWs)   bands (ev):

   -44.6871 -21.3475 -21.3230 -21.2886  -5.9722  -5.1891  -5.1165  -4.0919
    -4.0265  -4.0148  -3.9489  -3.8176   3.8675   6.8222   7.3160   7.8048
     8.3960   8.7310   9.2887   9.8809  10.0127  10.7937

          k = 0.3750-0.3750 0.1250 (  1093 PWs)   bands (ev):

   -44.6859 -21.3446 -21.3437 -21.3211  -5.7837  -5.0415  -4.9687  -4.0632
    -4.0223  -3.9652  -3.8785  -3.7410   3.5130   6.7811   6.8287   7.1357
     7.4394   8.6283   9.4255   9.4481   9.9704  10.7019

     highest occupied level (ev):    10.8355

!    total energy              =    -333.18307450 Ry
     estimated scf accuracy    <          2.3E-10 Ry

     The total energy is the sum of the following terms:
     one-electron contribution =     -77.15972455 Ry
     hartree contribution      =      66.46929733 Ry
     xc contribution           =     -49.64162029 Ry
     ewald contribution        =    -272.85102699 Ry

     convergence has been achieved in   8 iterations

     Forces acting on atoms (cartesian axes, Ry/au):

     atom    1 type  2   force =     0.00000000    0.00000000    0.01156044
     atom    2 type  3   force =     0.00000000    0.00000000   -0.01827248
     atom    3 type  1   force =     0.00000000    0.00000000    0.00170787
     atom    4 type  1   force =     0.00000000    0.00000000    0.00170787
     atom    5 type  1   force =     0.00000000    0.00000000    0.00329630
     The non-local contrib.  to forces
     atom    1 type  2   force =     0.00000000    0.00000000   -0.00672134
     atom    2 type  3   force =     0.00000000    0.00000000    0.01102867
     atom    3 type  1   force =     0.00000000    0.00000000    0.05989430
     atom    4 type  1   force =     0.00000000    0.00000000    0.05989430
     atom    5 type  1   force =     0.00000000    0.00000000   -0.18461561
     The ionic contribution  to forces
     atom    1 type  2   force =     0.00000000    0.00000000    0.66333738
     atom    2 type  3   force =    -0.00000000   -0.00000000   -1.38022112
     atom    3 type  1   force =     0.00000000   -0.00000000   -0.73444074
     atom    4 type  1   force =    -0.00000000    0.00000000   -0.73444074
     atom    5 type  1   force =    -0.00000000   -0.00000000    2.18576523
     The local contribution  to forces
     atom    1 type  2   force =    -0.00000000    0.00000000   -0.64506940
     atom    2 type  3   force =    -0.00000000   -0.00000000    1.35094238
     atom    3 type  1   force =     0.00000000   -0.00000000    0.67625795
     atom    4 type  1   force =    -0.00000000    0.00000000    0.67625795
     atom    5 type  1   force =    -0.00000000   -0.00000000   -1.99785923
     The core correction contribution to forces
     atom    1 type  2   force =     0.00000000    0.00000000    0.00000000
     atom    2 type  3   force =     0.00000000    0.00000000    0.00000000
     atom    3 type  1   force =     0.00000000    0.00000000    0.00000000
     atom    4 type  1   force =     0.00000000    0.00000000    0.00000000
     atom    5 type  1   force =     0.00000000    0.00000000    0.00000000
     The Hubbard contrib.    to forces
     atom    1 type  2   force =     0.00000000    0.00000000    0.00000000
     atom    2 type  3   force =     0.00000000    0.00000000    0.00000000
     atom    3 type  1   force =     0.00000000    0.00000000    0.00000000
     atom    4 type  1   force =     0.00000000    0.00000000    0.00000000
     atom    5 type  1   force =     0.00000000    0.00000000    0.00000000
     The SCF correction term to forces
     atom    1 type  2   force =    -0.00000000   -0.00000000    0.00000000
     atom    2 type  3   force =     0.00000000    0.00000000   -0.00000000
     atom    3 type  1   force =     0.00000000   -0.00000000   -0.00000443
     atom    4 type  1   force =    -0.00000000    0.00000000   -0.00000443
     atom    5 type  1   force =    -0.00000000   -0.00000000    0.00000511

     Total force =     0.004086     Total SCF correction =     0.000008


     Computing stress (Cartesian axis) and pressure

          total   stress  (Ry/bohr**3)                   (kbar)     P=      -17.68
  -0.00014852   0.00000000   0.00000000          -21.85        0.00        0.00
   0.00000000  -0.00014852   0.00000000            0.00      -21.85        0.00
   0.00000000   0.00000000  -0.00006345            0.00        0.00       -9.33

     Energy error            =      4.6E-05 Ry
     Gradient error          =      3.3E-03 Ry/Bohr

     number of scf cycles    =   3
     number of bfgs steps    =   2

     energy             old  =    -333.1830286245 Ry
     energy             new  =    -333.1830744973 Ry

     CASE: energy            _new < energy            _old

     new trust radius        =       0.0139746526 bohr
     new conv_thr            =       0.0000000010 Ry


ATOMIC_POSITIONS (angstrom)
Pb            0.0000000000        0.0000000000        0.0000000000    0   0   0
Ti            1.9400000000        1.9400000000        2.0421100000    0   0   0
O             0.0000000000        1.9400000000        1.9431424550
O             1.9400000000        0.0000000000        1.9431424550
O             1.9400000000        1.9400000000        0.0168069721



     Writing config-only to output data dir /home/gridsan/epan1/labutil/lab3_samples/problem2/Lab3/PbTiO3_a_3.88_ecut_30_nk_4_displ_0.02631578947368421/pwscf.save/
     NEW-OLD atomic charge density approx. for the potential

     total cpu time spent up to now is       13.8 secs

     Self-consistent Calculation

     iteration #  1     ecut=    30.00 Ry     beta= 0.70
     Davidson diagonalization with overlap
     ethr =  1.00E-06,  avg # of iterations =  4.5

     Threshold (ethr) on eigenvalues was too large:
     Diagonalizing with lowered threshold

     Davidson diagonalization with overlap
     ethr =  7.39E-08,  avg # of iterations =  3.0

     total cpu time spent up to now is       14.4 secs

     total energy              =    -333.18310725 Ry
     estimated scf accuracy    <       0.00003565 Ry

     iteration #  2     ecut=    30.00 Ry     beta= 0.70
     Davidson diagonalization with overlap
     ethr =  8.10E-08,  avg # of iterations =  4.5

     total cpu time spent up to now is       14.7 secs

     total energy              =    -333.18310967 Ry
     estimated scf accuracy    <       0.00002331 Ry

     iteration #  3     ecut=    30.00 Ry     beta= 0.70
     Davidson diagonalization with overlap
     ethr =  5.30E-08,  avg # of iterations =  4.5

     total cpu time spent up to now is       15.0 secs

     total energy              =    -333.18311535 Ry
     estimated scf accuracy    <       0.00000800 Ry

     iteration #  4     ecut=    30.00 Ry     beta= 0.70
     Davidson diagonalization with overlap
     ethr =  1.82E-08,  avg # of iterations =  3.5

     total cpu time spent up to now is       15.3 secs

     total energy              =    -333.18311640 Ry
     estimated scf accuracy    <       0.00000039 Ry

     iteration #  5     ecut=    30.00 Ry     beta= 0.70
     Davidson diagonalization with overlap
     ethr =  8.76E-10,  avg # of iterations =  5.8

     total cpu time spent up to now is       15.7 secs

     total energy              =    -333.18311680 Ry
     estimated scf accuracy    <       0.00000070 Ry

     iteration #  6     ecut=    30.00 Ry     beta= 0.70
     Davidson diagonalization with overlap
     ethr =  8.76E-10,  avg # of iterations =  2.3

     total cpu time spent up to now is       16.0 secs

     total energy              =    -333.18311670 Ry
     estimated scf accuracy    <       0.00000037 Ry

     iteration #  7     ecut=    30.00 Ry     beta= 0.70
     Davidson diagonalization with overlap
     ethr =  8.45E-10,  avg # of iterations =  4.3

     total cpu time spent up to now is       16.3 secs

     total energy              =    -333.18311679 Ry
     estimated scf accuracy    <       0.00000001 Ry

     iteration #  8     ecut=    30.00 Ry     beta= 0.70
     Davidson diagonalization with overlap
     ethr =  3.04E-11,  avg # of iterations =  4.3

     total cpu time spent up to now is       16.6 secs

     total energy              =    -333.18311679 Ry
     estimated scf accuracy    <          6.9E-09 Ry

     iteration #  9     ecut=    30.00 Ry     beta= 0.70
     Davidson diagonalization with overlap
     ethr =  1.57E-11,  avg # of iterations =  4.8

     total cpu time spent up to now is       17.0 secs

     End of self-consistent calculation

          k = 0.1250 0.1250 0.1250 (  1096 PWs)   bands (ev):

   -44.6963 -21.3281 -21.2995 -21.2986  -6.3707  -5.3157  -5.2813  -4.0325
    -4.0290  -4.0165  -3.8492  -3.8452   4.5962   7.2543   7.2711   8.0255
     9.0361   9.0843   9.7722   9.8205   9.9620  10.1063

          k = 0.1250 0.1250 0.3750 (  1095 PWs)   bands (ev):

   -44.6951 -21.3850 -21.2972 -21.2962  -5.9475  -5.1598  -5.1589  -4.0924
    -4.0277  -4.0123  -3.9431  -3.8199   3.8555   6.7839   7.2438   7.8025
     8.4286   8.6509   9.3590   9.8761  10.0968  10.8339

          k = 0.1250 0.3750 0.3750 (  1093 PWs)   bands (ev):

   -44.6938 -21.3817 -21.3522 -21.2948  -5.7344  -5.0694  -4.9880  -4.0661
    -4.0222  -3.9686  -3.8792  -3.7225   3.5009   6.6903   6.8724   7.1501
     7.4610   8.6470   9.3732   9.4539   9.9894  10.6550

          k = 0.3750 0.3750 0.3750 (  1082 PWs)   bands (ev):

   -44.6925 -21.3791 -21.3496 -21.3494  -5.3581  -5.1944  -5.1693  -3.9795
    -3.9751  -3.6895  -3.6258  -3.6140   4.1212   5.8961   5.9247   6.6556
     7.0272   7.0475   7.9358  10.6022  10.6376  10.7063

          k = 0.3750-0.1250 0.1250 (  1095 PWs)   bands (ev):

   -44.6951 -21.3555 -21.3257 -21.2967  -5.9717  -5.1880  -5.1186  -4.0906
    -4.0251  -4.0134  -3.9474  -3.8166   3.8688   6.8194   7.3159   7.8044
     8.3966   8.7296   9.2957   9.8832  10.0186  10.7961

          k = 0.3750-0.3750 0.1250 (  1093 PWs)   bands (ev):

   -44.6939 -21.3527 -21.3518 -21.3237  -5.7800  -5.0433  -4.9711  -4.0622
    -4.0210  -3.9642  -3.8775  -3.7386   3.5129   6.7791   6.8261   7.1393
     7.4435   8.6284   9.4254   9.4475   9.9720  10.6997

     highest occupied level (ev):    10.8339

!    total energy              =    -333.18311679 Ry
     estimated scf accuracy    <          5.5E-10 Ry

     The total energy is the sum of the following terms:
     one-electron contribution =     -77.11393147 Ry
     hartree contribution      =      66.44447556 Ry
     xc contribution           =     -49.63974672 Ry
     ewald contribution        =    -272.87391416 Ry

     convergence has been achieved in   9 iterations

     Forces acting on atoms (cartesian axes, Ry/au):

     atom    1 type  2   force =     0.00000000    0.00000000    0.01154233
     atom    2 type  3   force =     0.00000000    0.00000000   -0.01697289
     atom    3 type  1   force =     0.00000000    0.00000000    0.00270798
     atom    4 type  1   force =     0.00000000    0.00000000    0.00270798
     atom    5 type  1   force =     0.00000000    0.00000000    0.00001459
     The non-local contrib.  to forces
     atom    1 type  2   force =     0.00000000    0.00000000   -0.00838942
     atom    2 type  3   force =     0.00000000    0.00000000    0.01070552
     atom    3 type  1   force =     0.00000000    0.00000000    0.06323817
     atom    4 type  1   force =     0.00000000    0.00000000    0.06323817
     atom    5 type  1   force =     0.00000000    0.00000000   -0.17576314
     The ionic contribution  to forces
     atom    1 type  2   force =     0.00000000    0.00000000    0.66866518
     atom    2 type  3   force =    -0.00000000   -0.00000000   -1.23749486
     atom    3 type  1   force =     0.00000000   -0.00000000   -0.71840050
     atom    4 type  1   force =    -0.00000000    0.00000000   -0.71840050
     atom    5 type  1   force =    -0.00000000   -0.00000000    2.00563068
     The local contribution  to forces
     atom    1 type  2   force =    -0.00000000    0.00000000   -0.64874463
     atom    2 type  3   force =    -0.00000000   -0.00000000    1.20981318
     atom    3 type  1   force =     0.00000000   -0.00000000    0.65786506
     atom    4 type  1   force =    -0.00000000    0.00000000    0.65786506
     atom    5 type  1   force =    -0.00000000   -0.00000000   -1.82986430
     The core correction contribution to forces
     atom    1 type  2   force =     0.00000000    0.00000000    0.00000000
     atom    2 type  3   force =     0.00000000    0.00000000    0.00000000
     atom    3 type  1   force =     0.00000000    0.00000000    0.00000000
     atom    4 type  1   force =     0.00000000    0.00000000    0.00000000
     atom    5 type  1   force =     0.00000000    0.00000000    0.00000000
     The Hubbard contrib.    to forces
     atom    1 type  2   force =     0.00000000    0.00000000    0.00000000
     atom    2 type  3   force =     0.00000000    0.00000000    0.00000000
     atom    3 type  1   force =     0.00000000    0.00000000    0.00000000
     atom    4 type  1   force =     0.00000000    0.00000000    0.00000000
     atom    5 type  1   force =     0.00000000    0.00000000    0.00000000
     The SCF correction term to forces
     atom    1 type  2   force =     0.00000000   -0.00000000    0.00000000
     atom    2 type  3   force =     0.00000000   -0.00000000   -0.00000000
     atom    3 type  1   force =     0.00000000   -0.00000000   -0.00000216
     atom    4 type  1   force =    -0.00000000    0.00000000   -0.00000216
     atom    5 type  1   force =     0.00000000   -0.00000000    0.00000392

     Total force =     0.003830     Total SCF correction =     0.000005


     Computing stress (Cartesian axis) and pressure

          total   stress  (Ry/bohr**3)                   (kbar)     P=      -18.74
  -0.00015055   0.00000000   0.00000000          -22.15        0.00        0.00
   0.00000000  -0.00015055   0.00000000            0.00      -22.15        0.00
   0.00000000   0.00000000  -0.00008098            0.00        0.00      -11.91

     Energy error            =      4.2E-05 Ry
     Gradient error          =      2.7E-03 Ry/Bohr

     number of scf cycles    =   4
     number of bfgs steps    =   3

     energy             old  =    -333.1830744973 Ry
     energy             new  =    -333.1831167895 Ry

     CASE: energy            _new < energy            _old

     new trust radius        =       0.0115620660 bohr
     new conv_thr            =       0.0000000010 Ry


ATOMIC_POSITIONS (angstrom)
Pb            0.0000000000        0.0000000000        0.0000000000    0   0   0
Ti            1.9400000000        1.9400000000        2.0421100000    0   0   0
O             0.0000000000        1.9400000000        1.9468157344
O             1.9400000000        0.0000000000        1.9468157344
O             1.9400000000        1.9400000000        0.0229253539



     Writing config-only to output data dir /home/gridsan/epan1/labutil/lab3_samples/problem2/Lab3/PbTiO3_a_3.88_ecut_30_nk_4_displ_0.02631578947368421/pwscf.save/
     NEW-OLD atomic charge density approx. for the potential

     total cpu time spent up to now is       18.1 secs

     Self-consistent Calculation

     iteration #  1     ecut=    30.00 Ry     beta= 0.70
     Davidson diagonalization with overlap
     ethr =  1.00E-06,  avg # of iterations =  4.5

     Threshold (ethr) on eigenvalues was too large:
     Diagonalizing with lowered threshold

     Davidson diagonalization with overlap
     ethr =  5.57E-08,  avg # of iterations =  3.8

     total cpu time spent up to now is       18.6 secs

     total energy              =    -333.18314187 Ry
     estimated scf accuracy    <       0.00002700 Ry

     iteration #  2     ecut=    30.00 Ry     beta= 0.70
     Davidson diagonalization with overlap
     ethr =  6.14E-08,  avg # of iterations =  4.5

     total cpu time spent up to now is       19.0 secs

     total energy              =    -333.18314182 Ry
     estimated scf accuracy    <       0.00001647 Ry

     iteration #  3     ecut=    30.00 Ry     beta= 0.70
     Davidson diagonalization with overlap
     ethr =  3.74E-08,  avg # of iterations =  4.5

     total cpu time spent up to now is       19.3 secs

     total energy              =    -333.18314626 Ry
     estimated scf accuracy    <       0.00000806 Ry

     iteration #  4     ecut=    30.00 Ry     beta= 0.70
     Davidson diagonalization with overlap
     ethr =  1.83E-08,  avg # of iterations =  3.0

     total cpu time spent up to now is       19.6 secs

     total energy              =    -333.18314695 Ry
     estimated scf accuracy    <       0.00000069 Ry

     iteration #  5     ecut=    30.00 Ry     beta= 0.70
     Davidson diagonalization with overlap
     ethr =  1.57E-09,  avg # of iterations =  5.2

     total cpu time spent up to now is       20.0 secs

     total energy              =    -333.18314752 Ry
     estimated scf accuracy    <       0.00000077 Ry

     iteration #  6     ecut=    30.00 Ry     beta= 0.70
     Davidson diagonalization with overlap
     ethr =  1.57E-09,  avg # of iterations =  1.2

     total cpu time spent up to now is       20.2 secs

     total energy              =    -333.18314739 Ry
     estimated scf accuracy    <       0.00000047 Ry

     iteration #  7     ecut=    30.00 Ry     beta= 0.70
     Davidson diagonalization with overlap
     ethr =  1.06E-09,  avg # of iterations =  3.5

     total cpu time spent up to now is       20.5 secs

     total energy              =    -333.18314748 Ry
     estimated scf accuracy    <       0.00000002 Ry

     iteration #  8     ecut=    30.00 Ry     beta= 0.70
     Davidson diagonalization with overlap
     ethr =  3.55E-11,  avg # of iterations =  5.3

     total cpu time spent up to now is       20.9 secs

     total energy              =    -333.18314749 Ry
     estimated scf accuracy    <          2.3E-09 Ry

     iteration #  9     ecut=    30.00 Ry     beta= 0.70
     Davidson diagonalization with overlap
     ethr =  5.32E-12,  avg # of iterations =  2.3

     total cpu time spent up to now is       21.1 secs

     End of self-consistent calculation

          k = 0.1250 0.1250 0.1250 (  1096 PWs)   bands (ev):

   -44.7021 -21.3299 -21.3054 -21.3046  -6.3711  -5.3141  -5.2839  -4.0314
    -4.0282  -4.0156  -3.8482  -3.8446   4.5972   7.2552   7.2697   8.0256
     9.0429   9.0868   9.7861   9.8233   9.9581  10.1036

          k = 0.1250 0.1250 0.3750 (  1095 PWs)   bands (ev):

   -44.7009 -21.3868 -21.3032 -21.3022  -5.9498  -5.1619  -5.1565  -4.0913
    -4.0265  -4.0115  -3.9425  -3.8188   3.8585   6.7847   7.2497   7.8012
     8.4263   8.6574   9.3575   9.8786  10.0935  10.8318

          k = 0.1250 0.3750 0.3750 (  1093 PWs)   bands (ev):

   -44.6997 -21.3835 -21.3582 -21.3008  -5.7366  -5.0671  -4.9887  -4.0650
    -4.0212  -3.9676  -3.8782  -3.7223   3.5024   6.6967   6.8664   7.1495
     7.4601   8.6446   9.3778   9.4522   9.9903  10.6578

          k = 0.3750 0.3750 0.3750 (  1082 PWs)   bands (ev):

   -44.6984 -21.3808 -21.3556 -21.3554  -5.3575  -5.1931  -5.1710  -3.9783
    -3.9743  -3.6883  -3.6246  -3.6140   4.1218   5.8987   5.9236   6.6562
     7.0241   7.0416   7.9369  10.6064  10.6385  10.7061

          k = 0.3750-0.1250 0.1250 (  1095 PWs)   bands (ev):

   -44.7009 -21.3615 -21.3275 -21.3027  -5.9711  -5.1875  -5.1206  -4.0897
    -4.0242  -4.0125  -3.9462  -3.8159   3.8697   6.8166   7.3152   7.8042
     8.3973   8.7274   9.3012   9.8853  10.0239  10.7978

          k = 0.3750-0.3750 0.1250 (  1093 PWs)   bands (ev):

   -44.6997 -21.3587 -21.3578 -21.3255  -5.7768  -5.0450  -4.9732  -4.0615
    -4.0200  -3.9636  -3.8767  -3.7368   3.5126   6.7774   6.8234   7.1414
     7.4456   8.6283   9.4245   9.4470   9.9736  10.6975

     highest occupied level (ev):    10.8318

!    total energy              =    -333.18314749 Ry
     estimated scf accuracy    <          7.4E-10 Ry

     The total energy is the sum of the following terms:
     one-electron contribution =     -77.08837596 Ry
     hartree contribution      =      66.43012803 Ry
     xc contribution           =     -49.63850813 Ry
     ewald contribution        =    -272.88639142 Ry

     convergence has been achieved in   9 iterations

     Forces acting on atoms (cartesian axes, Ry/au):

     atom    1 type  2   force =     0.00000000    0.00000000    0.01136642
     atom    2 type  3   force =     0.00000000    0.00000000   -0.01599138
     atom    3 type  1   force =     0.00000000    0.00000000    0.00329298
     atom    4 type  1   force =     0.00000000    0.00000000    0.00329298
     atom    5 type  1   force =     0.00000000    0.00000000   -0.00196100
     The non-local contrib.  to forces
     atom    1 type  2   force =     0.00000000    0.00000000   -0.01104053
     atom    2 type  3   force =     0.00000000    0.00000000    0.01038252
     atom    3 type  1   force =     0.00000000    0.00000000    0.06522326
     atom    4 type  1   force =     0.00000000    0.00000000    0.06522326
     atom    5 type  1   force =     0.00000000    0.00000000   -0.16725350
     The ionic contribution  to forces
     atom    1 type  2   force =     0.00000000    0.00000000    0.69703382
     atom    2 type  3   force =    -0.00000000   -0.00000000   -1.14538425
     atom    3 type  1   force =     0.00000000   -0.00000000   -0.70937640
     atom    4 type  1   force =    -0.00000000    0.00000000   -0.70937640
     atom    5 type  1   force =    -0.00000000   -0.00000000    1.86710322
     The local contribution  to forces
     atom    1 type  2   force =     0.00000000   -0.00000000   -0.67463023
     atom    2 type  3   force =    -0.00000000   -0.00000000    1.11899878
     atom    3 type  1   force =     0.00000000   -0.00000000    0.64742951
     atom    4 type  1   force =    -0.00000000    0.00000000    0.64742951
     atom    5 type  1   force =    -0.00000000   -0.00000000   -1.70181329
     The core correction contribution to forces
     atom    1 type  2   force =     0.00000000    0.00000000    0.00000000
     atom    2 type  3   force =     0.00000000    0.00000000    0.00000000
     atom    3 type  1   force =     0.00000000    0.00000000    0.00000000
     atom    4 type  1   force =     0.00000000    0.00000000    0.00000000
     atom    5 type  1   force =     0.00000000    0.00000000    0.00000000
     The Hubbard contrib.    to forces
     atom    1 type  2   force =     0.00000000    0.00000000    0.00000000
     atom    2 type  3   force =     0.00000000    0.00000000    0.00000000
     atom    3 type  1   force =     0.00000000    0.00000000    0.00000000
     atom    4 type  1   force =     0.00000000    0.00000000    0.00000000
     atom    5 type  1   force =     0.00000000    0.00000000    0.00000000
     The SCF correction term to forces
     atom    1 type  2   force =    -0.00000000    0.00000000   -0.00000000
     atom    2 type  3   force =     0.00000000   -0.00000000    0.00000000
     atom    3 type  1   force =     0.00000000    0.00000000    0.00000514
     atom    4 type  1   force =     0.00000000   -0.00000000    0.00000514
     atom    5 type  1   force =    -0.00000000   -0.00000000   -0.00000890

     Total force =     0.005053     Total SCF correction =     0.000011


     Computing stress (Cartesian axis) and pressure

          total   stress  (Ry/bohr**3)                   (kbar)     P=      -19.54
  -0.00015211   0.00000000   0.00000000          -22.38        0.00        0.00
   0.00000000  -0.00015211   0.00000000            0.00      -22.38        0.00
   0.00000000   0.00000000  -0.00009437            0.00        0.00      -13.88

     Energy error            =      3.1E-05 Ry
     Gradient error          =      3.3E-03 Ry/Bohr

     number of scf cycles    =   5
     number of bfgs steps    =   4

     energy             old  =    -333.1831167895 Ry
     energy             new  =    -333.1831474859 Ry

     CASE: energy            _new < energy            _old

     new trust radius        =       0.0127182726 bohr
     new conv_thr            =       0.0000000010 Ry


ATOMIC_POSITIONS (angstrom)
Pb            0.0000000000        0.0000000000        0.0000000000    0   0   0
Ti            1.9400000000        1.9400000000        2.0421100000    0   0   0
O             0.0000000000        1.9400000000        1.9526000666
O             1.9400000000        0.0000000000        1.9526000666
O             1.9400000000        1.9400000000        0.0296555739



     Writing config-only to output data dir /home/gridsan/epan1/labutil/lab3_samples/problem2/Lab3/PbTiO3_a_3.88_ecut_30_nk_4_displ_0.02631578947368421/pwscf.save/
     NEW-OLD atomic charge density approx. for the potential

     total cpu time spent up to now is       22.3 secs

     Self-consistent Calculation

     iteration #  1     ecut=    30.00 Ry     beta= 0.70
     Davidson diagonalization with overlap
     ethr =  1.00E-06,  avg # of iterations =  5.2

     Threshold (ethr) on eigenvalues was too large:
     Diagonalizing with lowered threshold

     Davidson diagonalization with overlap
     ethr =  8.24E-08,  avg # of iterations =  2.3

     total cpu time spent up to now is       22.8 secs

     total energy              =    -333.18318471 Ry
     estimated scf accuracy    <       0.00003706 Ry

     iteration #  2     ecut=    30.00 Ry     beta= 0.70
     Davidson diagonalization with overlap
     ethr =  8.42E-08,  avg # of iterations =  3.7

     total cpu time spent up to now is       23.2 secs

     total energy              =    -333.18318719 Ry
     estimated scf accuracy    <       0.00000940 Ry

     iteration #  3     ecut=    30.00 Ry     beta= 0.70
     Davidson diagonalization with overlap
     ethr =  2.14E-08,  avg # of iterations =  5.2

     total cpu time spent up to now is       23.6 secs

     total energy              =    -333.18318925 Ry
     estimated scf accuracy    <       0.00000971 Ry

     iteration #  4     ecut=    30.00 Ry     beta= 0.70
     Davidson diagonalization with overlap
     ethr =  2.14E-08,  avg # of iterations =  3.3

     total cpu time spent up to now is       23.9 secs

     total energy              =    -333.18319077 Ry
     estimated scf accuracy    <       0.00000020 Ry

     iteration #  5     ecut=    30.00 Ry     beta= 0.70
     Davidson diagonalization with overlap
     ethr =  4.51E-10,  avg # of iterations =  6.8

     total cpu time spent up to now is       24.3 secs

     total energy              =    -333.18319102 Ry
     estimated scf accuracy    <       0.00000077 Ry

     iteration #  6     ecut=    30.00 Ry     beta= 0.70
     Davidson diagonalization with overlap
     ethr =  4.51E-10,  avg # of iterations =  4.5

     total cpu time spent up to now is       24.6 secs

     total energy              =    -333.18319104 Ry
     estimated scf accuracy    <       0.00000017 Ry

     iteration #  7     ecut=    30.00 Ry     beta= 0.70
     Davidson diagonalization with overlap
     ethr =  3.89E-10,  avg # of iterations =  2.8

     total cpu time spent up to now is       24.9 secs

     total energy              =    -333.18319103 Ry
     estimated scf accuracy    <       0.00000004 Ry

     iteration #  8     ecut=    30.00 Ry     beta= 0.70
     Davidson diagonalization with overlap
     ethr =  9.94E-11,  avg # of iterations =  5.0

     total cpu time spent up to now is       25.2 secs

     total energy              =    -333.18319106 Ry
     estimated scf accuracy    <       0.00000001 Ry

     iteration #  9     ecut=    30.00 Ry     beta= 0.70
     Davidson diagonalization with overlap
     ethr =  2.55E-11,  avg # of iterations =  1.7

     total cpu time spent up to now is       25.5 secs

     total energy              =    -333.18319105 Ry
     estimated scf accuracy    <          6.0E-09 Ry

     iteration # 10     ecut=    30.00 Ry     beta= 0.70
     Davidson diagonalization with overlap
     ethr =  1.37E-11,  avg # of iterations =  4.2

     total cpu time spent up to now is       25.8 secs

     End of self-consistent calculation

          k = 0.1250 0.1250 0.1250 (  1096 PWs)   bands (ev):

   -44.7083 -21.3320 -21.3119 -21.3111  -6.3716  -5.3125  -5.2872  -4.0302
    -4.0273  -4.0147  -3.8472  -3.8440   4.5983   7.2563   7.2684   8.0264
     9.0503   9.0891   9.8028   9.8270   9.9532  10.0988

          k = 0.1250 0.1250 0.3750 (  1095 PWs)   bands (ev):

   -44.7070 -21.3888 -21.3096 -21.3087  -5.9524  -5.1656  -5.1530  -4.0901
    -4.0253  -4.0106  -3.9418  -3.8176   3.8619   6.7858   7.2572   7.8006
     8.4225   8.6642   9.3553   9.8819  10.0894  10.8290

          k = 0.1250 0.3750 0.3750 (  1093 PWs)   bands (ev):

   -44.7058 -21.3855 -21.3646 -21.3072  -5.7392  -5.0649  -4.9894  -4.0639
    -4.0201  -3.9665  -3.8772  -3.7220   3.5040   6.7046   6.8585   7.1489
     7.4590   8.6418   9.3820   9.4502   9.9911  10.6610

          k = 0.3750 0.3750 0.3750 (  1082 PWs)   bands (ev):

   -44.7045 -21.3828 -21.3620 -21.3618  -5.3568  -5.1917  -5.1729  -3.9771
    -3.9735  -3.6870  -3.6233  -3.6138   4.1221   5.9015   5.9220   6.6574
     7.0195   7.0338   7.9380  10.6110  10.6391  10.7060

          k = 0.3750-0.1250 0.1250 (  1095 PWs)   bands (ev):

   -44.7070 -21.3679 -21.3296 -21.3091  -5.9705  -5.1873  -5.1229  -4.0888
    -4.0232  -4.0115  -3.9449  -3.8151   3.8707   6.8131   7.3138   7.8041
     8.3982   8.7241   9.3069   9.8876  10.0300  10.7994

          k = 0.3750-0.3750 0.1250 (  1093 PWs)   bands (ev):

   -44.7058 -21.3651 -21.3642 -21.3276  -5.7731  -5.0471  -4.9758  -4.0607
    -4.0190  -3.9627  -3.8758  -3.7348   3.5119   6.7754   6.8200   7.1429
     7.4469   8.6280   9.4227   9.4464   9.9758  10.6948

     highest occupied level (ev):    10.8290

!    total energy              =    -333.18319105 Ry
     estimated scf accuracy    <          4.7E-11 Ry

     The total energy is the sum of the following terms:
     one-electron contribution =     -77.07277615 Ry
     hartree contribution      =      66.42081564 Ry
     xc contribution           =     -49.63744088 Ry
     ewald contribution        =    -272.89378967 Ry

     convergence has been achieved in  10 iterations

     Forces acting on atoms (cartesian axes, Ry/au):

     atom    1 type  2   force =     0.00000000    0.00000000    0.01103472
     atom    2 type  3   force =     0.00000000    0.00000000   -0.01502381
     atom    3 type  1   force =     0.00000000    0.00000000    0.00368712
     atom    4 type  1   force =     0.00000000    0.00000000    0.00368712
     atom    5 type  1   force =     0.00000000    0.00000000   -0.00338515
     The non-local contrib.  to forces
     atom    1 type  2   force =     0.00000000    0.00000000   -0.01520984
     atom    2 type  3   force =     0.00000000    0.00000000    0.00998304
     atom    3 type  1   force =     0.00000000    0.00000000    0.06664800
     atom    4 type  1   force =     0.00000000    0.00000000    0.06664800
     atom    5 type  1   force =     0.00000000    0.00000000   -0.15672293
     The ionic contribution  to forces
     atom    1 type  2   force =     0.00000000    0.00000000    0.75218289
     atom    2 type  3   force =    -0.00000000   -0.00000000   -1.07012108
     atom    3 type  1   force =     0.00000000   -0.00000000   -0.70363599
     atom    4 type  1   force =    -0.00000000    0.00000000   -0.70363599
     atom    5 type  1   force =    -0.00000000   -0.00000000    1.72521017
     The local contribution  to forces
     atom    1 type  2   force =     0.00000000   -0.00000000   -0.72595307
     atom    2 type  3   force =    -0.00000000   -0.00000000    1.04510001
     atom    3 type  1   force =     0.00000000   -0.00000000    0.64065978
     atom    4 type  1   force =    -0.00000000    0.00000000    0.64065978
     atom    5 type  1   force =    -0.00000000   -0.00000000   -1.57188889
     The core correction contribution to forces
     atom    1 type  2   force =     0.00000000    0.00000000    0.00000000
     atom    2 type  3   force =     0.00000000    0.00000000    0.00000000
     atom    3 type  1   force =     0.00000000    0.00000000    0.00000000
     atom    4 type  1   force =     0.00000000    0.00000000    0.00000000
     atom    5 type  1   force =     0.00000000    0.00000000    0.00000000
     The Hubbard contrib.    to forces
     atom    1 type  2   force =     0.00000000    0.00000000    0.00000000
     atom    2 type  3   force =     0.00000000    0.00000000    0.00000000
     atom    3 type  1   force =     0.00000000    0.00000000    0.00000000
     atom    4 type  1   force =     0.00000000    0.00000000    0.00000000
     atom    5 type  1   force =     0.00000000    0.00000000    0.00000000
     The SCF correction term to forces
     atom    1 type  2   force =     0.00000000    0.00000000   -0.00000000
     atom    2 type  3   force =    -0.00000000    0.00000000   -0.00000000
     atom    3 type  1   force =     0.00000000   -0.00000000    0.00000031
     atom    4 type  1   force =    -0.00000000    0.00000000    0.00000031
     atom    5 type  1   force =     0.00000000    0.00000000    0.00000149

     Total force =     0.006217     Total SCF correction =     0.000002


     Computing stress (Cartesian axis) and pressure

          total   stress  (Ry/bohr**3)                   (kbar)     P=      -20.10
  -0.00015190   0.00000000   0.00000000          -22.34        0.00        0.00
   0.00000000  -0.00015190   0.00000000            0.00      -22.34        0.00
   0.00000000   0.00000000  -0.00010611            0.00        0.00      -15.61

     Energy error            =      4.4E-05 Ry
     Gradient error          =      3.7E-03 Ry/Bohr

     number of scf cycles    =   6
     number of bfgs steps    =   5

     energy             old  =    -333.1831474859 Ry
     energy             new  =    -333.1831910548 Ry

     CASE: energy            _new < energy            _old

     new trust radius        =       0.0190774089 bohr
     new conv_thr            =       0.0000000010 Ry


ATOMIC_POSITIONS (angstrom)
Pb            0.0000000000        0.0000000000        0.0000000000    0   0   0
Ti            1.9400000000        1.9400000000        2.0421100000    0   0   0
O             0.0000000000        1.9400000000        1.9626953966
O             1.9400000000        0.0000000000        1.9626953966
O             1.9400000000        1.9400000000        0.0394080996



     Writing config-only to output data dir /home/gridsan/epan1/labutil/lab3_samples/problem2/Lab3/PbTiO3_a_3.88_ecut_30_nk_4_displ_0.02631578947368421/pwscf.save/
     NEW-OLD atomic charge density approx. for the potential

     total cpu time spent up to now is       26.9 secs

     Self-consistent Calculation

     iteration #  1     ecut=    30.00 Ry     beta= 0.70
     Davidson diagonalization with overlap
     ethr =  1.00E-06,  avg # of iterations =  5.5

     total cpu time spent up to now is       27.3 secs

     total energy              =    -333.18324795 Ry
     estimated scf accuracy    <       0.00008989 Ry

     iteration #  2     ecut=    30.00 Ry     beta= 0.70
     Davidson diagonalization with overlap
     ethr =  2.04E-07,  avg # of iterations =  3.3

     total cpu time spent up to now is       27.6 secs

     total energy              =    -333.18325862 Ry
     estimated scf accuracy    <       0.00001351 Ry

     iteration #  3     ecut=    30.00 Ry     beta= 0.70
     Davidson diagonalization with overlap
     ethr =  3.07E-08,  avg # of iterations =  5.7

     total cpu time spent up to now is       28.0 secs

     total energy              =    -333.18326075 Ry
     estimated scf accuracy    <       0.00001541 Ry

     iteration #  4     ecut=    30.00 Ry     beta= 0.70
     Davidson diagonalization with overlap
     ethr =  3.07E-08,  avg # of iterations =  4.3

     total cpu time spent up to now is       28.3 secs

     total energy              =    -333.18326409 Ry
     estimated scf accuracy    <       0.00000052 Ry

     iteration #  5     ecut=    30.00 Ry     beta= 0.70
     Davidson diagonalization with overlap
     ethr =  1.18E-09,  avg # of iterations =  5.2

     total cpu time spent up to now is       28.6 secs

     total energy              =    -333.18326421 Ry
     estimated scf accuracy    <       0.00000061 Ry

     iteration #  6     ecut=    30.00 Ry     beta= 0.70
     Davidson diagonalization with overlap
     ethr =  1.18E-09,  avg # of iterations =  3.5

     total cpu time spent up to now is       28.9 secs

     total energy              =    -333.18326426 Ry
     estimated scf accuracy    <       0.00000006 Ry

     iteration #  7     ecut=    30.00 Ry     beta= 0.70
     Davidson diagonalization with overlap
     ethr =  1.40E-10,  avg # of iterations =  5.3

     total cpu time spent up to now is       29.3 secs

     total energy              =    -333.18326429 Ry
     estimated scf accuracy    <       0.00000004 Ry

     iteration #  8     ecut=    30.00 Ry     beta= 0.70
     Davidson diagonalization with overlap
     ethr =  8.86E-11,  avg # of iterations =  1.2

     total cpu time spent up to now is       29.6 secs

     total energy              =    -333.18326429 Ry
     estimated scf accuracy    <       0.00000002 Ry

     iteration #  9     ecut=    30.00 Ry     beta= 0.70
     Davidson diagonalization with overlap
     ethr =  4.58E-11,  avg # of iterations =  3.2

     total cpu time spent up to now is       29.8 secs

     End of self-consistent calculation

          k = 0.1250 0.1250 0.1250 (  1096 PWs)   bands (ev):

   -44.7162 -21.3346 -21.3202 -21.3194  -6.3724  -5.3105  -5.2924  -4.0285
    -4.0261  -4.0133  -3.8459  -3.8428   4.5998   7.2578   7.2666   8.0278
     9.0603   9.0916   9.8279   9.8326   9.9453  10.0897

          k = 0.1250 0.1250 0.3750 (  1095 PWs)   bands (ev):

   -44.7150 -21.3914 -21.3179 -21.3170  -5.9566  -5.1716  -5.1481  -4.0882
    -4.0235  -4.0094  -3.9406  -3.8160   3.8667   6.7876   7.2684   7.8001
     8.4159   8.6732   9.3513   9.8868  10.0829  10.8247

          k = 0.1250 0.3750 0.3750 (  1093 PWs)   bands (ev):

   -44.7138 -21.3881 -21.3730 -21.3155  -5.7434  -5.0623  -4.9903  -4.0622
    -4.0185  -3.9648  -3.8757  -3.7215   3.5061   6.7166   6.8458   7.1477
     7.4572   8.6374   9.3865   9.4475   9.9919  10.6654

          k = 0.3750 0.3750 0.3750 (  1082 PWs)   bands (ev):

   -44.7125 -21.3854 -21.3704 -21.3702  -5.3561  -5.1898  -5.1761  -3.9753
    -3.9724  -3.6853  -3.6214  -3.6135   4.1219   5.9051   5.9192   6.6594
     7.0121   7.0219   7.9398  10.6170  10.6388  10.7062

          k = 0.3750-0.1250 0.1250 (  1095 PWs)   bands (ev):

   -44.7150 -21.3763 -21.3323 -21.3175  -5.9697  -5.1875  -5.1264  -4.0875
    -4.0218  -4.0101  -3.9427  -3.8139   3.8718   6.8078   7.3113   7.8040
     8.3995   8.7187   9.3142   9.8905  10.0385  10.8015

          k = 0.3750-0.3750 0.1250 (  1093 PWs)   bands (ev):

   -44.7138 -21.3735 -21.3726 -21.3303  -5.7678  -5.0505  -4.9800  -4.0597
    -4.0174  -3.9613  -3.8742  -3.7321   3.5105   6.7723   6.8146   7.1439
     7.4477   8.6275   9.4194   9.4455   9.9792  10.6905

     highest occupied level (ev):    10.8247

!    total energy              =    -333.18326429 Ry
     estimated scf accuracy    <          1.5E-10 Ry

     The total energy is the sum of the following terms:
     one-electron contribution =     -77.06459525 Ry
     hartree contribution      =      66.41465477 Ry
     xc contribution           =     -49.63630290 Ry
     ewald contribution        =    -272.89702092 Ry

     convergence has been achieved in   9 iterations

     Forces acting on atoms (cartesian axes, Ry/au):

     atom    1 type  2   force =     0.00000000    0.00000000    0.01039773
     atom    2 type  3   force =     0.00000000    0.00000000   -0.01384269
     atom    3 type  1   force =     0.00000000    0.00000000    0.00403113
     atom    4 type  1   force =     0.00000000    0.00000000    0.00403113
     atom    5 type  1   force =     0.00000000    0.00000000   -0.00461730
     The non-local contrib.  to forces
     atom    1 type  2   force =     0.00000000    0.00000000   -0.02249459
     atom    2 type  3   force =     0.00000000    0.00000000    0.00940767
     atom    3 type  1   force =     0.00000000    0.00000000    0.06805516
     atom    4 type  1   force =     0.00000000    0.00000000    0.06805516
     atom    5 type  1   force =     0.00000000    0.00000000   -0.14028456
     The ionic contribution  to forces
     atom    1 type  2   force =     0.00000000    0.00000000    0.85561716
     atom    2 type  3   force =    -0.00000000   -0.00000000   -0.98712103
     atom    3 type  1   force =     0.00000000   -0.00000000   -0.69927502
     atom    4 type  1   force =    -0.00000000    0.00000000   -0.69927502
     atom    5 type  1   force =    -0.00000000   -0.00000000    1.53005391
     The local contribution  to forces
     atom    1 type  2   force =    -0.00000000    0.00000000   -0.82273866
     atom    2 type  3   force =    -0.00000000   -0.00000000    0.96386116
     atom    3 type  1   force =     0.00000000   -0.00000000    0.63523335
     atom    4 type  1   force =    -0.00000000    0.00000000    0.63523335
     atom    5 type  1   force =    -0.00000000   -0.00000000   -1.39440339
     The core correction contribution to forces
     atom    1 type  2   force =     0.00000000    0.00000000    0.00000000
     atom    2 type  3   force =     0.00000000    0.00000000    0.00000000
     atom    3 type  1   force =     0.00000000    0.00000000    0.00000000
     atom    4 type  1   force =     0.00000000    0.00000000    0.00000000
     atom    5 type  1   force =     0.00000000    0.00000000    0.00000000
     The Hubbard contrib.    to forces
     atom    1 type  2   force =     0.00000000    0.00000000    0.00000000
     atom    2 type  3   force =     0.00000000    0.00000000    0.00000000
     atom    3 type  1   force =     0.00000000    0.00000000    0.00000000
     atom    4 type  1   force =     0.00000000    0.00000000    0.00000000
     atom    5 type  1   force =     0.00000000    0.00000000    0.00000000
     The SCF correction term to forces
     atom    1 type  2   force =     0.00000000    0.00000000   -0.00000000
     atom    2 type  3   force =     0.00000000   -0.00000000   -0.00000000
     atom    3 type  1   force =    -0.00000000    0.00000000    0.00000087
     atom    4 type  1   force =     0.00000000    0.00000000    0.00000087
     atom    5 type  1   force =    -0.00000000   -0.00000000   -0.00000005

     Total force =     0.007336     Total SCF correction =     0.000001


     Computing stress (Cartesian axis) and pressure

          total   stress  (Ry/bohr**3)                   (kbar)     P=      -20.76
  -0.00015134   0.00000000   0.00000000          -22.26        0.00        0.00
   0.00000000  -0.00015134   0.00000000            0.00      -22.26        0.00
   0.00000000   0.00000000  -0.00012079            0.00        0.00      -17.77

     Energy error            =      7.3E-05 Ry
     Gradient error          =      4.6E-03 Ry/Bohr

     number of scf cycles    =   7
     number of bfgs steps    =   6

     energy             old  =    -333.1831910548 Ry
     energy             new  =    -333.1832642941 Ry

     CASE: energy            _new < energy            _old

     new trust radius        =       0.0286161134 bohr
     new conv_thr            =       0.0000000010 Ry


ATOMIC_POSITIONS (angstrom)
Pb            0.0000000000        0.0000000000        0.0000000000    0   0   0
Ti            1.9400000000        1.9400000000        2.0421100000    0   0   0
O             0.0000000000        1.9400000000        1.9778383917
O             1.9400000000        0.0000000000        1.9778383917
O             1.9400000000        1.9400000000        0.0527137490



     Writing config-only to output data dir /home/gridsan/epan1/labutil/lab3_samples/problem2/Lab3/PbTiO3_a_3.88_ecut_30_nk_4_displ_0.02631578947368421/pwscf.save/
     NEW-OLD atomic charge density approx. for the potential

     total cpu time spent up to now is       31.2 secs

     Self-consistent Calculation

     iteration #  1     ecut=    30.00 Ry     beta= 0.70
     Davidson diagonalization with overlap
     ethr =  1.00E-06,  avg # of iterations =  7.0

     total cpu time spent up to now is       31.6 secs

     total energy              =    -333.18334963 Ry
     estimated scf accuracy    <       0.00018493 Ry

     iteration #  2     ecut=    30.00 Ry     beta= 0.70
     Davidson diagonalization with overlap
     ethr =  4.20E-07,  avg # of iterations =  2.8

     total cpu time spent up to now is       31.9 secs

     total energy              =    -333.18336991 Ry
     estimated scf accuracy    <       0.00002052 Ry

     iteration #  3     ecut=    30.00 Ry     beta= 0.70
     Davidson diagonalization with overlap
     ethr =  4.66E-08,  avg # of iterations =  4.7

     total cpu time spent up to now is       32.2 secs

     total energy              =    -333.18337264 Ry
     estimated scf accuracy    <       0.00002102 Ry

     iteration #  4     ecut=    30.00 Ry     beta= 0.70
     Davidson diagonalization with overlap
     ethr =  4.66E-08,  avg # of iterations =  4.0

     total cpu time spent up to now is       32.6 secs

     total energy              =    -333.18337746 Ry
     estimated scf accuracy    <       0.00000102 Ry

     iteration #  5     ecut=    30.00 Ry     beta= 0.70
     Davidson diagonalization with overlap
     ethr =  2.32E-09,  avg # of iterations =  4.7

     total cpu time spent up to now is       32.9 secs

     total energy              =    -333.18337761 Ry
     estimated scf accuracy    <       0.00000092 Ry

     iteration #  6     ecut=    30.00 Ry     beta= 0.70
     Davidson diagonalization with overlap
     ethr =  2.10E-09,  avg # of iterations =  4.2

     total cpu time spent up to now is       33.2 secs

     total energy              =    -333.18337773 Ry
     estimated scf accuracy    <       0.00000005 Ry

     iteration #  7     ecut=    30.00 Ry     beta= 0.70
     Davidson diagonalization with overlap
     ethr =  1.09E-10,  avg # of iterations =  5.7

     total cpu time spent up to now is       33.6 secs

     total energy              =    -333.18337777 Ry
     estimated scf accuracy    <       0.00000004 Ry

     iteration #  8     ecut=    30.00 Ry     beta= 0.70
     Davidson diagonalization with overlap
     ethr =  9.15E-11,  avg # of iterations =  1.8

     total cpu time spent up to now is       33.9 secs

     total energy              =    -333.18337776 Ry
     estimated scf accuracy    <       0.00000002 Ry

     iteration #  9     ecut=    30.00 Ry     beta= 0.70
     Davidson diagonalization with overlap
     ethr =  3.56E-11,  avg # of iterations =  4.3

     total cpu time spent up to now is       34.2 secs

     total energy              =    -333.18337777 Ry
     estimated scf accuracy    <          3.1E-09 Ry

     iteration # 10     ecut=    30.00 Ry     beta= 0.70
     Davidson diagonalization with overlap
     ethr =  7.13E-12,  avg # of iterations =  1.7

     total cpu time spent up to now is       34.5 secs

     total energy              =    -333.18337777 Ry
     estimated scf accuracy    <          1.7E-09 Ry

     iteration # 11     ecut=    30.00 Ry     beta= 0.70
     Davidson diagonalization with overlap
     ethr =  3.84E-12,  avg # of iterations =  4.2

     total cpu time spent up to now is       34.8 secs

     End of self-consistent calculation

          k = 0.1250 0.1250 0.1250 (  1096 PWs)   bands (ev):

   -44.7254 -21.3379 -21.3299 -21.3292  -6.3741  -5.3080  -5.3001  -4.0260
    -4.0242  -4.0112  -3.8440  -3.8406   4.6016   7.2593   7.2646   8.0300
     9.0722   9.0937   9.8394   9.8610   9.9345  10.0755

          k = 0.1250 0.1250 0.3750 (  1095 PWs)   bands (ev):

   -44.7242 -21.3945 -21.3277 -21.3268  -5.9628  -5.1804  -5.1417  -4.0855
    -4.0209  -4.0074  -3.9383  -3.8138   3.8728   6.7902   7.2822   7.7991
     8.4070   8.6839   9.3453   9.8926  10.0737  10.8191

          k = 0.1250 0.3750 0.3750 (  1093 PWs)   bands (ev):

   -44.7230 -21.3912 -21.3828 -21.3253  -5.7494  -5.0604  -4.9912  -4.0596
    -4.0163  -3.9622  -3.8732  -3.7201   3.5090   6.7325   6.8282   7.1456
     7.4548   8.6312   9.3896   9.4449   9.9930  10.6706

          k = 0.3750 0.3750 0.3750 (  1082 PWs)   bands (ev):

   -44.7217 -21.3886 -21.3802 -21.3800  -5.3561  -5.1872  -5.1810  -3.9727
    -3.9705  -3.6829  -3.6185  -3.6124   4.1209   5.9094   5.9150   6.6617
     7.0026   7.0065   7.9434  10.6240  10.6364  10.7068

          k = 0.3750-0.1250 0.1250 (  1095 PWs)   bands (ev):

   -44.7242 -21.3861 -21.3355 -21.3272  -5.9693  -5.1885  -5.1317  -4.0855
    -4.0197  -4.0079  -3.9391  -3.8118   3.8732   6.8005   7.3074   7.8039
     8.4006   8.7114   9.3225   9.8934  10.0484  10.8043

          k = 0.3750-0.3750 0.1250 (  1093 PWs)   bands (ev):

   -44.7230 -21.3833 -21.3824 -21.3336  -5.7610  -5.0560  -4.9866  -4.0580
    -4.0147  -3.9585  -3.8713  -3.7284   3.5081   6.7679   6.8074   7.1444
     7.4484   8.6270   9.4147   9.4441   9.9840  10.6842

     highest occupied level (ev):    10.8191

!    total energy              =    -333.18337777 Ry
     estimated scf accuracy    <          9.0E-11 Ry

     The total energy is the sum of the following terms:
     one-electron contribution =     -77.07137866 Ry
     hartree contribution      =      66.41562279 Ry
     xc contribution           =     -49.63530372 Ry
     ewald contribution        =    -272.89231818 Ry

     convergence has been achieved in  11 iterations

     Forces acting on atoms (cartesian axes, Ry/au):

     atom    1 type  2   force =     0.00000000    0.00000000    0.00943387
     atom    2 type  3   force =     0.00000000    0.00000000   -0.01265391
     atom    3 type  1   force =     0.00000000    0.00000000    0.00433656
     atom    4 type  1   force =     0.00000000    0.00000000    0.00433656
[...]
     Davidson diagonalization with overlap
     ethr =  3.56E-07,  avg # of iterations =  3.2

     total cpu time spent up to now is       70.0 secs

     total energy              =    -333.18609375 Ry
     estimated scf accuracy    <       0.00002141 Ry

     iteration #  3     ecut=    30.00 Ry     beta= 0.70
     Davidson diagonalization with overlap
     ethr =  4.87E-08,  avg # of iterations =  3.7

     total cpu time spent up to now is       70.3 secs

     total energy              =    -333.18609885 Ry
     estimated scf accuracy    <       0.00000179 Ry

     iteration #  4     ecut=    30.00 Ry     beta= 0.70
     Davidson diagonalization with overlap
     ethr =  4.08E-09,  avg # of iterations =  5.2

     total cpu time spent up to now is       70.7 secs

     total energy              =    -333.18609934 Ry
     estimated scf accuracy    <       0.00000139 Ry

     iteration #  5     ecut=    30.00 Ry     beta= 0.70
     Davidson diagonalization with overlap
     ethr =  3.15E-09,  avg # of iterations =  4.0

     total cpu time spent up to now is       71.0 secs

     total energy              =    -333.18609965 Ry
     estimated scf accuracy    <       0.00000008 Ry

     iteration #  6     ecut=    30.00 Ry     beta= 0.70
     Davidson diagonalization with overlap
     ethr =  1.71E-10,  avg # of iterations =  4.2

     total cpu time spent up to now is       71.3 secs

     total energy              =    -333.18609966 Ry
     estimated scf accuracy    <       0.00000003 Ry

     iteration #  7     ecut=    30.00 Ry     beta= 0.70
     Davidson diagonalization with overlap
     ethr =  6.29E-11,  avg # of iterations =  4.5

     total cpu time spent up to now is       71.6 secs

     total energy              =    -333.18609967 Ry
     estimated scf accuracy    <          4.9E-09 Ry

     iteration #  8     ecut=    30.00 Ry     beta= 0.70
     Davidson diagonalization with overlap
     ethr =  1.12E-11,  avg # of iterations =  3.0

     total cpu time spent up to now is       71.9 secs

     End of self-consistent calculation

          k = 0.1250 0.1250 0.1250 (  1096 PWs)   bands (ev):

   -44.6937 -21.3529 -21.2984 -21.2977  -6.4695  -5.4197  -5.3121  -3.9513
    -3.9497  -3.9262  -3.7850  -3.6876   4.6222   7.1444   7.2517   8.0126
     8.9528   9.0020   9.5439   9.6999   9.8872  10.1775

          k = 0.1250 0.1250 0.3750 (  1095 PWs)   bands (ev):

   -44.6925 -21.4099 -21.2961 -21.2952  -6.0907  -5.3227  -5.1228  -3.9935
    -3.9359  -3.9245  -3.7797  -3.7502   3.8951   6.7843   7.0589   7.6624
     8.4900   8.5795   9.2776   9.7689   9.9670  10.8892

          k = 0.1250 0.3750 0.3750 (  1093 PWs)   bands (ev):

   -44.6912 -21.4065 -21.3507 -21.2938  -5.8591  -5.2028  -5.0277  -3.9761
    -3.9325  -3.8772  -3.7695  -3.5829   3.5598   6.5140   6.8983   7.0968
     7.3805   8.5801   9.3153   9.3545  10.0779  10.5892

          k = 0.3750 0.3750 0.3750 (  1082 PWs)   bands (ev):

   -44.6899 -21.4037 -21.3481 -21.3479  -5.4612  -5.3153  -5.2000  -3.8897
    -3.8850  -3.6339  -3.5235  -3.4932   4.0171   5.8513   5.8998   6.5605
     7.0703   7.0922   8.1713  10.5172  10.5263  10.6187

          k = 0.3750-0.1250 0.1250 (  1095 PWs)   bands (ev):

   -44.6925 -21.3547 -21.3499 -21.2957  -6.0558  -5.2972  -5.2384  -4.0053
    -3.9405  -3.9215  -3.7924  -3.6898   3.8823   6.7610   7.2524   7.7635
     8.2977   8.7352   9.2144   9.7753   9.8757  10.8458

          k = 0.3750-0.3750 0.1250 (  1093 PWs)   bands (ev):

   -44.6913 -21.3524 -21.3504 -21.3473  -5.7834  -5.2165  -5.1797  -3.9747
    -3.9118  -3.8078  -3.7050  -3.6569   3.4212   6.6971   6.7930   7.1344
     7.4992   8.6555   9.4009   9.4173  10.0521  10.5545

     highest occupied level (ev):    10.8892

!    total energy              =    -333.18609967 Ry
     estimated scf accuracy    <          6.4E-10 Ry

     The total energy is the sum of the following terms:
     one-electron contribution =     -78.60555875 Ry
     hartree contribution      =      67.19511754 Ry
     xc contribution           =     -49.67381634 Ry
     ewald contribution        =    -272.10184211 Ry

     convergence has been achieved in   8 iterations

     Forces acting on atoms (cartesian axes, Ry/au):

     atom    1 type  2   force =     0.00000000    0.00000000   -0.00087579
     atom    2 type  3   force =     0.00000000    0.00000000    0.00310593
     atom    3 type  1   force =     0.00000000    0.00000000    0.00092080
     atom    4 type  1   force =     0.00000000    0.00000000    0.00092080
     atom    5 type  1   force =     0.00000000    0.00000000   -0.00407174
     The non-local contrib.  to forces
     atom    1 type  2   force =     0.00000000    0.00000000   -0.20601241
     atom    2 type  3   force =     0.00000000    0.00000000   -0.00931087
     atom    3 type  1   force =     0.00000000    0.00000000    0.06354852
     atom    4 type  1   force =     0.00000000    0.00000000    0.06354852
     atom    5 type  1   force =     0.00000000    0.00000000    0.23035265
     The ionic contribution  to forces
     atom    1 type  2   force =     0.00000000    0.00000000    3.63435994
     atom    2 type  3   force =    -0.00000000   -0.00000000   -0.10665585
     atom    3 type  1   force =     0.00000000   -0.00000000   -0.70115868
     atom    4 type  1   force =    -0.00000000    0.00000000   -0.70115868
     atom    5 type  1   force =    -0.00000000   -0.00000000   -2.12538674
     The local contribution  to forces
     atom    1 type  2   force =    -0.00000000   -0.00000000   -3.42917015
     atom    2 type  3   force =    -0.00000000   -0.00000000    0.11901020
     atom    3 type  1   force =     0.00000000   -0.00000000    0.63851443
     atom    4 type  1   force =    -0.00000000    0.00000000    0.63851443
     atom    5 type  1   force =    -0.00000000   -0.00000000    1.89097693
     The core correction contribution to forces
     atom    1 type  2   force =     0.00000000    0.00000000    0.00000000
     atom    2 type  3   force =     0.00000000    0.00000000    0.00000000
     atom    3 type  1   force =     0.00000000    0.00000000    0.00000000
     atom    4 type  1   force =     0.00000000    0.00000000    0.00000000
     atom    5 type  1   force =     0.00000000    0.00000000    0.00000000
     The Hubbard contrib.    to forces
     atom    1 type  2   force =     0.00000000    0.00000000    0.00000000
     atom    2 type  3   force =     0.00000000    0.00000000    0.00000000
     atom    3 type  1   force =     0.00000000    0.00000000    0.00000000
     atom    4 type  1   force =     0.00000000    0.00000000    0.00000000
     atom    5 type  1   force =     0.00000000    0.00000000    0.00000000
     The SCF correction term to forces
     atom    1 type  2   force =    -0.00000000   -0.00000000   -0.00000000
     atom    2 type  3   force =     0.00000000    0.00000000    0.00000000
     atom    3 type  1   force =    -0.00000000   -0.00000000    0.00001088
     atom    4 type  1   force =    -0.00000000   -0.00000000    0.00001088
     atom    5 type  1   force =    -0.00000000   -0.00000000   -0.00002023

     Total force =     0.004275     Total SCF correction =     0.000025


     Computing stress (Cartesian axis) and pressure

          total   stress  (Ry/bohr**3)                   (kbar)     P=       -1.77
  -0.00008965   0.00000000   0.00000000          -13.19        0.00        0.00
   0.00000000  -0.00008965   0.00000000            0.00      -13.19        0.00
   0.00000000   0.00000000   0.00014317            0.00        0.00       21.06

     Energy error            =      1.7E-04 Ry
     Gradient error          =      4.1E-03 Ry/Bohr

     number of scf cycles    =  16
     number of bfgs steps    =  14

     energy             old  =    -333.1859277692 Ry
     energy             new  =    -333.1860996701 Ry

     CASE: energy            _new < energy            _old

     new trust radius        =       0.0124889833 bohr
     new conv_thr            =       0.0000000017 Ry


ATOMIC_POSITIONS (angstrom)
Pb            0.0000000000        0.0000000000        0.0000000000    0   0   0
Ti            1.9400000000        1.9400000000        2.0421100000    0   0   0
O             0.0000000000        1.9400000000        2.2205754469
O             1.9400000000        0.0000000000        2.2205754469
O             1.9400000000        1.9400000000        0.2304565987



     Writing config-only to output data dir /home/gridsan/epan1/labutil/lab3_samples/problem2/Lab3/PbTiO3_a_3.88_ecut_30_nk_4_displ_0.02631578947368421/pwscf.save/
     NEW-OLD atomic charge density approx. for the potential

     total cpu time spent up to now is       73.1 secs

     Self-consistent Calculation

     iteration #  1     ecut=    30.00 Ry     beta= 0.70
     Davidson diagonalization with overlap
     ethr =  1.00E-06,  avg # of iterations =  4.2

     Threshold (ethr) on eigenvalues was too large:
     Diagonalizing with lowered threshold

     Davidson diagonalization with overlap
     ethr =  6.18E-08,  avg # of iterations =  4.8

     total cpu time spent up to now is       73.7 secs

     total energy              =    -333.18611125 Ry
     estimated scf accuracy    <       0.00003515 Ry

     iteration #  2     ecut=    30.00 Ry     beta= 0.70
     Davidson diagonalization with overlap
     ethr =  7.99E-08,  avg # of iterations =  5.0

     total cpu time spent up to now is       74.0 secs

     total energy              =    -333.18611131 Ry
     estimated scf accuracy    <       0.00005003 Ry

     iteration #  3     ecut=    30.00 Ry     beta= 0.70
     Davidson diagonalization with overlap
     ethr =  7.99E-08,  avg # of iterations =  4.5

     total cpu time spent up to now is       74.4 secs

     total energy              =    -333.18612220 Ry
     estimated scf accuracy    <       0.00000383 Ry

     iteration #  4     ecut=    30.00 Ry     beta= 0.70
     Davidson diagonalization with overlap
     ethr =  8.70E-09,  avg # of iterations =  3.0

     total cpu time spent up to now is       74.7 secs

     total energy              =    -333.18612271 Ry
     estimated scf accuracy    <       0.00000045 Ry

     iteration #  5     ecut=    30.00 Ry     beta= 0.70
     Davidson diagonalization with overlap
     ethr =  1.02E-09,  avg # of iterations =  4.8

     total cpu time spent up to now is       75.0 secs

     total energy              =    -333.18612290 Ry
     estimated scf accuracy    <       0.00000006 Ry

     iteration #  6     ecut=    30.00 Ry     beta= 0.70
     Davidson diagonalization with overlap
     ethr =  1.45E-10,  avg # of iterations =  3.3

     total cpu time spent up to now is       75.3 secs

     total energy              =    -333.18612291 Ry
     estimated scf accuracy    <       0.00000002 Ry

     iteration #  7     ecut=    30.00 Ry     beta= 0.70
     Davidson diagonalization with overlap
     ethr =  5.58E-11,  avg # of iterations =  4.5

     total cpu time spent up to now is       75.6 secs

     End of self-consistent calculation

          k = 0.1250 0.1250 0.1250 (  1096 PWs)   bands (ev):

   -44.7034 -21.3556 -21.3082 -21.3074  -6.4700  -5.4204  -5.3095  -3.9504
    -3.9490  -3.9252  -3.7837  -3.6880   4.6238   7.1438   7.2515   8.0084
     8.9635   9.0059   9.5586   9.7032   9.8860  10.1822

          k = 0.1250 0.1250 0.3750 (  1095 PWs)   bands (ev):

   -44.7022 -21.4125 -21.3059 -21.3050  -6.0923  -5.3235  -5.1193  -3.9927
    -3.9352  -3.9235  -3.7802  -3.7486   3.8995   6.7846   7.0627   7.6592
     8.4925   8.5880   9.2803   9.7721   9.9656  10.8881

          k = 0.1250 0.3750 0.3750 (  1093 PWs)   bands (ev):

   -44.7010 -21.4091 -21.3604 -21.3036  -5.8603  -5.2029  -5.0239  -3.9752
    -3.9317  -3.8761  -3.7690  -3.5836   3.5611   6.5208   6.8973   7.0940
     7.3813   8.5785   9.3193   9.3597  10.0800  10.5931

          k = 0.3750 0.3750 0.3750 (  1082 PWs)   bands (ev):

   -44.6996 -21.4063 -21.3579 -21.3577  -5.4616  -5.3155  -5.1973  -3.8886
    -3.8845  -3.6315  -3.5230  -3.4938   4.0189   5.8529   5.9026   6.5604
     7.0688   7.0875   8.1707  10.5170  10.5337  10.6242

          k = 0.3750-0.1250 0.1250 (  1095 PWs)   bands (ev):

   -44.7022 -21.3641 -21.3529 -21.3055  -6.0557  -5.2966  -5.2363  -4.0047
    -3.9398  -3.9202  -3.7926  -3.6899   3.8828   6.7596   7.2543   7.7620
     8.3001   8.7354   9.2251   9.7788   9.8831  10.8479

          k = 0.3750-0.3750 0.1250 (  1093 PWs)   bands (ev):

   -44.7010 -21.3614 -21.3602 -21.3506  -5.7811  -5.2159  -5.1798  -3.9743
    -3.9110  -3.8078  -3.7056  -3.6549   3.4220   6.6961   6.7897   7.1385
     7.5026   8.6560   9.4046   9.4200  10.0532  10.5542

     highest occupied level (ev):    10.8881

!    total energy              =    -333.18612291 Ry
     estimated scf accuracy    <          5.1E-10 Ry

     The total energy is the sum of the following terms:
     one-electron contribution =     -78.54793539 Ry
     hartree contribution      =      67.16402713 Ry
     xc contribution           =     -49.67116499 Ry
     ewald contribution        =    -272.13104966 Ry

     convergence has been achieved in   7 iterations

     Forces acting on atoms (cartesian axes, Ry/au):

     atom    1 type  2   force =     0.00000000    0.00000000   -0.00085419
     atom    2 type  3   force =     0.00000000    0.00000000    0.00110030
     atom    3 type  1   force =     0.00000000    0.00000000   -0.00000539
     atom    4 type  1   force =     0.00000000    0.00000000   -0.00000539
     atom    5 type  1   force =     0.00000000    0.00000000   -0.00023532
     The non-local contrib.  to forces
     atom    1 type  2   force =     0.00000000    0.00000000   -0.20489742
     atom    2 type  3   force =     0.00000000    0.00000000   -0.00831600
     atom    3 type  1   force =     0.00000000    0.00000000    0.06059577
     atom    4 type  1   force =     0.00000000    0.00000000    0.06059577
     atom    5 type  1   force =     0.00000000    0.00000000    0.22286423
     The ionic contribution  to forces
     atom    1 type  2   force =     0.00000000    0.00000000    3.63863052
     atom    2 type  3   force =    -0.00000000   -0.00000000   -0.24746267
     atom    3 type  1   force =     0.00000000   -0.00000000   -0.71742437
     atom    4 type  1   force =     0.00000000    0.00000000   -0.71742437
     atom    5 type  1   force =     0.00000000    0.00000000   -1.95631912
     The local contribution  to forces
     atom    1 type  2   force =    -0.00000000    0.00000000   -3.43453820
     atom    2 type  3   force =    -0.00000000   -0.00000000    0.25678150
     atom    3 type  1   force =     0.00000000   -0.00000000    0.65680714
     atom    4 type  1   force =    -0.00000000    0.00000000    0.65680714
     atom    5 type  1   force =    -0.00000000   -0.00000000    1.73325482
     The core correction contribution to forces
     atom    1 type  2   force =     0.00000000    0.00000000    0.00000000
     atom    2 type  3   force =     0.00000000    0.00000000    0.00000000
     atom    3 type  1   force =     0.00000000    0.00000000    0.00000000
     atom    4 type  1   force =     0.00000000    0.00000000    0.00000000
     atom    5 type  1   force =     0.00000000    0.00000000    0.00000000
     The Hubbard contrib.    to forces
     atom    1 type  2   force =     0.00000000    0.00000000    0.00000000
     atom    2 type  3   force =     0.00000000    0.00000000    0.00000000
     atom    3 type  1   force =     0.00000000    0.00000000    0.00000000
     atom    4 type  1   force =     0.00000000    0.00000000    0.00000000
     atom    5 type  1   force =     0.00000000    0.00000000    0.00000000
     The SCF correction term to forces
     atom    1 type  2   force =    -0.00000000   -0.00000000   -0.00000000
     atom    2 type  3   force =     0.00000000   -0.00000000    0.00000000
     atom    3 type  1   force =     0.00000000    0.00000000    0.00001832
     atom    4 type  1   force =     0.00000000    0.00000000    0.00001832
     atom    5 type  1   force =    -0.00000000   -0.00000000   -0.00003299

     Total force =     0.000235     Total SCF correction =     0.000042
     SCF correction compared to forces is large: reduce conv_thr to get better values


     Computing stress (Cartesian axis) and pressure

          total   stress  (Ry/bohr**3)                   (kbar)     P=       -3.41
  -0.00009352   0.00000000   0.00000000          -13.76        0.00        0.00
   0.00000000  -0.00009352   0.00000000            0.00      -13.76        0.00
   0.00000000   0.00000000   0.00011747            0.00        0.00       17.28

     Energy error            =      2.3E-05 Ry
     Gradient error          =      2.4E-04 Ry/Bohr

     bfgs converged in  17 scf cycles and  15 bfgs steps
     (criteria: energy <  1.0E-04 Ry, force <  1.0E-03 Ry/Bohr)

     End of BFGS Geometry Optimization

     Final energy             =    -333.1861229106 Ry

     File /home/gridsan/epan1/labutil/lab3_samples/problem2/Lab3/PbTiO3_a_3.88_ecut_30_nk_4_displ_0.02631578947368421/pwscf.bfgs deleted, as requested
Begin final coordinates

ATOMIC_POSITIONS (angstrom)
Pb            0.0000000000        0.0000000000        0.0000000000    0   0   0
Ti            1.9400000000        1.9400000000        2.0421100000    0   0   0
O             0.0000000000        1.9400000000        2.2205754469
O             1.9400000000        0.0000000000        2.2205754469
O             1.9400000000        1.9400000000        0.2304565987
End final coordinates



     init_run     :      0.72s CPU      0.70s WALL (       1 calls)
     electrons    :     66.78s CPU     55.31s WALL (      17 calls)
     update_pot   :      0.66s CPU      0.62s WALL (      16 calls)
     forces       :      2.44s CPU      1.90s WALL (      17 calls)
     stress       :     17.91s CPU     15.19s WALL (      17 calls)

     Called by init_run:
     wfcinit      :      0.11s CPU      0.08s WALL (       1 calls)
     potinit      :      0.04s CPU      0.04s WALL (       1 calls)
     hinit0       :      0.46s CPU      0.46s WALL (       1 calls)

     Called by electrons:
     c_bands      :     38.05s CPU     30.03s WALL (     168 calls)
     sum_band     :     17.55s CPU     15.41s WALL (     168 calls)
     v_of_rho     :      0.60s CPU      0.56s WALL (     179 calls)
     newd         :     10.65s CPU      9.23s WALL (     179 calls)
     mix_rho      :      0.54s CPU      0.51s WALL (     168 calls)

     Called by c_bands:
     init_us_2    :      1.13s CPU      0.94s WALL (    2226 calls)
     init_us_2:cp :      1.13s CPU      0.93s WALL (    2226 calls)
     cegterg      :     35.10s CPU     27.27s WALL (    1008 calls)

     Called by *egterg:
     cdiaghg      :      6.08s CPU      4.64s WALL (    5115 calls)
     h_psi        :     23.41s CPU     18.46s WALL (    5253 calls)
     s_psi        :      1.02s CPU      0.77s WALL (    5253 calls)
     g_psi        :      0.24s CPU      0.18s WALL (    4239 calls)

     Called by h_psi:
     h_psi:calbec :      1.53s CPU      1.19s WALL (    5253 calls)
     vloc_psi     :     20.69s CPU     16.35s WALL (    5253 calls)
     add_vuspsi   :      1.05s CPU      0.81s WALL (    5253 calls)

     General routines
     calbec       :      2.04s CPU      1.62s WALL (    6771 calls)
     fft          :      1.07s CPU      0.92s WALL (    1147 calls)
     ffts         :      0.10s CPU      0.09s WALL (     347 calls)
     fftw         :     19.59s CPU     15.62s WALL (  155912 calls)
     interpolate  :      0.22s CPU      0.19s WALL (     179 calls)

     Parallel routines

     PWSCF        :   1m30.28s CPU   1m16.72s WALL


   This run was terminated on:  18: 7:20   2Nov2023            

=------------------------------------------------------------------------------=
   JOB DONE.
=------------------------------------------------------------------------------=
