LAMMPS (29 Oct 2020)
Reading data file ...
  orthogonal box = (0.0000000 0.0000000 0.0000000) to (16.360000 16.360000 28.630000)
  1 by 1 by 1 MPI processor grid
  reading atoms ...
  448 atoms
  read_data CPU = 0.001 seconds
Reading eam potential file /home/gridsan/epan1/3320_atomistic_shared/lammps/potentials/Ag_u3.eam with DATE: 2007-06-11
WARNING: No fixes defined, atoms won't move (../verlet.cpp:54)
Neighbor list info ...
  update every 1 steps, delay 10 steps, check yes
  max neighbors/atom: 2000, page size: 100000
  master list distance cutoff = 7.55
  ghost atom cutoff = 7.55
  binsize = 3.775, bins = 5 5 8
  1 neighbor lists, perpetual/occasional/extra = 1 0 0
  (1) pair eam, perpetual
      attributes: half, newton on
      pair build: half/bin/atomonly/newton
      stencil: half/bin/3d/newton
      bin: standard
Setting up Verlet run ...
  Unit style    : metal
  Current step  : 0
  Time step     : 0.001
Per MPI rank memory allocation (min/avg/max) = 3.373 | 3.373 | 3.373 Mbytes
Step PotEng Lx Ly Lz Press Pxx Pyy Pzz 
       0      -1276.8        16.36        16.36        28.63  -0.05212446 -0.051962354 -0.051962354 -0.052448671 
Loop time of 9.53674e-07 on 1 procs for 0 steps with 448 atoms

104.9% CPU use with 1 MPI tasks x no OpenMP threads

MPI task timing breakdown:
Section |  min time  |  avg time  |  max time  |%varavg| %total
---------------------------------------------------------------
Pair    | 0          | 0          | 0          |   0.0 |  0.00
Neigh   | 0          | 0          | 0          |   0.0 |  0.00
Comm    | 0          | 0          | 0          |   0.0 |  0.00
Output  | 0          | 0          | 0          |   0.0 |  0.00
Modify  | 0          | 0          | 0          |   0.0 |  0.00
Other   |            | 9.537e-07  |            |       |100.00

Nlocal:        448.000 ave         448 max         448 min
Histogram: 1 0 0 0 0 0 0 0 0 0
Nghost:        1914.00 ave        1914 max        1914 min
Histogram: 1 0 0 0 0 0 0 0 0 0
Neighs:        19264.0 ave       19264 max       19264 min
Histogram: 1 0 0 0 0 0 0 0 0 0

Total # of neighbors = 19264
Ave neighs/atom = 43.000000
Neighbor list builds = 0
Dangerous builds = 0
WARNING: Using 'neigh_modify every 1 delay 0 check yes' setting during minimization (../min.cpp:187)
Setting up cg style minimization ...
  Unit style    : metal
  Current step  : 0
WARNING: Energy due to 1 extra global DOFs will be included in minimizer energies
Per MPI rank memory allocation (min/avg/max) = 4.498 | 4.498 | 4.498 Mbytes
Step PotEng Lx Ly Lz Press Pxx Pyy Pzz 
       0      -1276.8        16.36        16.36        28.63  -0.05212446 -0.051962354 -0.051962354 -0.052448671 
       3      -1276.8    16.360004    16.360004    28.630006  -0.73387927   -0.7338264   -0.7338264  -0.73398501 
Loop time of 0.00388193 on 1 procs for 3 steps with 448 atoms

100.0% CPU use with 1 MPI tasks x no OpenMP threads

Minimization stats:
  Stopping criterion = energy tolerance
  Energy initial, next-to-last, final = 
     -1276.79999406179  -1276.79999923422  -1276.79999923734
  Force two-norm initial, final = 0.0096547326 0.011101619
  Force max component initial, final = 0.00085056728 0.010529886
  Final line search alpha, max atom move = 0.03821608 0.00040241095
  Iterations, force evaluations = 3 6

MPI task timing breakdown:
Section |  min time  |  avg time  |  max time  |%varavg| %total
---------------------------------------------------------------
Pair    | 0.0035985  | 0.0035985  | 0.0035985  |   0.0 | 92.70
Neigh   | 0          | 0          | 0          |   0.0 |  0.00
Comm    | 4.8161e-05 | 4.8161e-05 | 4.8161e-05 |   0.0 |  1.24
Output  | 0          | 0          | 0          |   0.0 |  0.00
Modify  | 0          | 0          | 0          |   0.0 |  0.00
Other   |            | 0.0002353  |            |       |  6.06

Nlocal:        448.000 ave         448 max         448 min
Histogram: 1 0 0 0 0 0 0 0 0 0
Nghost:        1914.00 ave        1914 max        1914 min
Histogram: 1 0 0 0 0 0 0 0 0 0
Neighs:        19264.0 ave       19264 max       19264 min
Histogram: 1 0 0 0 0 0 0 0 0 0

Total # of neighbors = 19264
Ave neighs/atom = 43.000000
Neighbor list builds = 0
Dangerous builds = 0
Total energy (eV) = -1276.79999923734
Number of atoms = 448
Lattice constant (Angstoms) = 16.3600035586811
Total wall time: 0:00:00
