
     Program PWSCF v.7.2 starts on  2Nov2023 at 17:43:29 

     This program is part of the open-source Quantum ESPRESSO suite
     for quantum simulation of materials; please cite
         "P. Giannozzi et al., J. Phys.:Condens. Matter 21 395502 (2009);
         "P. Giannozzi et al., J. Phys.:Condens. Matter 29 465901 (2017);
         "P. Giannozzi et al., J. Chem. Phys. 152 154105 (2020);
          URL http://www.quantum-espresso.org", 
     in publications or presentations arising from this work. More details at
     http://www.quantum-espresso.org/quote

     Parallel version (MPI), running on     2 processors

     MPI processes distributed on     2 nodes
     187198 MiB available memory on the printing compute node when the environment starts

     Waiting for input...
     Reading input from standard input
Warning: card &CELL ignored
Warning: card / ignored

     Current dimensions of program PWSCF are:
     Max number of different atomic species (ntypx) = 10
     Max number of k-points (npk) =  40000
     Max angular momentum in pseudopotentials (lmaxx) =  4
     file O.pz-rrkjus.UPF: wavefunction(s)  2S renormalized
     Message from routine setup:
     using ibrav=0 with symmetry is DISCOURAGED, use correct ibrav instead

     R & G space division:  proc/nbgrp/npool/nimage =       2
     Subspace diagonalization in iterative solution of the eigenvalue problem:
     a serial algorithm will be used


     Parallelization info
     --------------------
     sticks:   dense  smooth     PW     G-vecs:    dense   smooth      PW
     Min         542     272     80                13096     4657     774
     Max         543     273     81                13097     4658     777
     Sum        1085     545    161                26193     9315    1551

     Using Slab Decomposition



     bravais-lattice index     =            0
     lattice parameter (alat)  =       7.4833  a.u.
     unit-cell volume          =     419.0657 (a.u.)^3
     number of atoms/cell      =            5
     number of atomic types    =            3
     number of electrons       =        44.00
     number of Kohn-Sham states=           22
     kinetic-energy cutoff     =      30.0000  Ry
     charge density cutoff     =     240.0000  Ry
     scf convergence threshold =      1.0E-07
     mixing beta               =       0.7000
     number of iterations used =            8  plain     mixing
     Exchange-correlation= SLA  PZ   NOGX NOGC
                           (   1   1   0   0   0   0   0)

     celldm(1)=   7.483315  celldm(2)=   0.000000  celldm(3)=   0.000000
     celldm(4)=   0.000000  celldm(5)=   0.000000  celldm(6)=   0.000000

     crystal axes: (cart. coord. in units of alat)
               a(1) = (   1.000000   0.000000   0.000000 )  
               a(2) = (   0.000000   1.000000   0.000000 )  
               a(3) = (   0.000000   0.000000   1.000000 )  

     reciprocal axes: (cart. coord. in units 2 pi/alat)
               b(1) = (  1.000000  0.000000  0.000000 )  
               b(2) = (  0.000000  1.000000  0.000000 )  
               b(3) = (  0.000000  0.000000  1.000000 )  


     PseudoPot. # 1 for O  read from file:
     /home/gridsan/epan1/labutil/lab3_samples/pseudopotentials/O.pz-rrkjus.UPF
     MD5 check sum: 24fb942a68ef5d262e498166c462ef4a
     Pseudo is Ultrasoft, Zval =  6.0
     Generated by new atomic code, or converted to UPF format
     Using radial grid of 1269 points,  4 beta functions with: 
                l(1) =   0
                l(2) =   0
                l(3) =   1
                l(4) =   1
     Q(r) pseudized with 0 coefficients 


     PseudoPot. # 2 for Pb read from file:
     /home/gridsan/epan1/labutil/lab3_samples/pseudopotentials/Pb.pz-d-van.UPF
     MD5 check sum: 4e1e5920686a026ae26139ac417581ff
     Pseudo is Ultrasoft, Zval = 14.0
     Generated by new atomic code, or converted to UPF format
     Using radial grid of  899 points,  6 beta functions with: 
                l(1) =   0
                l(2) =   0
                l(3) =   1
                l(4) =   1
                l(5) =   2
                l(6) =   2
     Q(r) pseudized with  8 coefficients,  rinner =    1.000   1.000   1.000
                                                       1.000   1.000

     PseudoPot. # 3 for Ti read from file:
     /home/gridsan/epan1/labutil/lab3_samples/pseudopotentials/Ti.pz-sp-van_ak.UPF
     MD5 check sum: 545d0e6e05332b8871a8093f427cb0ca
     Pseudo is Ultrasoft, Zval = 12.0
     Generated by new atomic code, or converted to UPF format
     Using radial grid of  851 points,  6 beta functions with: 
                l(1) =   0
                l(2) =   0
                l(3) =   1
                l(4) =   1
                l(5) =   2
                l(6) =   2
     Q(r) pseudized with  8 coefficients,  rinner =    1.000   1.000   1.000
                                                       1.000   1.000

     atomic species   valence    mass     pseudopotential
        O              6.00    15.99900     O ( 1.00)
        Pb            14.00   207.20000     Pb( 1.00)
        Ti            12.00    47.86700     Ti( 1.00)

     48 Sym. Ops., with inversion, found



   Cartesian axes

     site n.     atom                  positions (alat units)
         1           Pb  tau(   1) = (   0.0000000   0.0000000   0.0000000  )
         2           Ti  tau(   2) = (   0.5000000   0.5000000   0.5000000  )
         3           O   tau(   3) = (   0.0000000   0.5000000   0.5000000  )
         4           O   tau(   4) = (   0.5000000   0.0000000   0.5000000  )
         5           O   tau(   5) = (   0.5000000   0.5000000   0.0000000  )

     number of k points=     4
                       cart. coord. in units 2pi/alat
        k(    1) = (   0.1250000   0.1250000   0.1250000), wk =   0.2500000
        k(    2) = (   0.1250000   0.1250000   0.3750000), wk =   0.7500000
        k(    3) = (   0.1250000   0.3750000   0.3750000), wk =   0.7500000
        k(    4) = (   0.3750000   0.3750000   0.3750000), wk =   0.2500000

     Dense  grid:    26193 G-vectors     FFT dimensions: (  40,  40,  40)

     Smooth grid:     9315 G-vectors     FFT dimensions: (  27,  27,  27)

     Estimated max dynamical RAM per process >      53.79 MB

     Estimated total dynamical RAM >     107.57 MB

     Initial potential from superposition of free atoms

     starting charge      42.9982, renormalised to      44.0000
     Starting wfcs are   31 randomized atomic wfcs

     total cpu time spent up to now is        1.1 secs

     Self-consistent Calculation

     iteration #  1     ecut=    30.00 Ry     beta= 0.70
     Davidson diagonalization with overlap
     ethr =  1.00E-02,  avg # of iterations =  2.0

     total cpu time spent up to now is        1.4 secs

     total energy              =    -332.57904581 Ry
     estimated scf accuracy    <       1.12955352 Ry

     iteration #  2     ecut=    30.00 Ry     beta= 0.70
     Davidson diagonalization with overlap
     ethr =  2.57E-03,  avg # of iterations =  7.8

     total cpu time spent up to now is        1.8 secs

     total energy              =    -331.90183981 Ry
     estimated scf accuracy    <       7.36637271 Ry

     iteration #  3     ecut=    30.00 Ry     beta= 0.70
     Davidson diagonalization with overlap
     ethr =  2.57E-03,  avg # of iterations =  6.8

     total cpu time spent up to now is        2.2 secs

     total energy              =    -333.14626029 Ry
     estimated scf accuracy    <       0.34331931 Ry

     iteration #  4     ecut=    30.00 Ry     beta= 0.70
     Davidson diagonalization with overlap
     ethr =  7.80E-04,  avg # of iterations =  2.5

     total cpu time spent up to now is        2.5 secs

     total energy              =    -333.13603132 Ry
     estimated scf accuracy    <       0.11607056 Ry

     iteration #  5     ecut=    30.00 Ry     beta= 0.70
     Davidson diagonalization with overlap
     ethr =  2.64E-04,  avg # of iterations =  4.8

     total cpu time spent up to now is        2.9 secs

     total energy              =    -333.17399310 Ry
     estimated scf accuracy    <       0.00737356 Ry

     iteration #  6     ecut=    30.00 Ry     beta= 0.70
     Davidson diagonalization with overlap
     ethr =  1.68E-05,  avg # of iterations =  3.5

     total cpu time spent up to now is        3.2 secs

     total energy              =    -333.17348417 Ry
     estimated scf accuracy    <       0.00458855 Ry

     iteration #  7     ecut=    30.00 Ry     beta= 0.70
     Davidson diagonalization with overlap
     ethr =  1.04E-05,  avg # of iterations =  4.5

     total cpu time spent up to now is        3.5 secs

     total energy              =    -333.17426113 Ry
     estimated scf accuracy    <       0.00005434 Ry

     iteration #  8     ecut=    30.00 Ry     beta= 0.70
     Davidson diagonalization with overlap
     ethr =  1.24E-07,  avg # of iterations =  6.0

     total cpu time spent up to now is        3.9 secs

     total energy              =    -333.17434136 Ry
     estimated scf accuracy    <       0.00000522 Ry

     iteration #  9     ecut=    30.00 Ry     beta= 0.70
     Davidson diagonalization with overlap
     ethr =  1.19E-08,  avg # of iterations =  4.8

     total cpu time spent up to now is        4.3 secs

     total energy              =    -333.17433960 Ry
     estimated scf accuracy    <       0.00001926 Ry

     iteration # 10     ecut=    30.00 Ry     beta= 0.70
     Davidson diagonalization with overlap
     ethr =  1.19E-08,  avg # of iterations =  4.5

     total cpu time spent up to now is        4.6 secs

     total energy              =    -333.17433802 Ry
     estimated scf accuracy    <       0.00000519 Ry

     iteration # 11     ecut=    30.00 Ry     beta= 0.70
     Davidson diagonalization with overlap
     ethr =  1.18E-08,  avg # of iterations =  5.0

     total cpu time spent up to now is        5.0 secs

     total energy              =    -333.17434014 Ry
     estimated scf accuracy    <       0.00000159 Ry

     iteration # 12     ecut=    30.00 Ry     beta= 0.70
     Davidson diagonalization with overlap
     ethr =  3.60E-09,  avg # of iterations =  1.0

     total cpu time spent up to now is        5.3 secs

     total energy              =    -333.17433977 Ry
     estimated scf accuracy    <       0.00000147 Ry

     iteration # 13     ecut=    30.00 Ry     beta= 0.70
     Davidson diagonalization with overlap
     ethr =  3.34E-09,  avg # of iterations =  2.5

     total cpu time spent up to now is        5.6 secs

     total energy              =    -333.17433964 Ry
     estimated scf accuracy    <       0.00000046 Ry

     iteration # 14     ecut=    30.00 Ry     beta= 0.70
     Davidson diagonalization with overlap
     ethr =  1.05E-09,  avg # of iterations =  4.5

     total cpu time spent up to now is        5.9 secs

     total energy              =    -333.17433988 Ry
     estimated scf accuracy    <       0.00000036 Ry

     iteration # 15     ecut=    30.00 Ry     beta= 0.70
     Davidson diagonalization with overlap
     ethr =  8.16E-10,  avg # of iterations =  1.0

     total cpu time spent up to now is        6.2 secs

     total energy              =    -333.17433990 Ry
     estimated scf accuracy    <       0.00000019 Ry

     iteration # 16     ecut=    30.00 Ry     beta= 0.70
     Davidson diagonalization with overlap
     ethr =  4.38E-10,  avg # of iterations =  1.0

     total cpu time spent up to now is        6.5 secs

     total energy              =    -333.17433987 Ry
     estimated scf accuracy    <       0.00000022 Ry

     iteration # 17     ecut=    30.00 Ry     beta= 0.70
     Davidson diagonalization with overlap
     ethr =  4.38E-10,  avg # of iterations =  3.0

     total cpu time spent up to now is        6.8 secs

     End of self-consistent calculation

          k = 0.1250 0.1250 0.1250 (  1180 PWs)   bands (ev):

   -45.9473 -22.5005 -22.5005 -22.5000  -7.0510  -6.1007  -6.1007  -5.1222
    -5.1222  -5.1110  -4.9423  -4.9423   3.6350   6.4925   6.4925   7.0693
     8.2624   8.2624   9.0044   9.0061   9.0061   9.0795

          k = 0.1250 0.1250 0.3750 (  1163 PWs)   bands (ev):

   -45.9463 -22.5413 -22.4981 -22.4981  -6.6924  -5.9889  -5.9749  -5.1700
    -5.1176  -5.1035  -5.0334  -4.9251   3.0152   6.0087   6.5928   6.9765
     7.5245   7.8884   8.4205   9.0426   9.1546   9.7114

          k = 0.1250 0.3750 0.3750 (  1164 PWs)   bands (ev):

   -45.9455 -22.5395 -22.5394 -22.4966  -6.5125  -5.9086  -5.8521  -5.1488
    -5.1123  -5.0564  -4.9807  -4.8373   2.7360   5.9444   6.0665   6.4368
     6.7275   7.6949   8.4789   8.5918   8.9542   9.7560

          k = 0.3750 0.3750 0.3750 (  1148 PWs)   bands (ev):

   -45.9444 -22.5376 -22.5371 -22.5371  -6.1907  -6.0438  -6.0438  -5.0807
    -5.0807  -4.8002  -4.7360  -4.7360   3.3224   5.3143   5.3143   5.8100
     6.2268   6.2268   6.9758   9.7099   9.7099   9.7913

     highest occupied level (ev):     9.7913

!    total energy              =    -333.17433979 Ry
     estimated scf accuracy    <       0.00000009 Ry

     The total energy is the sum of the following terms:
     one-electron contribution =     -84.98516022 Ry
     hartree contribution      =      68.66934513 Ry
     xc contribution           =     -49.40781681 Ry
     ewald contribution        =    -267.45070788 Ry

     convergence has been achieved in  17 iterations

     Forces acting on atoms (cartesian axes, Ry/au):

     atom    1 type  2   force =     0.00000000    0.00000000    0.00000000
     atom    2 type  3   force =     0.00000000    0.00000000    0.00000000
     atom    3 type  1   force =     0.00000000    0.00000000    0.00000000
     atom    4 type  1   force =     0.00000000    0.00000000    0.00000000
     atom    5 type  1   force =     0.00000000    0.00000000    0.00000000
     The non-local contrib.  to forces
     atom    1 type  2   force =     0.00000000    0.00000000    0.00000000
     atom    2 type  3   force =     0.00000000    0.00000000    0.00000000
     atom    3 type  1   force =     0.00000000    0.00000000    0.00000000
     atom    4 type  1   force =     0.00000000    0.00000000    0.00000000
     atom    5 type  1   force =     0.00000000    0.00000000    0.00000000
     The ionic contribution  to forces
     atom    1 type  2   force =    -0.00000000   -0.00000000   -0.00000000
     atom    2 type  3   force =     0.00000000    0.00000000    0.00000000
     atom    3 type  1   force =    -0.00000000    0.00000000    0.00000000
     atom    4 type  1   force =     0.00000000   -0.00000000    0.00000000
     atom    5 type  1   force =     0.00000000    0.00000000   -0.00000000
     The local contribution  to forces
     atom    1 type  2   force =     0.00000000   -0.00000000   -0.00000000
     atom    2 type  3   force =     0.00000000    0.00000000    0.00000000
     atom    3 type  1   force =     0.00000000    0.00000000    0.00000000
     atom    4 type  1   force =     0.00000000    0.00000000    0.00000000
     atom    5 type  1   force =     0.00000000    0.00000000   -0.00000000
     The core correction contribution to forces
     atom    1 type  2   force =     0.00000000    0.00000000    0.00000000
     atom    2 type  3   force =     0.00000000    0.00000000    0.00000000
     atom    3 type  1   force =     0.00000000    0.00000000    0.00000000
     atom    4 type  1   force =     0.00000000    0.00000000    0.00000000
     atom    5 type  1   force =     0.00000000    0.00000000    0.00000000
     The Hubbard contrib.    to forces
     atom    1 type  2   force =     0.00000000    0.00000000    0.00000000
     atom    2 type  3   force =     0.00000000    0.00000000    0.00000000
     atom    3 type  1   force =     0.00000000    0.00000000    0.00000000
     atom    4 type  1   force =     0.00000000    0.00000000    0.00000000
     atom    5 type  1   force =     0.00000000    0.00000000    0.00000000
     The SCF correction term to forces
     atom    1 type  2   force =     0.00000000   -0.00000000   -0.00000000
     atom    2 type  3   force =    -0.00000000    0.00000000    0.00000000
     atom    3 type  1   force =     0.00000000    0.00000000   -0.00000000
     atom    4 type  1   force =    -0.00000000   -0.00000000    0.00000000
     atom    5 type  1   force =     0.00000000    0.00000000   -0.00000000

     Total force =     0.000000     Total SCF correction =     0.000000


     Computing stress (Cartesian axis) and pressure

          total   stress  (Ry/bohr**3)                   (kbar)     P=     -132.39
  -0.00089994   0.00000000   0.00000000         -132.39        0.00        0.00
   0.00000000  -0.00089994   0.00000000            0.00     -132.39        0.00
   0.00000000   0.00000000  -0.00089994            0.00        0.00     -132.39


     init_run     :      0.76s CPU      0.73s WALL (       1 calls)
     electrons    :      7.13s CPU      5.75s WALL (       1 calls)
     forces       :      0.14s CPU      0.11s WALL (       1 calls)
     stress       :      0.97s CPU      0.86s WALL (       1 calls)

     Called by init_run:
     wfcinit      :      0.10s CPU      0.08s WALL (       1 calls)
     potinit      :      0.06s CPU      0.06s WALL (       1 calls)
     hinit0       :      0.45s CPU      0.46s WALL (       1 calls)

     Called by electrons:
     c_bands      :      3.83s CPU      2.98s WALL (      17 calls)
     sum_band     :      1.98s CPU      1.70s WALL (      17 calls)
     v_of_rho     :      0.07s CPU      0.05s WALL (      18 calls)
     newd         :      1.23s CPU      1.01s WALL (      18 calls)
     mix_rho      :      0.04s CPU      0.04s WALL (      17 calls)

     Called by c_bands:
     init_us_2    :      0.09s CPU      0.07s WALL (     148 calls)
     init_us_2:cp :      0.09s CPU      0.07s WALL (     148 calls)
     cegterg      :      3.63s CPU      2.80s WALL (      68 calls)

     Called by *egterg:
     cdiaghg      :      0.38s CPU      0.28s WALL (     328 calls)
     h_psi        :      2.97s CPU      2.33s WALL (     332 calls)
     s_psi        :      0.07s CPU      0.05s WALL (     332 calls)
     g_psi        :      0.02s CPU      0.01s WALL (     260 calls)

     Called by h_psi:
     h_psi:calbec :      0.09s CPU      0.07s WALL (     332 calls)
     vloc_psi     :      2.79s CPU      2.19s WALL (     332 calls)
     add_vuspsi   :      0.07s CPU      0.05s WALL (     332 calls)

     General routines
     calbec       :      0.13s CPU      0.10s WALL (     420 calls)
     fft          :      0.26s CPU      0.24s WALL (     111 calls)
     ffts         :      0.06s CPU      0.06s WALL (      35 calls)
     fftw         :      2.96s CPU      2.32s WALL (    9882 calls)
     interpolate  :      0.07s CPU      0.07s WALL (      18 calls)

     Parallel routines

     PWSCF        :      9.31s CPU      7.80s WALL


   This run was terminated on:  17:43:37   2Nov2023            

=------------------------------------------------------------------------------=
   JOB DONE.
=------------------------------------------------------------------------------=
