
     Program PWSCF v.7.2 starts on 16Oct2023 at 10:31:11 

     This program is part of the open-source Quantum ESPRESSO suite
     for quantum simulation of materials; please cite
         "P. Giannozzi et al., J. Phys.:Condens. Matter 21 395502 (2009);
         "P. Giannozzi et al., J. Phys.:Condens. Matter 29 465901 (2017);
         "P. Giannozzi et al., J. Chem. Phys. 152 154105 (2020);
          URL http://www.quantum-espresso.org", 
     in publications or presentations arising from this work. More details at
     http://www.quantum-espresso.org/quote

     Parallel version (MPI), running on     1 processors

     MPI processes distributed on     1 nodes
     33671 MiB available memory on the printing compute node when the environment starts

     Waiting for input...
     Reading input from standard input
Warning: card &CELL ignored
Warning: card / ignored

     Current dimensions of program PWSCF are:
     Max number of different atomic species (ntypx) = 10
     Max number of k-points (npk) =  40000
     Max angular momentum in pseudopotentials (lmaxx) =  4
     file Ge.pz-dn-rrkjus_psl.0.2.2.UPF: wavefunction(s)  3D renormalized
     Message from routine setup:
     using ibrav=0 with symmetry is DISCOURAGED, use correct ibrav instead

     Subspace diagonalization in iterative solution of the eigenvalue problem:
     a serial algorithm will be used


     G-vector sticks info
     --------------------
     sticks:   dense  smooth     PW     G-vecs:    dense   smooth      PW
     Sum         535     535    163                 8099     8099    1459

     Using Slab Decomposition



     bravais-lattice index     =            0
     lattice parameter (alat)  =       7.4600  a.u.
     unit-cell volume          =     293.5600 (a.u.)^3
     number of atoms/cell      =            2
     number of atomic types    =            1
     number of electrons       =        28.00
     number of Kohn-Sham states=           14
     kinetic-energy cutoff     =      35.0000  Ry
     charge density cutoff     =     140.0000  Ry
     scf convergence threshold =      1.0E-07
     mixing beta               =       0.5000
     number of iterations used =            8  plain     mixing
     Exchange-correlation= LDA
                           (   1   1   0   0   0   0   0)

     celldm(1)=   7.459974  celldm(2)=   0.000000  celldm(3)=   0.000000
     celldm(4)=   0.000000  celldm(5)=   0.000000  celldm(6)=   0.000000

     crystal axes: (cart. coord. in units of alat)
               a(1) = (   0.000000   0.707107   0.707107 )  
               a(2) = (   0.707107   0.000000   0.707107 )  
               a(3) = (   0.707107   0.707107   0.000000 )  

     reciprocal axes: (cart. coord. in units 2 pi/alat)
               b(1) = ( -0.707107  0.707107  0.707107 )  
               b(2) = (  0.707107 -0.707107  0.707107 )  
               b(3) = (  0.707107  0.707107 -0.707107 )  


     PseudoPot. # 1 for Ge read from file:
     ../Ge.pz-dn-rrkjus_psl.0.2.2.UPF
     MD5 check sum: 9948ad5293734715c8cf6021b6c26e6d
     Pseudo is Ultrasoft + core correction, Zval = 14.0
     Generated using "atomic" code by A. Dal Corso  v.5.0.2 svn rev. 9415
     Using radial grid of 1207 points,  6 beta functions with: 
                l(1) =   0
                l(2) =   0
                l(3) =   1
                l(4) =   1
                l(5) =   2
                l(6) =   2
     Q(r) pseudized with 0 coefficients 


     atomic species   valence    mass     pseudopotential
        Ge            14.00    72.63000     Ge( 1.00)

     24 Sym. Ops. (no inversion) found



   Cartesian axes

     site n.     atom                  positions (alat units)
         1           Ge  tau(   1) = (   0.0000000   0.0000000   0.0000000  )
         2           Ge  tau(   2) = (   0.3535523   0.3535523   0.3535523  )

     number of k points=    10
                       cart. coord. in units 2pi/alat
        k(    1) = (   0.0000000   0.0000000   0.0000000), wk =   0.0160000
        k(    2) = (   0.1414214   0.1414214  -0.1414214), wk =   0.1280000
        k(    3) = (   0.2828427   0.2828427  -0.2828427), wk =   0.1280000
        k(    4) = (   0.2828427   0.0000000   0.0000000), wk =   0.0960000
        k(    5) = (   0.4242641   0.1414214  -0.1414214), wk =   0.3840000
        k(    6) = (  -0.1414214  -0.4242641   0.4242641), wk =   0.3840000
        k(    7) = (   0.0000000  -0.2828427   0.2828427), wk =   0.1920000
        k(    8) = (   0.5656854   0.0000000   0.0000000), wk =   0.0960000
        k(    9) = (   0.0000000  -0.5656854   0.5656854), wk =   0.1920000
        k(   10) = (  -0.1414214  -0.4242641   0.7071068), wk =   0.3840000

     Dense  grid:     8099 G-vectors     FFT dimensions: (  30,  30,  30)

     Estimated max dynamical RAM per process >      33.99 MB

     Check: negative core charge=   -0.000154

     Initial potential from superposition of free atoms

     starting charge      27.9988, renormalised to      28.0000
     Starting wfcs are   18 randomized atomic wfcs

     total cpu time spent up to now is        0.9 secs

     Self-consistent Calculation

     iteration #  1     ecut=    35.00 Ry     beta= 0.50
     Davidson diagonalization with overlap
     ethr =  1.00E-02,  avg # of iterations =  2.0

     Threshold (ethr) on eigenvalues was too large:
     Diagonalizing with lowered threshold

     Davidson diagonalization with overlap
     ethr =  1.29E-04,  avg # of iterations =  2.0

     total cpu time spent up to now is        2.2 secs

     total energy              =    -421.78491867 Ry
     estimated scf accuracy    <       0.03891863 Ry

     iteration #  2     ecut=    35.00 Ry     beta= 0.50
     Davidson diagonalization with overlap
     ethr =  1.39E-04,  avg # of iterations =  1.1

     total cpu time spent up to now is        2.7 secs

     total energy              =    -421.78336694 Ry
     estimated scf accuracy    <       0.00705054 Ry

     iteration #  3     ecut=    35.00 Ry     beta= 0.50
     Davidson diagonalization with overlap
     ethr =  2.52E-05,  avg # of iterations =  2.0

     total cpu time spent up to now is        3.4 secs

     total energy              =    -421.78393476 Ry
     estimated scf accuracy    <       0.00008455 Ry

     iteration #  4     ecut=    35.00 Ry     beta= 0.50
     Davidson diagonalization with overlap
     ethr =  3.02E-07,  avg # of iterations =  4.3

     total cpu time spent up to now is        4.2 secs

     total energy              =    -421.78396245 Ry
     estimated scf accuracy    <       0.00000991 Ry

     iteration #  5     ecut=    35.00 Ry     beta= 0.50
     Davidson diagonalization with overlap
     ethr =  3.54E-08,  avg # of iterations =  3.3

     total cpu time spent up to now is        5.0 secs

     total energy              =    -421.78396393 Ry
     estimated scf accuracy    <       0.00000037 Ry

     iteration #  6     ecut=    35.00 Ry     beta= 0.50
     Davidson diagonalization with overlap
     ethr =  1.34E-09,  avg # of iterations =  4.2

     total cpu time spent up to now is        5.8 secs

     total energy              =    -421.78396411 Ry
     estimated scf accuracy    <       0.00000012 Ry

     iteration #  7     ecut=    35.00 Ry     beta= 0.50
     Davidson diagonalization with overlap
     ethr =  4.24E-10,  avg # of iterations =  2.2

     total cpu time spent up to now is        6.5 secs

     End of self-consistent calculation

          k = 0.0000 0.0000 0.0000 (   965 PWs)   bands (ev):

   -16.2307 -16.2307 -16.2307 -16.1908 -16.1908 -15.9572 -15.9572 -15.9572
   -15.9405 -15.9405  -4.3991   8.7339   8.7342   8.7342

          k = 0.1414 0.1414-0.1414 (  1001 PWs)   bands (ev):

   -16.2473 -16.2473 -16.2247 -16.1667 -16.1667 -15.9797 -15.9797 -15.9658
   -15.9230 -15.9230  -3.8997   4.8486   8.0271   8.0274

          k = 0.2828 0.2828-0.2828 (  1023 PWs)   bands (ev):

   -16.2575 -16.2575 -16.2136 -16.1466 -16.1466 -15.9936 -15.9936 -15.9787
   -15.9130 -15.9130  -2.6121   1.5471   7.3566   7.3568

          k = 0.2828 0.0000 0.0000 (  1010 PWs)   bands (ev):

   -16.2454 -16.2454 -16.2417 -16.1665 -16.1357 -16.0300 -15.9634 -15.9357
   -15.9357 -15.9233  -3.7260   4.9021   7.0428   7.0429

          k = 0.4243 0.1414-0.1414 (  1032 PWs)   bands (ev):

   -16.2720 -16.2584 -16.2096 -16.1376 -16.1063 -16.0587 -15.9942 -15.9650
   -15.9139 -15.8984  -2.6302   2.2889   5.6917   6.4539

          k =-0.1414-0.4243 0.4243 (  1032 PWs)   bands (ev):

   -16.2808 -16.2666 -16.1819 -16.1243 -16.1144 -16.0321 -16.0235 -15.9957
   -15.9008 -15.8890  -1.8237   0.9877   4.8532   6.7361

          k = 0.0000-0.2828 0.2828 (  1015 PWs)   bands (ev):

   -16.2637 -16.2635 -16.2015 -16.1551 -16.1287 -16.0172 -15.9973 -15.9730
   -15.9122 -15.9034  -3.0999   3.1239   5.4257   7.6894

          k = 0.5657 0.0000 0.0000 (  1030 PWs)   bands (ev):

   -16.2655 -16.2654 -16.2103 -16.1302 -16.1019 -16.0443 -16.0245 -15.9619
   -15.9022 -15.9022  -1.7665   1.2519   5.6913   5.6914

          k = 0.0000-0.5657 0.5657 (  1021 PWs)   bands (ev):

   -16.2843 -16.2691 -16.1730 -16.1264 -16.0715 -16.0580 -16.0432 -16.0002
   -15.8959 -15.8826  -0.6481   0.0229   4.3896   5.8123

          k =-0.1414-0.4243 0.7071 (  1031 PWs)   bands (ev):

   -16.2826 -16.2772 -16.1644 -16.1058 -16.0940 -16.0678 -16.0335 -16.0061
   -15.8903 -15.8852  -1.3755   0.8669   4.4512   5.4697

     highest occupied level (ev):     8.7342

!    total energy              =    -421.78396412 Ry
     estimated scf accuracy    <       0.00000003 Ry

     The total energy is the sum of the following terms:
     one-electron contribution =    -270.86315414 Ry
     hartree contribution      =     160.98406407 Ry
     xc contribution           =    -111.75078162 Ry
     ewald contribution        =    -200.15409243 Ry

     convergence has been achieved in   7 iterations

     Forces acting on atoms (cartesian axes, Ry/au):

     atom    1 type  1   force =     0.00000000   -0.00000000    0.00000000
     atom    2 type  1   force =     0.00000000   -0.00000000    0.00000000
     The non-local contrib.  to forces
     atom    1 type  1   force =     0.00000000   -0.00000000    0.00000000
     atom    2 type  1   force =     0.00000000    0.00000000    0.00000000
     The ionic contribution  to forces
     atom    1 type  1   force =    -0.00004585   -0.00004585   -0.00004585
     atom    2 type  1   force =     0.00004585    0.00004585    0.00004585
     The local contribution  to forces
     atom    1 type  1   force =     0.00000000    0.00000000    0.00000000
     atom    2 type  1   force =     0.00161632    0.00161632    0.00161632
     The core correction contribution to forces
     atom    1 type  1   force =     0.00000001    0.00000001    0.00000001
     atom    2 type  1   force =     0.00020669    0.00020669    0.00020669
     The Hubbard contrib.    to forces
     atom    1 type  1   force =     0.00000000    0.00000000    0.00000000
     atom    2 type  1   force =     0.00000000    0.00000000    0.00000000
     The SCF correction term to forces
     atom    1 type  1   force =    -0.00000000   -0.00000000   -0.00000000
     atom    2 type  1   force =     0.00000002    0.00000002    0.00000002

     Total force =     0.000000     Total SCF correction =     0.000000


     Computing stress (Cartesian axis) and pressure

          total   stress  (Ry/bohr**3)                   (kbar)     P=        3.32
   0.00002255  -0.00000000  -0.00000000            3.32       -0.00       -0.00
  -0.00000000   0.00002255   0.00000000           -0.00        3.32        0.00
   0.00000000   0.00000000   0.00002255            0.00        0.00        3.32


     init_run     :      0.95s CPU      0.79s WALL (       1 calls)
     electrons    :      8.14s CPU      5.61s WALL (       1 calls)
     forces       :      0.11s CPU      0.10s WALL (       1 calls)
     stress       :      1.47s CPU      0.97s WALL (       1 calls)

     Called by init_run:
     wfcinit      :      0.56s CPU      0.38s WALL (       1 calls)
     potinit      :      0.00s CPU      0.01s WALL (       1 calls)
     hinit0       :      0.36s CPU      0.38s WALL (       1 calls)

     Called by electrons:
     c_bands      :      6.22s CPU      4.26s WALL (       8 calls)
     sum_band     :      1.50s CPU      1.06s WALL (       8 calls)
     v_of_rho     :      0.06s CPU      0.05s WALL (       8 calls)
     newd         :      0.32s CPU      0.21s WALL (       8 calls)
     mix_rho      :      0.03s CPU      0.03s WALL (       8 calls)

     Called by c_bands:
     init_us_2    :      0.25s CPU      0.17s WALL (     190 calls)
     init_us_2:cp :      0.25s CPU      0.16s WALL (     190 calls)
     cegterg      :      5.69s CPU      3.86s WALL (      80 calls)

     Called by *egterg:
     cdiaghg      :      0.27s CPU      0.18s WALL (     281 calls)
     h_psi        :      5.34s CPU      3.65s WALL (     301 calls)
     s_psi        :      0.10s CPU      0.06s WALL (     301 calls)
     g_psi        :      0.04s CPU      0.03s WALL (     211 calls)

     Called by h_psi:
     h_psi:calbec :      0.10s CPU      0.07s WALL (     301 calls)
     vloc_psi     :      5.11s CPU      3.48s WALL (     301 calls)
     add_vuspsi   :      0.10s CPU      0.07s WALL (     301 calls)

     General routines
     calbec       :      0.15s CPU      0.10s WALL (     431 calls)
     fft          :      0.16s CPU      0.16s WALL (      41 calls)
     ffts         :      0.01s CPU      0.01s WALL (       8 calls)
     fftw         :      5.25s CPU      3.60s WALL (    7216 calls)

     Parallel routines

     PWSCF        :     10.81s CPU      7.62s WALL


   This run was terminated on:  10:31:18  16Oct2023            

=------------------------------------------------------------------------------=
   JOB DONE.
=------------------------------------------------------------------------------=
