LAMMPS (29 Oct 2020)
Reading data file ...
  orthogonal box = (0.0000000 0.0000000 0.0000000) to (16.360000 16.360000 16.360000)
  1 by 1 by 1 MPI processor grid
  reading atoms ...
  256 atoms
  read_data CPU = 0.001 seconds
Reading eam potential file /home/gridsan/epan1/3320_atomistic_shared/lammps/potentials/Ag_u3.eam with DATE: 2007-06-11
WARNING: No fixes defined, atoms won't move (../verlet.cpp:54)
Neighbor list info ...
  update every 1 steps, delay 10 steps, check yes
  max neighbors/atom: 2000, page size: 100000
  master list distance cutoff = 7.55
  ghost atom cutoff = 7.55
  binsize = 3.775, bins = 5 5 5
  1 neighbor lists, perpetual/occasional/extra = 1 0 0
  (1) pair eam, perpetual
      attributes: half, newton on
      pair build: half/bin/atomonly/newton
      stencil: half/bin/3d/newton
      bin: standard
Setting up Verlet run ...
  Unit style    : metal
  Current step  : 0
  Time step     : 0.001
Per MPI rank memory allocation (min/avg/max) = 3.369 | 3.369 | 3.369 Mbytes
Step PotEng Lx Ly Lz Press Pxx Pyy Pzz 
       0       -729.6        16.36        16.36        16.36 -0.058146225 -0.058146225 -0.058146225 -0.058146225 
Loop time of 1.90735e-06 on 1 procs for 0 steps with 256 atoms

262.1% CPU use with 1 MPI tasks x no OpenMP threads

MPI task timing breakdown:
Section |  min time  |  avg time  |  max time  |%varavg| %total
---------------------------------------------------------------
Pair    | 0          | 0          | 0          |   0.0 |  0.00
Neigh   | 0          | 0          | 0          |   0.0 |  0.00
Comm    | 0          | 0          | 0          |   0.0 |  0.00
Output  | 0          | 0          | 0          |   0.0 |  0.00
Modify  | 0          | 0          | 0          |   0.0 |  0.00
Other   |            | 1.907e-06  |            |       |100.00

Nlocal:        256.000 ave         256 max         256 min
Histogram: 1 0 0 0 0 0 0 0 0 0
Nghost:        1431.00 ave        1431 max        1431 min
Histogram: 1 0 0 0 0 0 0 0 0 0
Neighs:        11008.0 ave       11008 max       11008 min
Histogram: 1 0 0 0 0 0 0 0 0 0

Total # of neighbors = 11008
Ave neighs/atom = 43.000000
Neighbor list builds = 0
Dangerous builds = 0
WARNING: Using 'neigh_modify every 1 delay 0 check yes' setting during minimization (../min.cpp:187)
Setting up cg style minimization ...
  Unit style    : metal
  Current step  : 0
WARNING: Energy due to 1 extra global DOFs will be included in minimizer energies
Per MPI rank memory allocation (min/avg/max) = 4.494 | 4.494 | 4.494 Mbytes
Step PotEng Lx Ly Lz Press Pxx Pyy Pzz 
       0       -729.6        16.36        16.36        16.36 -0.058146225 -0.058146225 -0.058146225 -0.058146225 
       1       -729.6        16.36        16.36        16.36 -0.00016240381 -0.00016240381 -0.00016240382 -0.00016240382 
Loop time of 0.00150108 on 1 procs for 1 steps with 256 atoms

100.1% CPU use with 1 MPI tasks x no OpenMP threads

Minimization stats:
  Stopping criterion = energy tolerance
  Energy initial, next-to-last, final = 
     -729.600000400844  -729.600000400844  -729.600000401019
  Force two-norm initial, final = 0.0004767408 1.3315485e-06
  Force max component initial, final = 0.0004767408 1.3315485e-06
  Final line search alpha, max atom move = 1.0000000 1.3315485e-06
  Iterations, force evaluations = 1 2

MPI task timing breakdown:
Section |  min time  |  avg time  |  max time  |%varavg| %total
---------------------------------------------------------------
Pair    | 0.001385   | 0.001385   | 0.001385   |   0.0 | 92.26
Neigh   | 0          | 0          | 0          |   0.0 |  0.00
Comm    | 2.1458e-05 | 2.1458e-05 | 2.1458e-05 |   0.0 |  1.43
Output  | 0          | 0          | 0          |   0.0 |  0.00
Modify  | 0          | 0          | 0          |   0.0 |  0.00
Other   |            | 9.465e-05  |            |       |  6.31

Nlocal:        256.000 ave         256 max         256 min
Histogram: 1 0 0 0 0 0 0 0 0 0
Nghost:        1431.00 ave        1431 max        1431 min
Histogram: 1 0 0 0 0 0 0 0 0 0
Neighs:        11008.0 ave       11008 max       11008 min
Histogram: 1 0 0 0 0 0 0 0 0 0

Total # of neighbors = 11008
Ave neighs/atom = 43.000000
Neighbor list builds = 0
Dangerous builds = 0
Total energy (eV) = -729.600000401019
Number of atoms = 256
Lattice constant (Angstoms) = 16.3599996951952
Total wall time: 0:00:00
