
     Program PWSCF v.7.2 starts on  3Nov2023 at 11: 6:53 

     This program is part of the open-source Quantum ESPRESSO suite
     for quantum simulation of materials; please cite
         "P. Giannozzi et al., J. Phys.:Condens. Matter 21 395502 (2009);
         "P. Giannozzi et al., J. Phys.:Condens. Matter 29 465901 (2017);
         "P. Giannozzi et al., J. Chem. Phys. 152 154105 (2020);
          URL http://www.quantum-espresso.org", 
     in publications or presentations arising from this work. More details at
     http://www.quantum-espresso.org/quote

     Parallel version (MPI), running on     8 processors

     MPI processes distributed on     8 nodes
     185446 MiB available memory on the printing compute node when the environment starts

     Waiting for input...
     Reading input from standard input

     Current dimensions of program PWSCF are:
     Max number of different atomic species (ntypx) = 10
     Max number of k-points (npk) =  40000
     Max angular momentum in pseudopotentials (lmaxx) =  4
     Message from routine setup:
     using ibrav=0 with symmetry is DISCOURAGED, use correct ibrav instead

     R & G space division:  proc/nbgrp/npool/nimage =       8
     Subspace diagonalization in iterative solution of the eigenvalue problem:
     a serial algorithm will be used


     Parallelization info
     --------------------
     sticks:   dense  smooth     PW     G-vecs:    dense   smooth      PW
     Min          79      39     13                 1301      461      90
     Max          80      40     14                 1303      463      91
     Sum         637     313    109                10417     3695     725

     Using Slab Decomposition



     bravais-lattice index     =            0
     lattice parameter (alat)  =       5.3450  a.u.
     unit-cell volume          =     107.9734 (a.u.)^3
     number of atoms/cell      =            1
     number of atomic types    =            1
     number of electrons       =        11.00
     number of Kohn-Sham states=           10
     kinetic-energy cutoff     =      40.0000  Ry
     charge density cutoff     =     320.0000  Ry
     scf convergence threshold =      1.0E-07
     mixing beta               =       0.5000
     number of iterations used =            8  plain     mixing
     energy convergence thresh.=      1.0E-04
     force convergence thresh. =      1.0E-03
     press convergence thresh. =      5.0E-01
     Exchange-correlation=  SLA  PZ   NOGX NOGC
                           (   1   1   0   0   0   0   0)
     nstep                     =           50


     celldm(1)=   5.344953  celldm(2)=   0.000000  celldm(3)=   0.000000
     celldm(4)=   0.000000  celldm(5)=   0.000000  celldm(6)=   0.000000

     crystal axes: (cart. coord. in units of alat)
               a(1) = (   0.000000   0.707107   0.707107 )  
               a(2) = (   0.707107   0.000000   0.707107 )  
               a(3) = (   0.707107   0.707107   0.000000 )  

     reciprocal axes: (cart. coord. in units 2 pi/alat)
               b(1) = ( -0.707107  0.707107  0.707107 )  
               b(2) = (  0.707107 -0.707107  0.707107 )  
               b(3) = (  0.707107  0.707107 -0.707107 )  


     PseudoPot. # 1 for Au read from file:
     /home/gridsan/epan1/labutil/lab3_samples/pseudopotentials/Au.pz-d-rrkjus.UPF
     MD5 check sum: 424ffd4ac9c90487cbadcd287136c95b
     Pseudo is Ultrasoft, Zval = 11.0
     Generated by new atomic code, or converted to UPF format
     Using radial grid of 1279 points,  3 beta functions with: 
                l(1) =   2
                l(2) =   2
                l(3) =   1
     Q(r) pseudized with 0 coefficients 


     atomic species   valence    mass     pseudopotential
        Au            11.00   196.96657     Au( 1.00)

     Starting magnetic structure 
     atomic species   magnetization
        Au           0.700

     48 Sym. Ops., with inversion, found



   Cartesian axes

     site n.     atom                  positions (alat units)
         1           Au  tau(   1) = (   0.0000000   0.0000000   0.0000000  )

     number of k points=    29  Methfessel-Paxton smearing, width (Ry)=  0.0200
                       cart. coord. in units 2pi/alat
        k(    1) = (   0.0000000   0.0000000   0.0000000), wk =   0.0019531
        k(    2) = (   0.0883883   0.0883883  -0.0883883), wk =   0.0156250
        k(    3) = (   0.1767767   0.1767767  -0.1767767), wk =   0.0156250
        k(    4) = (   0.2651650   0.2651650  -0.2651650), wk =   0.0156250
        k(    5) = (  -0.3535534  -0.3535534   0.3535534), wk =   0.0078125
        k(    6) = (   0.1767767   0.0000000   0.0000000), wk =   0.0117188
        k(    7) = (   0.2651650   0.0883883  -0.0883883), wk =   0.0468750
        k(    8) = (   0.3535534   0.1767767  -0.1767767), wk =   0.0468750
        k(    9) = (  -0.2651650  -0.4419417   0.4419417), wk =   0.0468750
        k(   10) = (  -0.1767767  -0.3535534   0.3535534), wk =   0.0468750
        k(   11) = (  -0.0883883  -0.2651650   0.2651650), wk =   0.0468750
        k(   12) = (   0.0000000  -0.1767767   0.1767767), wk =   0.0234375
        k(   13) = (   0.3535534   0.0000000   0.0000000), wk =   0.0117188
        k(   14) = (   0.4419417   0.0883883  -0.0883883), wk =   0.0468750
        k(   15) = (  -0.1767767  -0.5303301   0.5303301), wk =   0.0468750
        k(   16) = (  -0.0883883  -0.4419417   0.4419417), wk =   0.0468750
        k(   17) = (   0.0000000  -0.3535534   0.3535534), wk =   0.0234375
        k(   18) = (   0.5303301   0.0000000   0.0000000), wk =   0.0117188
        k(   19) = (  -0.0883883  -0.6187184   0.6187184), wk =   0.0468750
        k(   20) = (   0.0000000  -0.5303301   0.5303301), wk =   0.0234375
        k(   21) = (  -0.7071068   0.0000000   0.0000000), wk =   0.0058594
        k(   22) = (   0.3535534   0.1767767   0.0000000), wk =   0.0468750
        k(   23) = (  -0.2651650  -0.4419417   0.6187184), wk =   0.0937500
        k(   24) = (  -0.1767767  -0.3535534   0.5303301), wk =   0.0468750
        k(   25) = (  -0.1767767  -0.5303301   0.7071068), wk =   0.0468750
        k(   26) = (  -0.0883883  -0.4419417   0.6187184), wk =   0.0937500
        k(   27) = (   0.0000000  -0.3535534   0.5303301), wk =   0.0468750
        k(   28) = (  -0.7071068   0.1767767   0.0000000), wk =   0.0234375
        k(   29) = (  -0.7071068   0.3535534   0.0000000), wk =   0.0117188

     Dense  grid:    10417 G-vectors     FFT dimensions: (  32,  32,  32)

     Smooth grid:     3695 G-vectors     FFT dimensions: (  24,  24,  24)

     Estimated max dynamical RAM per process >       5.15 MB

     Estimated total dynamical RAM >      41.21 MB
     Generating pointlists ...
     new r_m :   0.4125 (alat units)  2.2048 (a.u.) for type    1

     Initial potential from superposition of free atoms

     starting charge      10.9999, renormalised to      11.0000
     Starting wfcs are    9 randomized atomic wfcs +    1 random wfcs

     total cpu time spent up to now is        0.5 secs

     Self-consistent Calculation

     iteration #  1     ecut=    40.00 Ry     beta= 0.50
     Davidson diagonalization with overlap
     ethr =  1.00E-02,  avg # of iterations =  5.3

     total cpu time spent up to now is        0.8 secs

     total energy              =     -66.50660082 Ry
     estimated scf accuracy    <       0.45955403 Ry

     total magnetization       =     1.18 Bohr mag/cell
     absolute magnetization    =     1.26 Bohr mag/cell

     iteration #  2     ecut=    40.00 Ry     beta= 0.50
     Davidson diagonalization with overlap
     ethr =  4.18E-03,  avg # of iterations =  1.4

     total cpu time spent up to now is        1.1 secs

     total energy              =     -66.77695153 Ry
     estimated scf accuracy    <       0.14121550 Ry

     total magnetization       =     0.36 Bohr mag/cell
     absolute magnetization    =     0.52 Bohr mag/cell

     iteration #  3     ecut=    40.00 Ry     beta= 0.50
     Davidson diagonalization with overlap
     ethr =  1.28E-03,  avg # of iterations =  1.2

     total cpu time spent up to now is        1.3 secs

     total energy              =     -66.85731516 Ry
     estimated scf accuracy    <       0.04090875 Ry

     total magnetization       =     0.30 Bohr mag/cell
     absolute magnetization    =     0.37 Bohr mag/cell

     iteration #  4     ecut=    40.00 Ry     beta= 0.50
     Davidson diagonalization with overlap
     ethr =  3.72E-04,  avg # of iterations =  1.6

     total cpu time spent up to now is        1.5 secs

     total energy              =     -66.86892867 Ry
     estimated scf accuracy    <       0.00144108 Ry

     total magnetization       =     0.01 Bohr mag/cell
     absolute magnetization    =     0.06 Bohr mag/cell

     iteration #  5     ecut=    40.00 Ry     beta= 0.50
     Davidson diagonalization with overlap
     ethr =  1.31E-05,  avg # of iterations =  2.3

     total cpu time spent up to now is        1.7 secs

     total energy              =     -66.86959931 Ry
     estimated scf accuracy    <       0.00015567 Ry

     total magnetization       =    -0.02 Bohr mag/cell
     absolute magnetization    =     0.02 Bohr mag/cell

     iteration #  6     ecut=    40.00 Ry     beta= 0.50
     Davidson diagonalization with overlap
     ethr =  1.42E-06,  avg # of iterations =  1.7

     total cpu time spent up to now is        1.9 secs

     total energy              =     -66.86966111 Ry
     estimated scf accuracy    <       0.00001256 Ry

     total magnetization       =     0.01 Bohr mag/cell
     absolute magnetization    =     0.01 Bohr mag/cell

     iteration #  7     ecut=    40.00 Ry     beta= 0.50
     Davidson diagonalization with overlap
     ethr =  1.14E-07,  avg # of iterations =  1.7

     total cpu time spent up to now is        2.2 secs

     total energy              =     -66.86966622 Ry
     estimated scf accuracy    <       0.00000250 Ry

     total magnetization       =     0.00 Bohr mag/cell
     absolute magnetization    =     0.00 Bohr mag/cell

     iteration #  8     ecut=    40.00 Ry     beta= 0.50
     Davidson diagonalization with overlap
     ethr =  2.27E-08,  avg # of iterations =  1.5

     Magnetic moment per site  (integrated on atomic sphere of radius R)
     atom   1 (R=0.413)  charge=  9.2990  magn= -0.0009

     total cpu time spent up to now is        2.4 secs

     End of self-consistent calculation

 ------ SPIN UP ------------


          k = 0.0000 0.0000 0.0000 (   459 PWs)   bands (ev):

     6.4004  12.0225  12.0225  12.0225  13.7200  13.7200  33.5459  37.4096
    37.4096  37.4096

          k = 0.0884 0.0884-0.0884 (   471 PWs)   bands (ev):

     6.9696  11.8529  12.2075  12.2075  13.6553  13.6553  33.5468  34.5172
    37.8142  37.8142

          k = 0.1768 0.1768-0.1768 (   477 PWs)   bands (ev):

     8.3219  11.8554  12.3338  12.3338  13.9097  13.9097  28.7665  34.3886
    37.9765  37.9765

          k = 0.2652 0.2652-0.2652 (   465 PWs)   bands (ev):

     9.0720  12.1043  12.1043  13.5682  14.6695  14.6695  23.6338  33.1679
    36.4462  36.4462

          k =-0.3536-0.3536 0.3536 (   464 PWs)   bands (ev):

     9.1168  11.9745  11.9745  15.0729  15.0729  15.8033  20.3813  32.6136
    35.5487  35.5487

          k = 0.1768 0.0000 0.0000 (   471 PWs)   bands (ev):

     7.1634  11.6299  12.3864  12.3864  13.3028  13.8979  34.3101  35.2891
    36.1469  36.1469

          k = 0.2652 0.0884-0.0884 (   470 PWs)   bands (ev):

     8.3160  11.3261  12.4564  12.6850  13.4558  14.1781  30.8091  34.7617
    34.9776  37.3739

          k = 0.3536 0.1768-0.1768 (   458 PWs)   bands (ev):

     9.3920  11.8765  12.0022  12.5642  14.8124  14.9218  25.5071  33.6659
    34.0750  35.6233

          k =-0.2652-0.4419 0.4419 (   459 PWs)   bands (ev):

     9.5289  11.7145  12.3446  13.2883  15.1011  17.3547  20.9382  32.4236
    34.1080  34.1262

          k =-0.1768-0.3536 0.3536 (   455 PWs)   bands (ev):

     9.5572  11.8045  12.3376  13.1294  14.5645  16.6787  22.3656  31.8451
    34.0185  35.8934

          k =-0.0884-0.2652 0.2652 (   463 PWs)   bands (ev):

     9.1978  11.6441  12.2161  12.5809  13.5980  15.1004  27.2767  32.2286
    35.4849  39.1574

          k = 0.0000-0.1768 0.1768 (   469 PWs)   bands (ev):

     7.8484  11.5622  12.4036  12.5128  13.2711  14.0935  31.8961  33.3632
    36.7631  38.6915

          k = 0.3536 0.0000 0.0000 (   456 PWs)   bands (ev):

     8.9885  10.7752  12.7711  13.4031  13.4031  14.3442  32.6282  32.6282
    34.1182  34.4297

          k = 0.4419 0.0884-0.0884 (   456 PWs)   bands (ev):

     9.7855  10.5754  12.5348  13.5943  14.8779  15.0784  27.6824  31.2336
    31.4779  35.1636

          k =-0.1768-0.5303 0.5303 (   459 PWs)   bands (ev):

    10.0562  11.0510  12.3837  13.3418  15.1748  18.1682  22.7183  29.1390
    31.3199  34.9890

          k =-0.0884-0.4419 0.4419 (   456 PWs)   bands (ev):

    10.3606  11.3522  12.2674  13.1366  14.6131  19.0744  22.1586  27.4232
    33.1788  34.7661

          k = 0.0000-0.3536 0.3536 (   463 PWs)   bands (ev):

    10.4459  11.4172  11.7759  13.0423  13.7190  16.8405  25.9847  27.7887
    35.0056  36.2178

          k = 0.5303 0.0000 0.0000 (   452 PWs)   bands (ev):

     9.5821  10.0219  14.7290  14.7290  14.8170  14.8761  27.4607  29.1564
    29.1564  34.3508

          k =-0.0884-0.6187 0.6187 (   460 PWs)   bands (ev):

     9.6713  10.0508  14.0567  14.5335  15.2818  18.2181  23.9747  26.9573
    28.7520  35.4994

          k = 0.0000-0.5303 0.5303 (   458 PWs)   bands (ev):

    10.0524  10.7310  12.9453  14.0374  14.9387  21.1171  21.9325  24.8411
    30.3663  35.5157

          k =-0.7071 0.0000 0.0000 (   460 PWs)   bands (ev):

     9.3738   9.7333  15.0215  15.4397  15.4397  17.9326  23.1285  27.6581
    27.6581  34.6562

          k = 0.3536 0.1768 0.0000 (   464 PWs)   bands (ev):

     9.5144  11.0052  12.0619  13.4068  13.4896  15.1423  28.8831  30.7642
    34.3721  37.8591

          k =-0.2652-0.4419 0.6187 (   461 PWs)   bands (ev):

    10.2265  11.4590  11.6864  13.1765  14.5156  16.9771  24.3898  29.5885
    32.2623  37.0079

          k =-0.1768-0.3536 0.5303 (   470 PWs)   bands (ev):

    10.2309  11.2621  12.4704  12.9495  14.9192  19.7866  20.3516  29.8262
    30.9933  36.2846

          k =-0.1768-0.5303 0.7071 (   463 PWs)   bands (ev):

    10.1299  10.4136  12.5706  14.3738  14.7192  17.2337  25.7658  27.8296
    29.3903  37.4641

          k =-0.0884-0.4419 0.6187 (   459 PWs)   bands (ev):

    10.3988  10.8866  12.2171  13.7934  15.1259  20.3818  22.4470  26.2200
    28.7225  37.8405

          k = 0.0000-0.3536 0.5303 (   462 PWs)   bands (ev):

    10.8887  11.2030  11.5199  13.5588  14.7238  19.2487  24.5248  24.9720
    30.3079  37.9877

          k =-0.7071 0.1768 0.0000 (   456 PWs)   bands (ev):

     9.8724  10.1786  13.5592  14.4043  15.4408  20.2948  22.5302  26.4691
    27.2003  37.5822

          k =-0.7071 0.3536 0.0000 (   464 PWs)   bands (ev):

    10.5843  11.4906  11.4906  13.5455  15.4419  22.0490  23.6407  23.6407
    26.9370  41.9167

 ------ SPIN DOWN ----------


          k = 0.0000 0.0000 0.0000 (   459 PWs)   bands (ev):

     6.3987  12.0195  12.0195  12.0195  13.7170  13.7170  33.5445  37.4081
    37.4081  37.4081

          k = 0.0884 0.0884-0.0884 (   471 PWs)   bands (ev):

     6.9679  11.8500  12.2045  12.2045  13.6522  13.6522  33.5451  34.5157
    37.8126  37.8126

          k = 0.1768 0.1768-0.1768 (   477 PWs)   bands (ev):

     8.3202  11.8527  12.3309  12.3309  13.9067  13.9067  28.7645  34.3871
    37.9746  37.9746

          k = 0.2652 0.2652-0.2652 (   465 PWs)   bands (ev):

     9.0697  12.1014  12.1014  13.5662  14.6663  14.6663  23.6316  33.1666
    36.4444  36.4444

          k =-0.3536-0.3536 0.3536 (   464 PWs)   bands (ev):

     9.1144  11.9716  11.9716  15.0696  15.0696  15.8018  20.3786  32.6123
    35.5470  35.5470

          k = 0.1768 0.0000 0.0000 (   471 PWs)   bands (ev):

     7.1618  11.6269  12.3833  12.3833  13.2998  13.8948  34.3085  35.2876
    36.1452  36.1452

          k = 0.2652 0.0884-0.0884 (   470 PWs)   bands (ev):

     8.3143  11.3232  12.4535  12.6819  13.4528  14.1750  30.8073  34.7600
    34.9758  37.3721

          k = 0.3536 0.1768-0.1768 (   458 PWs)   bands (ev):

     9.3898  11.8739  11.9993  12.5613  14.8092  14.9189  25.5050  33.6644
    34.0732  35.6213

          k =-0.2652-0.4419 0.4419 (   459 PWs)   bands (ev):

     9.5265  11.7117  12.3417  13.2857  15.0979  17.3524  20.9358  32.4220
    34.1062  34.1244

          k =-0.1768-0.3536 0.3536 (   455 PWs)   bands (ev):

     9.5548  11.8016  12.3347  13.1270  14.5613  16.6761  22.3632  31.8433
    34.0170  35.8916

          k =-0.0884-0.2652 0.2652 (   463 PWs)   bands (ev):

     9.1959  11.6414  12.2133  12.5780  13.5949  15.0973  27.2746  32.2266
    35.4834  39.4585

          k = 0.0000-0.1768 0.1768 (   469 PWs)   bands (ev):

     7.8468  11.5593  12.4006  12.5098  13.2682  14.0904  31.8943  33.3612
    36.7617  38.6900

          k = 0.3536 0.0000 0.0000 (   456 PWs)   bands (ev):

     8.9868  10.7724  12.7684  13.4000  13.4000  14.3411  32.6264  32.6264
    34.1166  34.4277

          k = 0.4419 0.0884-0.0884 (   456 PWs)   bands (ev):

     9.7834  10.5727  12.5321  13.5913  14.8747  15.0755  27.6805  31.2318
    31.4759  35.1617

          k =-0.1768-0.5303 0.5303 (   459 PWs)   bands (ev):

    10.0537  11.0485  12.3811  13.3388  15.1715  18.1656  22.7163  29.1369
    31.3181  34.9872

          k =-0.0884-0.4419 0.4419 (   456 PWs)   bands (ev):

    10.3580  11.3497  12.2648  13.1337  14.6099  19.0720  22.1563  27.4211
    33.1769  34.7644

          k = 0.0000-0.3536 0.3536 (   463 PWs)   bands (ev):

    10.4437  11.4144  11.7733  13.0394  13.7158  16.8376  25.9827  27.7866
    35.0040  36.2158

          k = 0.5303 0.0000 0.0000 (   452 PWs)   bands (ev):

     9.5798  10.0191  14.7258  14.7258  14.8138  14.8741  27.4586  29.1547
    29.1547  34.3489

          k =-0.0884-0.6187 0.6187 (   460 PWs)   bands (ev):

     9.6689  10.0481  14.0538  14.5304  15.2785  18.2159  23.9727  26.9553
    28.7503  35.4974

          k = 0.0000-0.5303 0.5303 (   458 PWs)   bands (ev):

    10.0498  10.7285  12.9426  14.0343  14.9354  21.1151  21.9303  24.8389
    30.3645  35.5137

          k =-0.7071 0.0000 0.0000 (   460 PWs)   bands (ev):

     9.3714   9.7306  15.0183  15.4363  15.4363  17.9311  23.1260  27.6566
    27.6566  34.6543

          k = 0.3536 0.1768 0.0000 (   464 PWs)   bands (ev):

     9.5126  11.0024  12.0591  13.4037  13.4867  15.1392  28.8812  30.7621
    34.3704  37.8576

          k =-0.2652-0.4419 0.6187 (   461 PWs)   bands (ev):

    10.2241  11.4563  11.6837  13.1736  14.5124  16.9743  24.3877  29.5865
    32.2604  37.0063

          k =-0.1768-0.3536 0.5303 (   470 PWs)   bands (ev):

    10.2284  11.2595  12.4678  12.9466  14.9160  19.7845  20.3491  29.8242
    30.9914  36.2830

          k =-0.1768-0.5303 0.7071 (   463 PWs)   bands (ev):

    10.1275  10.4109  12.5679  14.3708  14.7159  17.2311  25.7639  27.8276
    29.3883  37.4624

          k =-0.0884-0.4419 0.6187 (   459 PWs)   bands (ev):

    10.3963  10.8840  12.2144  13.7905  15.1226  20.3795  22.4450  26.2179
    28.7206  37.8387

          k = 0.0000-0.3536 0.5303 (   462 PWs)   bands (ev):

    10.8860  11.2005  11.5171  13.5559  14.7205  19.2463  24.5227  24.9699
    30.3059  37.9861

          k =-0.7071 0.1768 0.0000 (   456 PWs)   bands (ev):

     9.8700  10.1758  13.5563  14.4012  15.4374  20.2928  22.5279  26.4673
    27.1983  37.5804

          k =-0.7071 0.3536 0.0000 (   464 PWs)   bands (ev):

    10.5818  11.4879  11.4879  13.5426  15.4386  22.0468  23.6387  23.6387
    26.9349  41.9151

     the Fermi energy is    17.0805 ev

!    total energy              =     -66.86966695 Ry
     estimated scf accuracy    <       0.00000008 Ry
     smearing contrib. (-TS)   =      -0.00016140 Ry
     internal energy E=F+TS    =     -66.86950555 Ry

     The total energy is F=E-TS. E is the sum of the following terms:
     one-electron contribution =      10.18130571 Ry
     hartree contribution      =       6.83777100 Ry
     xc contribution           =     -10.49589539 Ry
     ewald contribution        =     -73.39268687 Ry

     total magnetization       =    -0.00 Bohr mag/cell
     absolute magnetization    =     0.00 Bohr mag/cell

     convergence has been achieved in   8 iterations

     Forces acting on atoms (cartesian axes, Ry/au):

     atom    1 type  1   force =     0.00000000    0.00000000    0.00000000
     The non-local contrib.  to forces
     atom    1 type  1   force =    -0.00000000    0.00000000    0.00000000
     The ionic contribution  to forces
     atom    1 type  1   force =    -0.00000000   -0.00000000   -0.00000000
     The local contribution  to forces
     atom    1 type  1   force =     0.00000000    0.00000000    0.00000000
     The core correction contribution to forces
     atom    1 type  1   force =     0.00000000    0.00000000    0.00000000
     The Hubbard contrib.    to forces
     atom    1 type  1   force =     0.00000000    0.00000000    0.00000000
     The SCF correction term to forces
     atom    1 type  1   force =     0.00000000    0.00000000    0.00000000

     Total force =     0.000000     Total SCF correction =     0.000000


     Computing stress (Cartesian axis) and pressure

          total   stress  (Ry/bohr**3)                   (kbar)     P=       85.28
   0.00057973   0.00000000   0.00000000           85.28        0.00        0.00
   0.00000000   0.00057973   0.00000000            0.00       85.28        0.00
   0.00000000   0.00000000   0.00057973            0.00        0.00       85.28


     BFGS Geometry Optimization
     Energy error            =      0.0E+00 Ry
     Gradient error          =      0.0E+00 Ry/Bohr
     Cell gradient error     =      8.5E+01 kbar

     number of scf cycles    =   1
     number of bfgs steps    =   0

     enthalpy           new  =     -66.8696669506 Ry

     new trust radius        =       0.0301201532 bohr
     new conv_thr            =       0.0000001000 Ry

     new unit-cell volume =    112.73641 a.u.^3 (    16.70581 Ang^3 )
     density =     19.57826 g/cm^3

CELL_PARAMETERS (angstrom)
   0.000000000   2.028986707   2.028986707
   2.028986707   0.000000000   2.028986707
   2.028986707   2.028986707   0.000000000

ATOMIC_POSITIONS (angstrom)
Au            0.0000000000        0.0000000000        0.0000000000



     Writing config-only to output data dir /home/gridsan/epan1/labutil/lab3_samples/problem3/Lab3/Au_a_4.0_ecut_40_nk_8/pwscf.save/
     NEW-OLD atomic charge density approx. for the potential
     extrapolated charge   11.46474, renormalised to   11.00000
     Generating pointlists ...

     total cpu time spent up to now is        2.7 secs

     Self-consistent Calculation

     iteration #  1     ecut=    40.00 Ry     beta= 0.50
     Davidson diagonalization with overlap
     ethr =  1.00E-06,  avg # of iterations =  3.4

     total cpu time spent up to now is        3.0 secs

     total energy              =     -66.83432752 Ry
     estimated scf accuracy    <       0.03097916 Ry

     total magnetization       =    -0.00 Bohr mag/cell
     absolute magnetization    =     0.00 Bohr mag/cell

     iteration #  2     ecut=    40.00 Ry     beta= 0.50
     Davidson diagonalization with overlap
     ethr =  2.82E-04,  avg # of iterations =  2.0

     total cpu time spent up to now is        3.3 secs

     total energy              =     -66.87187205 Ry
     estimated scf accuracy    <       0.03772866 Ry

     total magnetization       =    -0.00 Bohr mag/cell
     absolute magnetization    =     0.00 Bohr mag/cell

     iteration #  3     ecut=    40.00 Ry     beta= 0.50
     Davidson diagonalization with overlap
     ethr =  2.82E-04,  avg # of iterations =  1.0

     total cpu time spent up to now is        3.5 secs

     total energy              =     -66.87098768 Ry
     estimated scf accuracy    <       0.00849178 Ry

     total magnetization       =    -0.00 Bohr mag/cell
     absolute magnetization    =     0.00 Bohr mag/cell

     iteration #  4     ecut=    40.00 Ry     beta= 0.50
     Davidson diagonalization with overlap
     ethr =  7.72E-05,  avg # of iterations =  1.0

     total cpu time spent up to now is        3.7 secs

     total energy              =     -66.87157417 Ry
     estimated scf accuracy    <       0.00166120 Ry

     total magnetization       =    -0.00 Bohr mag/cell
     absolute magnetization    =     0.00 Bohr mag/cell

     iteration #  5     ecut=    40.00 Ry     beta= 0.50
     Davidson diagonalization with overlap
     ethr =  1.51E-05,  avg # of iterations =  1.0

     total cpu time spent up to now is        3.9 secs

     total energy              =     -66.87086710 Ry
     estimated scf accuracy    <       0.00183531 Ry

     total magnetization       =    -0.00 Bohr mag/cell
     absolute magnetization    =     0.00 Bohr mag/cell

     iteration #  6     ecut=    40.00 Ry     beta= 0.50
     Davidson diagonalization with overlap
     ethr =  1.51E-05,  avg # of iterations =  1.0

     total cpu time spent up to now is        4.1 secs

     total energy              =     -66.87089576 Ry
     estimated scf accuracy    <       0.00023315 Ry

     total magnetization       =    -0.00 Bohr mag/cell
     absolute magnetization    =     0.00 Bohr mag/cell

     iteration #  7     ecut=    40.00 Ry     beta= 0.50
     Davidson diagonalization with overlap
     ethr =  2.12E-06,  avg # of iterations =  1.9

     total cpu time spent up to now is        4.4 secs

     total energy              =     -66.87093705 Ry
     estimated scf accuracy    <       0.00000241 Ry

     total magnetization       =    -0.00 Bohr mag/cell
     absolute magnetization    =     0.00 Bohr mag/cell

     iteration #  8     ecut=    40.00 Ry     beta= 0.50
     Davidson diagonalization with overlap
     ethr =  2.20E-08,  avg # of iterations =  1.2

     total cpu time spent up to now is        4.6 secs

     total energy              =     -66.87093670 Ry
     estimated scf accuracy    <       0.00000255 Ry

     total magnetization       =    -0.00 Bohr mag/cell
     absolute magnetization    =     0.00 Bohr mag/cell

     iteration #  9     ecut=    40.00 Ry     beta= 0.50
     Davidson diagonalization with overlap
     ethr =  2.20E-08,  avg # of iterations =  1.0

     total cpu time spent up to now is        4.8 secs

     total energy              =     -66.87093661 Ry
     estimated scf accuracy    <       0.00000138 Ry

     total magnetization       =    -0.00 Bohr mag/cell
     absolute magnetization    =     0.00 Bohr mag/cell

     iteration # 10     ecut=    40.00 Ry     beta= 0.50
     Davidson diagonalization with overlap
     ethr =  1.25E-08,  avg # of iterations =  1.0

     total cpu time spent up to now is        5.1 secs

     total energy              =     -66.87093642 Ry
     estimated scf accuracy    <       0.00000081 Ry

     total magnetization       =     0.00 Bohr mag/cell
     absolute magnetization    =     0.00 Bohr mag/cell

     iteration # 11     ecut=    40.00 Ry     beta= 0.50
     Davidson diagonalization with overlap
     ethr =  7.34E-09,  avg # of iterations =  1.0

     total cpu time spent up to now is        5.3 secs

     total energy              =     -66.87093641 Ry
     estimated scf accuracy    <       0.00000046 Ry

     total magnetization       =    -0.00 Bohr mag/cell
     absolute magnetization    =     0.00 Bohr mag/cell

     iteration # 12     ecut=    40.00 Ry     beta= 0.50
     Davidson diagonalization with overlap
     ethr =  4.18E-09,  avg # of iterations =  1.0

     total cpu time spent up to now is        5.5 secs

     total energy              =     -66.87093638 Ry
     estimated scf accuracy    <       0.00000023 Ry

     total magnetization       =     0.00 Bohr mag/cell
     absolute magnetization    =     0.00 Bohr mag/cell

     iteration # 13     ecut=    40.00 Ry     beta= 0.50
     Davidson diagonalization with overlap
     ethr =  2.08E-09,  avg # of iterations =  1.0

     total cpu time spent up to now is        5.7 secs

     total energy              =     -66.87093634 Ry
     estimated scf accuracy    <       0.00000013 Ry

     total magnetization       =    -0.00 Bohr mag/cell
     absolute magnetization    =     0.00 Bohr mag/cell

     iteration # 14     ecut=    40.00 Ry     beta= 0.50
     Davidson diagonalization with overlap
     ethr =  1.21E-09,  avg # of iterations =  1.0

     Magnetic moment per site  (integrated on atomic sphere of radius R)
     atom   1 (R=0.413)  charge=  9.2435  magn=  0.0000

     total cpu time spent up to now is        5.9 secs

     End of self-consistent calculation

 ------ SPIN UP ------------


          k = 0.0000 0.0000 0.0000 (   459 PWs)   bands (ev):

     5.8391  11.2334  11.2334  11.2334  12.8079  12.8079  32.4158  36.0080
    36.0080  36.0080

          k = 0.0871 0.0871-0.0871 (   471 PWs)   bands (ev):

     6.3863  11.0782  11.4062  11.4062  12.7496  12.7496  32.2192  33.2957
    36.3437  36.3437

          k = 0.1743 0.1743-0.1743 (   477 PWs)   bands (ev):

     7.6967  11.0885  11.5249  11.5249  12.9884  12.9884  27.4041  33.1796
    36.3642  36.3642

          k = 0.2614 0.2614-0.2614 (   465 PWs)   bands (ev):

     8.4447  11.3123  11.3123  12.7427  13.6917  13.6917  22.3423  32.0267
    34.8974  34.8974

          k =-0.3485-0.3485 0.3485 (   464 PWs)   bands (ev):

     8.4966  11.1916  11.1916  14.0634  14.0634  14.9688  19.1019  31.5023
    34.0589  34.0589

          k = 0.1743 0.0000 0.0000 (   471 PWs)   bands (ev):

     6.5727  10.8703  11.5733  11.5733  12.4250  12.9733  33.0935  33.9568
    34.6681  34.6681

          k = 0.2614 0.0871-0.0871 (   470 PWs)   bands (ev):

     7.6861  10.5898  11.6416  11.8520  12.5712  13.2347  29.4197  33.4676
    33.4711  35.9264

          k = 0.3485 0.1743-0.1743 (   458 PWs)   bands (ev):

     8.7437  11.1150  11.2189  11.7406  13.8226  13.9541  24.1932  32.4283
    32.5894  34.0559

          k =-0.2614-0.4356 0.4356 (   459 PWs)   bands (ev):

     8.8879  10.9542  11.5371  12.4464  14.0894  16.3358  19.6910  31.1209
    32.6567  32.7290

          k =-0.1743-0.3485 0.3485 (   455 PWs)   bands (ev):

     8.9118  11.0368  11.5307  12.3040  13.5955  15.6339  21.1049  30.4664
    32.7491  34.3536

          k =-0.0871-0.2614 0.2614 (   463 PWs)   bands (ev):

     8.5456  10.8896  11.4230  11.7562  12.7011  14.1000  25.9316  30.8046
    34.1770  37.4748

          k = 0.0000-0.1743 0.1743 (   469 PWs)   bands (ev):

     7.2331  10.8094  11.5913  11.6911  12.3963  13.1575  30.5330  31.9494
    35.4343  37.2326

          k = 0.3485 0.0000 0.0000 (   456 PWs)   bands (ev):

     8.3424  10.0756  11.9406  12.5211  12.5211  13.3874  31.1930  31.1930
    32.7500  32.8227

          k = 0.4356 0.0871-0.0871 (   456 PWs)   bands (ev):

     9.1291   9.8896  11.7219  12.6986  13.8825  14.1046  26.3372  29.8493
    30.0317  33.7023

          k =-0.1743-0.5228 0.5228 (   459 PWs)   bands (ev):

     9.3964  10.3422  11.5832  12.4652  14.1573  17.0629  21.5071  27.7376
    29.9348  33.5732

          k =-0.0871-0.4356 0.4356 (   456 PWs)   bands (ev):

     9.6797  10.6246  11.4808  12.2755  13.6405  17.9400  20.9281  26.0704
    31.7110  33.4123

          k = 0.0000-0.3485 0.3485 (   463 PWs)   bands (ev):

     9.7474  10.6780  11.0214  12.1880  12.8128  15.7530  24.6758  26.4117
    33.6954  34.6297

          k = 0.5228 0.0000 0.0000 (   452 PWs)   bands (ev):

     8.9522   9.3711  13.7499  13.7499  13.8251  13.9803  26.0204  27.8632
    27.8632  32.9039

          k =-0.0871-0.6099 0.6099 (   460 PWs)   bands (ev):

     9.0431   9.3985  13.1509  13.5672  14.2565  17.1596  22.6686  25.6681
    27.4790  33.9915

          k = 0.0000-0.5228 0.5228 (   458 PWs)   bands (ev):

     9.4002  10.0406  12.1128  13.1107  13.9410  19.9124  20.7640  23.5328
    29.0125  34.0385

          k =-0.6970 0.0000 0.0000 (   460 PWs)   bands (ev):

     8.7642   9.1004  14.0140  14.4026  14.4026  17.0099  21.7369  26.4439
    26.4439  33.1625

          k = 0.3485 0.1743-0.0000 (   464 PWs)   bands (ev):

     8.8475  10.2911  11.2774  12.5241  12.6052  14.1392  27.5191  29.3327
    32.9723  36.4637

          k =-0.2614-0.4356 0.6099 (   461 PWs)   bands (ev):

     9.5479  10.7235  10.9275  12.3140  13.5537  15.8980  23.1137  28.1945
    30.8705  35.5672

          k =-0.1743-0.3485 0.5228 (   470 PWs)   bands (ev):

     9.5552  10.5375  11.6734  12.1018  13.9231  18.7016  19.1068  28.4080
    29.6359  34.9068

          k =-0.1743-0.5228 0.6970 (   463 PWs)   bands (ev):

     9.4713   9.7378  11.7573  13.4265  13.7405  16.1598  24.4569  26.5190
    28.0159  35.9437

          k =-0.0871-0.4356 0.6099 (   459 PWs)   bands (ev):

     9.7271  10.1852  11.4280  12.8872  14.1144  19.1868  21.2596  24.8934
    27.3828  36.3486

          k = 0.0000-0.3485 0.5228 (   462 PWs)   bands (ev):

    10.1857  10.4809  10.7748  12.6700  13.7439  18.0967  23.2345  23.7001
    28.9160  36.5259

          k =-0.6970 0.1743 0.0000 (   456 PWs)   bands (ev):

     9.2354   9.5173  12.6852  13.4495  14.4036  19.2100  21.2015  25.2342
    25.9126  36.0324

          k =-0.6970 0.3485 0.0000 (   464 PWs)   bands (ev):

     9.9081  10.7475  10.7475  12.6573  14.4046  20.7559  22.4383  22.4383
    25.6090  40.3705

 ------ SPIN DOWN ----------


          k = 0.0000 0.0000 0.0000 (   459 PWs)   bands (ev):

     5.8391  11.2334  11.2334  11.2334  12.8079  12.8079  32.4158  36.0080
    36.0080  36.0080

          k = 0.0871 0.0871-0.0871 (   471 PWs)   bands (ev):

     6.3863  11.0782  11.4062  11.4062  12.7496  12.7496  32.2192  33.2957
    36.3437  36.3437

          k = 0.1743 0.1743-0.1743 (   477 PWs)   bands (ev):

     7.6967  11.0885  11.5249  11.5249  12.9884  12.9884  27.4041  33.1796
    36.3642  36.3642

          k = 0.2614 0.2614-0.2614 (   465 PWs)   bands (ev):

     8.4447  11.3123  11.3123  12.7427  13.6917  13.6917  22.3423  32.0267
    34.8974  34.8974

          k =-0.3485-0.3485 0.3485 (   464 PWs)   bands (ev):

     8.4966  11.1916  11.1916  14.0634  14.0634  14.9688  19.1019  31.5023
    34.0589  34.0589

          k = 0.1743 0.0000 0.0000 (   471 PWs)   bands (ev):

     6.5727  10.8703  11.5733  11.5733  12.4250  12.9733  33.0935  33.9568
    34.6681  34.6681

          k = 0.2614 0.0871-0.0871 (   470 PWs)   bands (ev):

     7.6861  10.5898  11.6416  11.8520  12.5712  13.2347  29.4197  33.4676
    33.4711  35.9264

          k = 0.3485 0.1743-0.1743 (   458 PWs)   bands (ev):

     8.7437  11.1150  11.2189  11.7406  13.8226  13.9541  24.1932  32.4283
    32.5894  34.0559

          k =-0.2614-0.4356 0.4356 (   459 PWs)   bands (ev):

     8.8879  10.9542  11.5371  12.4464  14.0894  16.3358  19.6910  31.1209
    32.6567  32.7290

          k =-0.1743-0.3485 0.3485 (   455 PWs)   bands (ev):

     8.9118  11.0368  11.5307  12.3040  13.5955  15.6339  21.1049  30.4664
    32.7491  34.3536

          k =-0.0871-0.2614 0.2614 (   463 PWs)   bands (ev):

     8.5456  10.8896  11.4230  11.7562  12.7011  14.1000  25.9316  30.8046
    34.1770  38.0481

          k = 0.0000-0.1743 0.1743 (   469 PWs)   bands (ev):

     7.2331  10.8094  11.5913  11.6911  12.3963  13.1575  30.5330  31.9494
    35.4343  37.2326

          k = 0.3485 0.0000 0.0000 (   456 PWs)   bands (ev):

     8.3424  10.0756  11.9406  12.5211  12.5211  13.3874  31.1930  31.1930
    32.7500  32.8227

          k = 0.4356 0.0871-0.0871 (   456 PWs)   bands (ev):

     9.1291   9.8896  11.7219  12.6986  13.8825  14.1046  26.3372  29.8493
    30.0317  33.7023

          k =-0.1743-0.5228 0.5228 (   459 PWs)   bands (ev):

     9.3964  10.3422  11.5832  12.4652  14.1573  17.0629  21.5071  27.7376
    29.9348  33.5732

          k =-0.0871-0.4356 0.4356 (   456 PWs)   bands (ev):

     9.6797  10.6246  11.4808  12.2755  13.6405  17.9400  20.9281  26.0704
    31.7110  33.4123

          k = 0.0000-0.3485 0.3485 (   463 PWs)   bands (ev):

     9.7474  10.6780  11.0214  12.1880  12.8128  15.7530  24.6758  26.4117
    33.6954  34.6297

          k = 0.5228 0.0000 0.0000 (   452 PWs)   bands (ev):

     8.9522   9.3711  13.7499  13.7499  13.8251  13.9803  26.0204  27.8632
    27.8632  32.9039

          k =-0.0871-0.6099 0.6099 (   460 PWs)   bands (ev):

     9.0431   9.3985  13.1509  13.5672  14.2565  17.1596  22.6686  25.6681
    27.4790  33.9915

          k = 0.0000-0.5228 0.5228 (   458 PWs)   bands (ev):

     9.4002  10.0406  12.1128  13.1107  13.9410  19.9124  20.7640  23.5328
    29.0125  34.0385

          k =-0.6970 0.0000 0.0000 (   460 PWs)   bands (ev):

     8.7642   9.1004  14.0140  14.4026  14.4026  17.0099  21.7369  26.4439
    26.4439  33.1625

          k = 0.3485 0.1743-0.0000 (   464 PWs)   bands (ev):

     8.8475  10.2911  11.2774  12.5241  12.6052  14.1392  27.5191  29.3327
    32.9723  36.4637

          k =-0.2614-0.4356 0.6099 (   461 PWs)   bands (ev):

     9.5479  10.7235  10.9275  12.3140  13.5537  15.8980  23.1137  28.1945
    30.8705  35.5672

          k =-0.1743-0.3485 0.5228 (   470 PWs)   bands (ev):

     9.5552  10.5375  11.6734  12.1018  13.9231  18.7016  19.1068  28.4080
    29.6359  34.9068

          k =-0.1743-0.5228 0.6970 (   463 PWs)   bands (ev):

     9.4713   9.7378  11.7573  13.4265  13.7405  16.1598  24.4569  26.5190
    28.0159  35.9437

          k =-0.0871-0.4356 0.6099 (   459 PWs)   bands (ev):

     9.7271  10.1852  11.4280  12.8872  14.1144  19.1868  21.2596  24.8934
    27.3828  36.3486

          k = 0.0000-0.3485 0.5228 (   462 PWs)   bands (ev):

    10.1857  10.4809  10.7748  12.6700  13.7439  18.0967  23.2345  23.7001
    28.9160  36.5259

          k =-0.6970 0.1743 0.0000 (   456 PWs)   bands (ev):

     9.2354   9.5173  12.6852  13.4495  14.4036  19.2100  21.2015  25.2342
    25.9126  36.0324

          k =-0.6970 0.3485 0.0000 (   464 PWs)   bands (ev):

     9.9081  10.7475  10.7475  12.6573  14.4046  20.7559  22.4383  22.4383
    25.6090  40.3705

     the Fermi energy is    16.0045 ev

!    total energy              =     -66.87093634 Ry
     estimated scf accuracy    <          1.2E-11 Ry
     smearing contrib. (-TS)   =      -0.00011117 Ry
     internal energy E=F+TS    =     -66.87082518 Ry

     The total energy is F=E-TS. E is the sum of the following terms:
     one-electron contribution =       8.71797486 Ry
     hartree contribution      =       7.21265171 Ry
     xc contribution           =     -10.45727462 Ry
     ewald contribution        =     -72.34417713 Ry

     total magnetization       =     0.00 Bohr mag/cell
     absolute magnetization    =     0.00 Bohr mag/cell

     convergence has been achieved in  14 iterations

     Forces acting on atoms (cartesian axes, Ry/au):

     atom    1 type  1   force =     0.00000000    0.00000000    0.00000000
     The non-local contrib.  to forces
     atom    1 type  1   force =     0.00000000   -0.00000000    0.00000000
     The ionic contribution  to forces
     atom    1 type  1   force =    -0.00000000   -0.00000000   -0.00000000
     The local contribution  to forces
     atom    1 type  1   force =     0.00000000    0.00000000    0.00000000
     The core correction contribution to forces
     atom    1 type  1   force =     0.00000000    0.00000000    0.00000000
     The Hubbard contrib.    to forces
     atom    1 type  1   force =     0.00000000    0.00000000    0.00000000
     The SCF correction term to forces
     atom    1 type  1   force =     0.00000000    0.00000000    0.00000000

     Total force =     0.000000     Total SCF correction =     0.000000


     Computing stress (Cartesian axis) and pressure

          total   stress  (Ry/bohr**3)                   (kbar)     P=       -4.44
  -0.00003015   0.00000000   0.00000000           -4.44        0.00        0.00
   0.00000000  -0.00003015   0.00000000            0.00       -4.44        0.00
   0.00000000   0.00000000  -0.00003015            0.00        0.00       -4.44

     Energy error            =      1.3E-03 Ry
     Gradient error          =      0.0E+00 Ry/Bohr
     Cell gradient error     =      4.4E+00 kbar

     number of scf cycles    =   2
     number of bfgs steps    =   1

     enthalpy           old  =     -66.8696669506 Ry
     enthalpy           new  =     -66.8709363449 Ry

     CASE: enthalpy          _new < enthalpy          _old

     new trust radius        =       0.0015414207 bohr
     new conv_thr            =       0.0000000010 Ry

     new unit-cell volume =    112.49109 a.u.^3 (    16.66946 Ang^3 )
     density =     19.62095 g/cm^3

CELL_PARAMETERS (angstrom)
   0.000000000   2.027513926   2.027513926
   2.027513926   0.000000000   2.027513926
   2.027513926   2.027513926   0.000000000

ATOMIC_POSITIONS (angstrom)
Au            0.0000000000        0.0000000000        0.0000000000



     Writing config-only to output data dir /home/gridsan/epan1/labutil/lab3_samples/problem3/Lab3/Au_a_4.0_ecut_40_nk_8/pwscf.save/
     NEW-OLD atomic charge density approx. for the potential
     extrapolated charge   10.97601, renormalised to   11.00000
     Generating pointlists ...

     total cpu time spent up to now is        6.2 secs

     Self-consistent Calculation

     iteration #  1     ecut=    40.00 Ry     beta= 0.50
     Davidson diagonalization with overlap
     ethr =  1.00E-06,  avg # of iterations =  2.0

     total cpu time spent up to now is        6.5 secs

     total energy              =     -66.87084177 Ry
     estimated scf accuracy    <       0.00008495 Ry

     total magnetization       =     0.00 Bohr mag/cell
     absolute magnetization    =     0.00 Bohr mag/cell

     iteration #  2     ecut=    40.00 Ry     beta= 0.50
     Davidson diagonalization with overlap
     ethr =  7.72E-07,  avg # of iterations =  2.0

     total cpu time spent up to now is        6.8 secs

     total energy              =     -66.87093925 Ry
     estimated scf accuracy    <       0.00009556 Ry

     total magnetization       =     0.00 Bohr mag/cell
     absolute magnetization    =     0.00 Bohr mag/cell

     iteration #  3     ecut=    40.00 Ry     beta= 0.50
     Davidson diagonalization with overlap
     ethr =  7.72E-07,  avg # of iterations =  1.0

     total cpu time spent up to now is        7.0 secs

     total energy              =     -66.87093860 Ry
     estimated scf accuracy    <       0.00001991 Ry

     total magnetization       =     0.00 Bohr mag/cell
     absolute magnetization    =     0.00 Bohr mag/cell

     iteration #  4     ecut=    40.00 Ry     beta= 0.50
     Davidson diagonalization with overlap
     ethr =  1.81E-07,  avg # of iterations =  1.0

     total cpu time spent up to now is        7.2 secs

     total energy              =     -66.87093885 Ry
     estimated scf accuracy    <       0.00000504 Ry

     total magnetization       =     0.00 Bohr mag/cell
     absolute magnetization    =     0.00 Bohr mag/cell

     iteration #  5     ecut=    40.00 Ry     beta= 0.50
     Davidson diagonalization with overlap
     ethr =  4.58E-08,  avg # of iterations =  1.0

     total cpu time spent up to now is        7.4 secs

     total energy              =     -66.87093761 Ry
     estimated scf accuracy    <       0.00000304 Ry

     total magnetization       =     0.00 Bohr mag/cell
     absolute magnetization    =     0.00 Bohr mag/cell

     iteration #  6     ecut=    40.00 Ry     beta= 0.50
     Davidson diagonalization with overlap
     ethr =  2.76E-08,  avg # of iterations =  1.0

     total cpu time spent up to now is        7.6 secs

     total energy              =     -66.87093781 Ry
     estimated scf accuracy    <       0.00000024 Ry

     total magnetization       =     0.00 Bohr mag/cell
     absolute magnetization    =     0.00 Bohr mag/cell

     iteration #  7     ecut=    40.00 Ry     beta= 0.50
     Davidson diagonalization with overlap
     ethr =  2.19E-09,  avg # of iterations =  1.4

     total cpu time spent up to now is        7.8 secs

     total energy              =     -66.87093784 Ry
     estimated scf accuracy    <       0.00000002 Ry

     total magnetization       =     0.00 Bohr mag/cell
     absolute magnetization    =     0.00 Bohr mag/cell

     iteration #  8     ecut=    40.00 Ry     beta= 0.50
     Davidson diagonalization with overlap
     ethr =  1.43E-10,  avg # of iterations =  1.1

     Magnetic moment per site  (integrated on atomic sphere of radius R)
     atom   1 (R=0.413)  charge=  9.2461  magn=  0.0000

     total cpu time spent up to now is        8.5 secs

     End of self-consistent calculation

 ------ SPIN UP ------------


          k = 0.0000 0.0000 0.0000 (   459 PWs)   bands (ev):

     5.8667  11.2725  11.2725  11.2725  12.8530  12.8530  32.4718  36.0777
    36.0777  36.0777

          k = 0.0872 0.0872-0.0872 (   471 PWs)   bands (ev):

     6.4150  11.1166  11.4459  11.4459  12.7944  12.7944  32.2854  33.3561
    36.4169  36.4169

          k = 0.1744 0.1744-0.1744 (   477 PWs)   bands (ev):

     7.7276  11.1265  11.5649  11.5649  13.0339  13.0339  27.4715  33.2395
    36.4441  36.4441

          k = 0.2616 0.2616-0.2616 (   465 PWs)   bands (ev):

     8.4757  11.3515  11.3515  12.7834  13.7401  13.7401  22.4060  32.0833
    34.9741  34.9741

          k =-0.3488-0.3488 0.3488 (   464 PWs)   bands (ev):

     8.5273  11.2304  11.2304  14.1133  14.1133  15.0099  19.1650  31.5574
    34.1327  34.1327

          k = 0.1744 0.0000 0.0000 (   471 PWs)   bands (ev):

     6.6017  10.9080  11.6136  11.6136  12.4684  13.0190  33.1539  34.0231
    34.7415  34.7415

          k = 0.2616 0.0872-0.0872 (   470 PWs)   bands (ev):

     7.7171  10.6263  11.6819  11.8933  12.6150  13.2813  29.4886  33.5318
    33.5457  35.9985

          k = 0.3488 0.1744-0.1744 (   458 PWs)   bands (ev):

     8.7757  11.1527  11.2577  11.7814  13.8715  14.0019  24.2581  32.4897
    32.6629  34.1335

          k =-0.2616-0.4359 0.4359 (   459 PWs)   bands (ev):

     8.9197  10.9919  11.5771  12.4881  14.1394  16.3860  19.7525  31.1860
    32.7294  32.7967

          k =-0.1744-0.3488 0.3488 (   455 PWs)   bands (ev):

     8.9437  11.0749  11.5706  12.3448  13.6434  15.6854  21.1671  30.5349
    32.8117  34.4299

          k =-0.0872-0.2616 0.2616 (   463 PWs)   bands (ev):

     8.5778  10.9270  11.4623  11.7971  12.7455  14.1495  25.9981  30.8752
    34.2416  37.5582

          k = 0.0000-0.1744 0.1744 (   469 PWs)   bands (ev):

     7.2634  10.8467  11.6315  11.7318  12.4396  13.2038  30.6007  32.0196
    35.5000  37.3046

          k = 0.3488 0.0000 0.0000 (   456 PWs)   bands (ev):

     8.3743  10.1103  11.9817  12.5648  12.5648  13.4347  31.2640  31.2640
    32.8295  32.8906

          k = 0.4359 0.0872-0.0872 (   456 PWs)   bands (ev):

     9.1616   9.9236  11.7621  12.7429  13.9317  14.1527  26.4037  29.9178
    30.1033  33.7746

          k =-0.1744-0.5231 0.5231 (   459 PWs)   bands (ev):

     9.4291  10.3773  11.6228  12.5086  14.2075  17.1175  21.5668  27.8069
    30.0033  33.6433

          k =-0.0872-0.4359 0.4359 (   456 PWs)   bands (ev):

     9.7134  10.6606  11.5197  12.3182  13.6886  17.9960  20.9888  26.1372
    31.7836  33.4794

          k = 0.0000-0.3488 0.3488 (   463 PWs)   bands (ev):

     9.7819  10.7146  11.0588  12.2303  12.8576  15.8067  24.7405  26.4797
    33.7604  34.7083

          k = 0.5231 0.0000 0.0000 (   452 PWs)   bands (ev):

     8.9834   9.4034  13.7983  13.7983  13.8741  14.0246  26.0916  27.9271
    27.9271  32.9756

          k =-0.0872-0.6103 0.6103 (   460 PWs)   bands (ev):

     9.0743   9.4309  13.1957  13.6150  14.3071  17.2118  22.7331  25.7316
    27.5420  34.0662

          k = 0.0000-0.5231 0.5231 (   458 PWs)   bands (ev):

     9.4326  10.0748  12.1540  13.1566  13.9903  19.9720  20.8215  23.5972
    29.0794  34.1117

          k =-0.6975 0.0000 0.0000 (   460 PWs)   bands (ev):

     8.7944   9.1318  14.0637  14.4538  14.4538  17.0554  21.8056  26.5040
    26.5040  33.2365

          k = 0.3488 0.1744-0.0000 (   464 PWs)   bands (ev):

     8.8804  10.3265  11.3163  12.5677  12.6490  14.1888  27.5867  29.4034
    33.0418  36.5329

          k =-0.2616-0.4359 0.6103 (   461 PWs)   bands (ev):

     9.5815  10.7600  10.9651  12.3566  13.6013  15.9512  23.1767  28.2634
    30.9395  35.6385

          k =-0.1744-0.3488 0.5231 (   470 PWs)   bands (ev):

     9.5886  10.5735  11.7128  12.1438  13.9723  18.7550  19.1683  28.4781
    29.7031  34.9751

          k =-0.1744-0.5231 0.6975 (   463 PWs)   bands (ev):

     9.5040   9.7713  11.7975  13.4733  13.7888  16.2128  24.5216  26.5837
    28.0837  36.0190

          k =-0.0872-0.4359 0.6103 (   459 PWs)   bands (ev):

     9.7604  10.2199  11.4670  12.9321  14.1644  19.2458  21.3181  24.9588
    27.4490  36.4226

          k = 0.0000-0.3488 0.5231 (   462 PWs)   bands (ev):

    10.2205  10.5166  10.8117  12.7140  13.7923  18.1535  23.2981  23.7629
    28.9848  36.5983

          k =-0.6975 0.1744 0.0000 (   456 PWs)   bands (ev):

     9.2670   9.5501  12.7285  13.4967  14.4548  19.2634  21.2672  25.2953
    25.9761  36.1092

          k =-0.6975 0.3488 0.0000 (   464 PWs)   bands (ev):

     9.9417  10.7843  10.7843  12.7013  14.4558  20.8197  22.4976  22.4976
    25.6746  40.4471

 ------ SPIN DOWN ----------


          k = 0.0000 0.0000 0.0000 (   459 PWs)   bands (ev):

     5.8667  11.2725  11.2725  11.2725  12.8530  12.8530  32.4718  36.0777
    36.0777  36.0777

          k = 0.0872 0.0872-0.0872 (   471 PWs)   bands (ev):

     6.4150  11.1166  11.4459  11.4459  12.7944  12.7944  32.2854  33.3561
    36.4169  36.4169

          k = 0.1744 0.1744-0.1744 (   477 PWs)   bands (ev):

     7.7276  11.1265  11.5649  11.5649  13.0339  13.0339  27.4715  33.2395
    36.4441  36.4441

          k = 0.2616 0.2616-0.2616 (   465 PWs)   bands (ev):

     8.4757  11.3515  11.3515  12.7834  13.7401  13.7401  22.4060  32.0833
    34.9741  34.9741

          k =-0.3488-0.3488 0.3488 (   464 PWs)   bands (ev):

     8.5273  11.2304  11.2304  14.1133  14.1133  15.0099  19.1650  31.5574
    34.1327  34.1327

          k = 0.1744 0.0000 0.0000 (   471 PWs)   bands (ev):

     6.6017  10.9080  11.6136  11.6136  12.4684  13.0190  33.1539  34.0231
    34.7415  34.7415

          k = 0.2616 0.0872-0.0872 (   470 PWs)   bands (ev):

     7.7171  10.6263  11.6819  11.8933  12.6150  13.2813  29.4886  33.5318
    33.5457  35.9985

          k = 0.3488 0.1744-0.1744 (   458 PWs)   bands (ev):

     8.7757  11.1527  11.2577  11.7814  13.8715  14.0019  24.2581  32.4897
    32.6629  34.1335

          k =-0.2616-0.4359 0.4359 (   459 PWs)   bands (ev):

     8.9197  10.9919  11.5771  12.4881  14.1394  16.3860  19.7525  31.1860
    32.7294  32.7967

          k =-0.1744-0.3488 0.3488 (   455 PWs)   bands (ev):

     8.9437  11.0749  11.5706  12.3448  13.6434  15.6854  21.1671  30.5349
    32.8117  34.4299

          k =-0.0872-0.2616 0.2616 (   463 PWs)   bands (ev):

     8.5778  10.9270  11.4623  11.7971  12.7455  14.1495  25.9981  30.8752
    34.2416  38.1177

          k = 0.0000-0.1744 0.1744 (   469 PWs)   bands (ev):

     7.2634  10.8467  11.6315  11.7318  12.4396  13.2038  30.6007  32.0196
    35.5000  37.3046

          k = 0.3488 0.0000 0.0000 (   456 PWs)   bands (ev):

     8.3743  10.1103  11.9817  12.5648  12.5648  13.4347  31.2640  31.2640
    32.8295  32.8906

          k = 0.4359 0.0872-0.0872 (   456 PWs)   bands (ev):

     9.1616   9.9236  11.7621  12.7429  13.9317  14.1527  26.4037  29.9178
    30.1033  33.7746

          k =-0.1744-0.5231 0.5231 (   459 PWs)   bands (ev):

     9.4291  10.3773  11.6228  12.5086  14.2075  17.1175  21.5668  27.8069
    30.0033  33.6433

          k =-0.0872-0.4359 0.4359 (   456 PWs)   bands (ev):

     9.7134  10.6606  11.5197  12.3182  13.6886  17.9960  20.9888  26.1372
    31.7836  33.4794

          k = 0.0000-0.3488 0.3488 (   463 PWs)   bands (ev):

     9.7819  10.7146  11.0588  12.2303  12.8576  15.8067  24.7405  26.4797
    33.7604  34.7083

          k = 0.5231 0.0000 0.0000 (   452 PWs)   bands (ev):

     8.9834   9.4034  13.7983  13.7983  13.8741  14.0246  26.0916  27.9271
    27.9271  32.9756

          k =-0.0872-0.6103 0.6103 (   460 PWs)   bands (ev):

     9.0743   9.4309  13.1957  13.6150  14.3071  17.2118  22.7331  25.7316
    27.5420  34.0662

          k = 0.0000-0.5231 0.5231 (   458 PWs)   bands (ev):

     9.4326  10.0748  12.1540  13.1566  13.9903  19.9720  20.8215  23.5972
    29.0794  34.1117

          k =-0.6975 0.0000 0.0000 (   460 PWs)   bands (ev):

     8.7944   9.1318  14.0637  14.4538  14.4538  17.0553  21.8056  26.5040
    26.5040  33.2365

          k = 0.3488 0.1744-0.0000 (   464 PWs)   bands (ev):

     8.8804  10.3265  11.3163  12.5677  12.6490  14.1888  27.5867  29.4034
    33.0418  36.5329

          k =-0.2616-0.4359 0.6103 (   461 PWs)   bands (ev):

     9.5815  10.7600  10.9651  12.3566  13.6013  15.9512  23.1767  28.2634
    30.9395  35.6385

          k =-0.1744-0.3488 0.5231 (   470 PWs)   bands (ev):

     9.5886  10.5735  11.7128  12.1438  13.9723  18.7550  19.1683  28.4781
    29.7031  34.9751

          k =-0.1744-0.5231 0.6975 (   463 PWs)   bands (ev):

     9.5040   9.7713  11.7975  13.4733  13.7888  16.2128  24.5216  26.5837
    28.0837  36.0190

          k =-0.0872-0.4359 0.6103 (   459 PWs)   bands (ev):

     9.7604  10.2199  11.4670  12.9321  14.1644  19.2458  21.3181  24.9588
    27.4490  36.4226

          k = 0.0000-0.3488 0.5231 (   462 PWs)   bands (ev):

    10.2205  10.5166  10.8117  12.7140  13.7923  18.1535  23.2981  23.7629
    28.9848  36.5983

          k =-0.6975 0.1744 0.0000 (   456 PWs)   bands (ev):

     9.2670   9.5501  12.7285  13.4967  14.4548  19.2634  21.2672  25.2953
    25.9761  36.1092

          k =-0.6975 0.3488 0.0000 (   464 PWs)   bands (ev):

     9.9417  10.7843  10.7843  12.7013  14.4558  20.8197  22.4976  22.4976
    25.6746  40.4471

     the Fermi energy is    16.0577 ev

!    total energy              =     -66.87093784 Ry
     estimated scf accuracy    <          8.4E-10 Ry
     smearing contrib. (-TS)   =      -0.00011256 Ry
     internal energy E=F+TS    =     -66.87082528 Ry

     The total energy is F=E-TS. E is the sum of the following terms:
     one-electron contribution =       8.79161264 Ry
     hartree contribution      =       7.19342700 Ry
     xc contribution           =     -10.45913714 Ry
     ewald contribution        =     -72.39672777 Ry

     total magnetization       =     0.00 Bohr mag/cell
     absolute magnetization    =     0.00 Bohr mag/cell

     convergence has been achieved in   8 iterations

     Forces acting on atoms (cartesian axes, Ry/au):

     atom    1 type  1   force =     0.00000000    0.00000000    0.00000000
     The non-local contrib.  to forces
     atom    1 type  1   force =     0.00000000    0.00000000    0.00000000
     The ionic contribution  to forces
     atom    1 type  1   force =    -0.00000000   -0.00000000   -0.00000000
     The local contribution  to forces
     atom    1 type  1   force =     0.00000000    0.00000000    0.00000000
     The core correction contribution to forces
     atom    1 type  1   force =     0.00000000    0.00000000    0.00000000
     The Hubbard contrib.    to forces
     atom    1 type  1   force =     0.00000000    0.00000000    0.00000000
     The SCF correction term to forces
     atom    1 type  1   force =     0.00000000    0.00000000    0.00000000

     Total force =     0.000000     Total SCF correction =     0.000000


     Computing stress (Cartesian axis) and pressure

          total   stress  (Ry/bohr**3)                   (kbar)     P=       -0.60
  -0.00000407   0.00000000   0.00000000           -0.60        0.00        0.00
   0.00000000  -0.00000407   0.00000000            0.00       -0.60        0.00
   0.00000000   0.00000000  -0.00000407            0.00        0.00       -0.60

     Energy error            =      1.5E-06 Ry
     Gradient error          =      0.0E+00 Ry/Bohr
     Cell gradient error     =      6.0E-01 kbar

     number of scf cycles    =   3
     number of bfgs steps    =   2

     enthalpy           old  =     -66.8709363449 Ry
     enthalpy           new  =     -66.8709378363 Ry

     CASE: enthalpy          _new < enthalpy          _old

     new trust radius        =       0.0002397728 bohr
     new conv_thr            =       0.0000000010 Ry

     new unit-cell volume =    112.45295 a.u.^3 (    16.66381 Ang^3 )
     density =     19.62761 g/cm^3

CELL_PARAMETERS (angstrom)
   0.000000000   2.027284747   2.027284747
   2.027284747   0.000000000   2.027284747
   2.027284747   2.027284747   0.000000000

ATOMIC_POSITIONS (angstrom)
Au            0.0000000000        0.0000000000        0.0000000000



     Writing config-only to output data dir /home/gridsan/epan1/labutil/lab3_samples/problem3/Lab3/Au_a_4.0_ecut_40_nk_8/pwscf.save/
     NEW-OLD atomic charge density approx. for the potential
     extrapolated charge   10.99627, renormalised to   11.00000
     Generating pointlists ...

     total cpu time spent up to now is        9.0 secs

     Self-consistent Calculation

     iteration #  1     ecut=    40.00 Ry     beta= 0.50
     Davidson diagonalization with overlap
     ethr =  1.00E-06,  avg # of iterations =  2.0

     Threshold (ethr) on eigenvalues was too large:
     Diagonalizing with lowered threshold

     Davidson diagonalization with overlap
     ethr =  1.96E-08,  avg # of iterations =  1.0

     total cpu time spent up to now is        9.6 secs

     total energy              =     -66.87093546 Ry
     estimated scf accuracy    <       0.00000216 Ry

     total magnetization       =     0.00 Bohr mag/cell
     absolute magnetization    =     0.00 Bohr mag/cell

     iteration #  2     ecut=    40.00 Ry     beta= 0.50
     Davidson diagonalization with overlap
     ethr =  1.96E-08,  avg # of iterations =  2.0

     total cpu time spent up to now is        9.9 secs

     total energy              =     -66.87093787 Ry
     estimated scf accuracy    <       0.00000234 Ry

     total magnetization       =     0.00 Bohr mag/cell
     absolute magnetization    =     0.00 Bohr mag/cell

     iteration #  3     ecut=    40.00 Ry     beta= 0.50
     Davidson diagonalization with overlap
     ethr =  1.96E-08,  avg # of iterations =  1.0

     total cpu time spent up to now is       10.1 secs

     total energy              =     -66.87093786 Ry
     estimated scf accuracy    <       0.00000048 Ry

     total magnetization       =     0.00 Bohr mag/cell
     absolute magnetization    =     0.00 Bohr mag/cell

     iteration #  4     ecut=    40.00 Ry     beta= 0.50
     Davidson diagonalization with overlap
     ethr =  4.32E-09,  avg # of iterations =  1.2

     total cpu time spent up to now is       10.3 secs

     total energy              =     -66.87093787 Ry
     estimated scf accuracy    <       0.00000011 Ry

     total magnetization       =     0.00 Bohr mag/cell
     absolute magnetization    =     0.00 Bohr mag/cell

     iteration #  5     ecut=    40.00 Ry     beta= 0.50
     Davidson diagonalization with overlap
     ethr =  1.02E-09,  avg # of iterations =  1.0

     total cpu time spent up to now is       10.5 secs

     total energy              =     -66.87093784 Ry
     estimated scf accuracy    <       0.00000008 Ry

     total magnetization       =     0.00 Bohr mag/cell
     absolute magnetization    =     0.00 Bohr mag/cell

     iteration #  6     ecut=    40.00 Ry     beta= 0.50
     Davidson diagonalization with overlap
     ethr =  6.89E-10,  avg # of iterations =  1.1

     total cpu time spent up to now is       10.8 secs

     total energy              =     -66.87093784 Ry
     estimated scf accuracy    <          3.3E-09 Ry

     total magnetization       =    -0.00 Bohr mag/cell
     absolute magnetization    =     0.00 Bohr mag/cell

     iteration #  7     ecut=    40.00 Ry     beta= 0.50
     Davidson diagonalization with overlap
     ethr =  2.98E-11,  avg # of iterations =  1.0

     Magnetic moment per site  (integrated on atomic sphere of radius R)
     atom   1 (R=0.413)  charge=  9.2465  magn= -0.0000

     total cpu time spent up to now is       11.0 secs

     End of self-consistent calculation

 ------ SPIN UP ------------


          k = 0.0000 0.0000 0.0000 (   459 PWs)   bands (ev):

     5.8710  11.2786  11.2786  11.2786  12.8600  12.8600  32.4805  36.0885
    36.0885  36.0885

          k = 0.0872 0.0872-0.0872 (   471 PWs)   bands (ev):

     6.4195  11.1225  11.4521  11.4521  12.8014  12.8014  32.2957  33.3655
    36.4282  36.4282

          k = 0.1744 0.1744-0.1744 (   477 PWs)   bands (ev):

     7.7324  11.1324  11.5712  11.5712  13.0410  13.0410  27.4820  33.2488
    36.4565  36.4565

          k = 0.2616 0.2616-0.2616 (   465 PWs)   bands (ev):

     8.4806  11.3576  11.3576  12.7898  13.7476  13.7476  22.4159  32.0921
    34.9861  34.9861

          k =-0.3488-0.3488 0.3488 (   464 PWs)   bands (ev):

     8.5321  11.2365  11.2365  14.1210  14.1210  15.0163  19.1748  31.5660
    34.1442  34.1442

          k = 0.1744 0.0000 0.0000 (   471 PWs)   bands (ev):

     6.6063  10.9138  11.6198  11.6198  12.4752  13.0261  33.1633  34.0334
    34.7530  34.7530

          k = 0.2616 0.0872-0.0872 (   470 PWs)   bands (ev):

     7.7219  10.6319  11.6882  11.8997  12.6218  13.2886  29.4993  33.5418
    33.5573  36.0097

          k = 0.3488 0.1744-0.1744 (   458 PWs)   bands (ev):

     8.7807  11.1585  11.2638  11.7878  13.8791  14.0093  24.2682  32.4993
    32.6744  34.1455

          k =-0.2616-0.4360 0.4360 (   459 PWs)   bands (ev):

     8.9246  10.9977  11.5833  12.4946  14.1472  16.3938  19.7620  31.1962
    32.7408  32.8073

          k =-0.1744-0.3488 0.3488 (   455 PWs)   bands (ev):

     8.9487  11.0808  11.5768  12.3512  13.6508  15.6934  21.1767  30.5456
    32.8214  34.4418

          k =-0.0872-0.2616 0.2616 (   463 PWs)   bands (ev):

     8.5828  10.9328  11.4684  11.8034  12.7524  14.1571  26.0085  30.8862
    34.2517  37.5712

          k = 0.0000-0.1744 0.1744 (   469 PWs)   bands (ev):

     7.2681  10.8525  11.6378  11.7381  12.4463  13.2110  30.6112  32.0305
    35.5103  37.3159

          k = 0.3488 0.0000 0.0000 (   456 PWs)   bands (ev):

     8.3792  10.1157  11.9881  12.5716  12.5716  13.4421  31.2750  31.2750
    32.8417  32.9013

          k = 0.4360 0.0872-0.0872 (   456 PWs)   bands (ev):

     9.1666   9.9289  11.7684  12.7498  13.9393  14.1602  26.4140  29.9285
    30.1145  33.7858

          k =-0.1744-0.5232 0.5232 (   459 PWs)   bands (ev):

     9.4342  10.3828  11.6290  12.5153  14.2153  17.1260  21.5761  27.8176
    30.0139  33.6542

          k =-0.0872-0.4360 0.4360 (   456 PWs)   bands (ev):

     9.7187  10.6662  11.5258  12.3248  13.6961  18.0048  20.9982  26.1476
    31.7949  33.4899

          k = 0.0000-0.3488 0.3488 (   463 PWs)   bands (ev):

     9.7872  10.7203  11.0646  12.2369  12.8646  15.8150  24.7506  26.4903
    33.7705  34.7206

          k = 0.5232 0.0000 0.0000 (   452 PWs)   bands (ev):

     8.9883   9.4084  13.8058  13.8058  13.8817  14.0314  26.1026  27.9371
    27.9371  32.9867

          k =-0.0872-0.6104 0.6104 (   460 PWs)   bands (ev):

     9.0791   9.4359  13.2026  13.6224  14.3150  17.2199  22.7432  25.7415
    27.5518  34.0778

          k = 0.0000-0.5232 0.5232 (   458 PWs)   bands (ev):

     9.4376  10.0801  12.1604  13.1637  13.9979  19.9813  20.8305  23.6073
    29.0898  34.1231

          k =-0.6976 0.0000 0.0000 (   460 PWs)   bands (ev):

     8.7991   9.1367  14.0715  14.4618  14.4618  17.0624  21.8163  26.5133
    26.5133  33.2480

          k = 0.3488 0.1744-0.0000 (   464 PWs)   bands (ev):

     8.8855  10.3320  11.3224  12.5745  12.6558  14.1965  27.5972  29.4145
    33.0526  36.5437

          k =-0.2616-0.4360 0.6104 (   461 PWs)   bands (ev):

     9.5867  10.7657  10.9709  12.3633  13.6087  15.9595  23.1865  28.2741
    30.9502  35.6496

          k =-0.1744-0.3488 0.5232 (   470 PWs)   bands (ev):

     9.5939  10.5791  11.7190  12.1503  13.9800  18.7634  19.1778  28.4890
    29.7135  34.9857

          k =-0.1744-0.5232 0.6976 (   463 PWs)   bands (ev):

     9.5090   9.7765  11.8038  13.4806  13.7964  16.2210  24.5316  26.5938
    28.0943  36.0307

          k =-0.0872-0.4360 0.6104 (   459 PWs)   bands (ev):

     9.7656  10.2253  11.4731  12.9390  14.1721  19.2550  21.3272  24.9690
    27.4593  36.4341

          k = 0.0000-0.3488 0.5232 (   462 PWs)   bands (ev):

    10.2260  10.5222  10.8175  12.7208  13.7999  18.1624  23.3081  23.7726
    28.9956  36.6096

          k =-0.6976 0.1744 0.0000 (   456 PWs)   bands (ev):

     9.2719   9.5552  12.7352  13.5040  14.4628  19.2717  21.2774  25.3048
    25.9860  36.1212

          k =-0.6976 0.3488 0.0000 (   464 PWs)   bands (ev):

     9.9469  10.7900  10.7900  12.7081  14.4638  20.8297  22.5069  22.5069
    25.6848  40.4591

 ------ SPIN DOWN ----------


          k = 0.0000 0.0000 0.0000 (   459 PWs)   bands (ev):

     5.8710  11.2786  11.2786  11.2786  12.8600  12.8600  32.4805  36.0885
    36.0885  36.0885

          k = 0.0872 0.0872-0.0872 (   471 PWs)   bands (ev):

     6.4195  11.1225  11.4521  11.4521  12.8014  12.8014  32.2957  33.3655
    36.4282  36.4282

          k = 0.1744 0.1744-0.1744 (   477 PWs)   bands (ev):

     7.7324  11.1324  11.5712  11.5712  13.0410  13.0410  27.4820  33.2488
    36.4565  36.4565

          k = 0.2616 0.2616-0.2616 (   465 PWs)   bands (ev):

     8.4806  11.3576  11.3576  12.7898  13.7476  13.7476  22.4159  32.0921
    34.9861  34.9861

          k =-0.3488-0.3488 0.3488 (   464 PWs)   bands (ev):

     8.5321  11.2365  11.2365  14.1210  14.1210  15.0163  19.1748  31.5660
    34.1442  34.1442

          k = 0.1744 0.0000 0.0000 (   471 PWs)   bands (ev):

     6.6063  10.9138  11.6198  11.6198  12.4752  13.0261  33.1633  34.0334
    34.7530  34.7530

          k = 0.2616 0.0872-0.0872 (   470 PWs)   bands (ev):

     7.7219  10.6319  11.6882  11.8997  12.6218  13.2886  29.4993  33.5418
    33.5573  36.0097

          k = 0.3488 0.1744-0.1744 (   458 PWs)   bands (ev):

     8.7807  11.1585  11.2638  11.7878  13.8791  14.0093  24.2682  32.4993
    32.6744  34.1455

          k =-0.2616-0.4360 0.4360 (   459 PWs)   bands (ev):

     8.9246  10.9977  11.5833  12.4946  14.1472  16.3938  19.7620  31.1962
    32.7408  32.8073

          k =-0.1744-0.3488 0.3488 (   455 PWs)   bands (ev):

     8.9487  11.0808  11.5768  12.3512  13.6508  15.6934  21.1767  30.5456
    32.8214  34.4418

          k =-0.0872-0.2616 0.2616 (   463 PWs)   bands (ev):

     8.5828  10.9328  11.4684  11.8034  12.7524  14.1571  26.0085  30.8862
    34.2517  37.5712

          k = 0.0000-0.1744 0.1744 (   469 PWs)   bands (ev):

     7.2681  10.8525  11.6378  11.7381  12.4463  13.2110  30.6112  32.0305
    35.5103  37.3159

          k = 0.3488 0.0000 0.0000 (   456 PWs)   bands (ev):

     8.3792  10.1157  11.9881  12.5716  12.5716  13.4421  31.2750  31.2750
    32.8417  32.9013

          k = 0.4360 0.0872-0.0872 (   456 PWs)   bands (ev):

     9.1666   9.9289  11.7684  12.7498  13.9393  14.1602  26.4140  29.9285
    30.1145  33.7858

          k =-0.1744-0.5232 0.5232 (   459 PWs)   bands (ev):

     9.4342  10.3828  11.6290  12.5153  14.2153  17.1260  21.5761  27.8176
    30.0139  33.6542

          k =-0.0872-0.4360 0.4360 (   456 PWs)   bands (ev):

     9.7187  10.6662  11.5258  12.3248  13.6961  18.0048  20.9982  26.1476
    31.7949  33.4899

          k = 0.0000-0.3488 0.3488 (   463 PWs)   bands (ev):

     9.7872  10.7203  11.0646  12.2369  12.8646  15.8150  24.7506  26.4903
    33.7705  34.7206

          k = 0.5232 0.0000 0.0000 (   452 PWs)   bands (ev):

     8.9883   9.4084  13.8058  13.8058  13.8817  14.0314  26.1026  27.9371
    27.9371  32.9867

          k =-0.0872-0.6104 0.6104 (   460 PWs)   bands (ev):

     9.0791   9.4359  13.2026  13.6224  14.3150  17.2199  22.7432  25.7415
    27.5518  34.0778

          k = 0.0000-0.5232 0.5232 (   458 PWs)   bands (ev):

     9.4376  10.0801  12.1604  13.1637  13.9979  19.9813  20.8305  23.6073
    29.0898  34.1231

          k =-0.6976 0.0000 0.0000 (   460 PWs)   bands (ev):

     8.7991   9.1367  14.0715  14.4618  14.4618  17.0624  21.8163  26.5133
    26.5133  33.2480

          k = 0.3488 0.1744-0.0000 (   464 PWs)   bands (ev):

     8.8855  10.3320  11.3224  12.5745  12.6558  14.1965  27.5972  29.4145
    33.0526  36.5437

          k =-0.2616-0.4360 0.6104 (   461 PWs)   bands (ev):

     9.5867  10.7657  10.9709  12.3633  13.6087  15.9595  23.1865  28.2741
    30.9502  35.6496

          k =-0.1744-0.3488 0.5232 (   470 PWs)   bands (ev):

     9.5939  10.5791  11.7190  12.1503  13.9800  18.7634  19.1778  28.4890
    29.7135  34.9857

          k =-0.1744-0.5232 0.6976 (   463 PWs)   bands (ev):

     9.5090   9.7765  11.8038  13.4806  13.7964  16.2210  24.5316  26.5938
    28.0943  36.0307

          k =-0.0872-0.4360 0.6104 (   459 PWs)   bands (ev):

     9.7656  10.2253  11.4731  12.9390  14.1721  19.2550  21.3272  24.9690
    27.4593  36.4341

          k = 0.0000-0.3488 0.5232 (   462 PWs)   bands (ev):

    10.2260  10.5222  10.8175  12.7208  13.7999  18.1624  23.3081  23.7726
    28.9956  36.6096

          k =-0.6976 0.1744 0.0000 (   456 PWs)   bands (ev):

     9.2719   9.5552  12.7352  13.5040  14.4628  19.2717  21.2774  25.3048
    25.9860  36.1212

          k =-0.6976 0.3488 0.0000 (   464 PWs)   bands (ev):

     9.9469  10.7900  10.7900  12.7081  14.4638  20.8297  22.5069  22.5069
    25.6848  40.4591

     the Fermi energy is    16.0660 ev

!    total energy              =     -66.87093784 Ry
     estimated scf accuracy    <          8.9E-10 Ry
     smearing contrib. (-TS)   =      -0.00011278 Ry
     internal energy E=F+TS    =     -66.87082506 Ry

     The total energy is F=E-TS. E is the sum of the following terms:
     one-electron contribution =       8.80307326 Ry
     hartree contribution      =       7.19044382 Ry
     xc contribution           =     -10.45943011 Ry
     ewald contribution        =     -72.40491202 Ry

     total magnetization       =    -0.00 Bohr mag/cell
     absolute magnetization    =     0.00 Bohr mag/cell

     convergence has been achieved in   7 iterations

     Forces acting on atoms (cartesian axes, Ry/au):

     atom    1 type  1   force =     0.00000000    0.00000000    0.00000000
     The non-local contrib.  to forces
     atom    1 type  1   force =     0.00000000    0.00000000    0.00000000
     The ionic contribution  to forces
     atom    1 type  1   force =    -0.00000000   -0.00000000   -0.00000000
     The local contribution  to forces
     atom    1 type  1   force =     0.00000000    0.00000000    0.00000000
     The core correction contribution to forces
     atom    1 type  1   force =     0.00000000    0.00000000    0.00000000
     The Hubbard contrib.    to forces
     atom    1 type  1   force =     0.00000000    0.00000000    0.00000000
     The SCF correction term to forces
     atom    1 type  1   force =     0.00000000    0.00000000    0.00000000

     Total force =     0.000000     Total SCF correction =     0.000000


     Computing stress (Cartesian axis) and pressure

          total   stress  (Ry/bohr**3)                   (kbar)     P=        0.03
   0.00000018  -0.00000000   0.00000000            0.03       -0.00        0.00
  -0.00000000   0.00000018  -0.00000000           -0.00        0.03       -0.00
  -0.00000000  -0.00000000   0.00000018           -0.00       -0.00        0.03

     Energy error            =      7.8E-09 Ry
     Gradient error          =      0.0E+00 Ry/Bohr
     Cell gradient error     =      2.7E-02 kbar
Begin final coordinates
     new unit-cell volume =    112.45295 a.u.^3 (    16.66381 Ang^3 )
     density =     19.62761 g/cm^3

CELL_PARAMETERS (angstrom)
   0.000000000   2.027284747   2.027284747
   2.027284747   0.000000000   2.027284747
   2.027284747   2.027284747   0.000000000

ATOMIC_POSITIONS (angstrom)
Au            0.0000000000        0.0000000000        0.0000000000
End final coordinates



     Writing config-only to output data dir /home/gridsan/epan1/labutil/lab3_samples/problem3/Lab3/Au_a_4.0_ecut_40_nk_8/pwscf.save/

     lsda relaxation :  a final configuration with zero
                        absolute magnetization has been found

     the program is checking if it is really the minimum energy structure
     by performing a new scf iteration without any "electronic" history

     Initial potential from superposition of free atoms

     starting charge      10.9999, renormalised to      11.0000

     total cpu time spent up to now is       11.2 secs

     Self-consistent Calculation

     iteration #  1     ecut=    40.00 Ry     beta= 0.50
     Davidson diagonalization with overlap
     ethr =  1.00E-06,  avg # of iterations =  3.6

     total cpu time spent up to now is       11.6 secs

     total energy              =     -66.50598796 Ry
     estimated scf accuracy    <       0.46651953 Ry

     total magnetization       =     1.18 Bohr mag/cell
     absolute magnetization    =     1.28 Bohr mag/cell

     iteration #  2     ecut=    40.00 Ry     beta= 0.50
     Davidson diagonalization with overlap
     ethr =  4.24E-03,  avg # of iterations =  1.5

     total cpu time spent up to now is       11.8 secs

     total energy              =     -66.77397131 Ry
     estimated scf accuracy    <       0.14774086 Ry

     total magnetization       =     0.35 Bohr mag/cell
     absolute magnetization    =     0.52 Bohr mag/cell

     iteration #  3     ecut=    40.00 Ry     beta= 0.50
     Davidson diagonalization with overlap
     ethr =  1.34E-03,  avg # of iterations =  1.0

     total cpu time spent up to now is       12.0 secs

     total energy              =     -66.85779966 Ry
     estimated scf accuracy    <       0.04262053 Ry

     total magnetization       =     0.30 Bohr mag/cell
     absolute magnetization    =     0.39 Bohr mag/cell

     iteration #  4     ecut=    40.00 Ry     beta= 0.50
     Davidson diagonalization with overlap
     ethr =  3.87E-04,  avg # of iterations =  1.5

     total cpu time spent up to now is       12.3 secs

     total energy              =     -66.87015174 Ry
     estimated scf accuracy    <       0.00162210 Ry

     total magnetization       =     0.01 Bohr mag/cell
     absolute magnetization    =     0.06 Bohr mag/cell

     iteration #  5     ecut=    40.00 Ry     beta= 0.50
     Davidson diagonalization with overlap
     ethr =  1.47E-05,  avg # of iterations =  1.6

     total cpu time spent up to now is       12.7 secs

     total energy              =     -66.87086831 Ry
     estimated scf accuracy    <       0.00014766 Ry

     total magnetization       =    -0.02 Bohr mag/cell
     absolute magnetization    =     0.02 Bohr mag/cell

     iteration #  6     ecut=    40.00 Ry     beta= 0.50
     Davidson diagonalization with overlap
     ethr =  1.34E-06,  avg # of iterations =  1.6

     total cpu time spent up to now is       12.9 secs

     total energy              =     -66.87093023 Ry
     estimated scf accuracy    <       0.00001658 Ry

     total magnetization       =     0.01 Bohr mag/cell
     absolute magnetization    =     0.01 Bohr mag/cell

     iteration #  7     ecut=    40.00 Ry     beta= 0.50
     Davidson diagonalization with overlap
     ethr =  1.51E-07,  avg # of iterations =  1.5

     total cpu time spent up to now is       13.2 secs

     total energy              =     -66.87093720 Ry
     estimated scf accuracy    <       0.00000265 Ry

     total magnetization       =     0.00 Bohr mag/cell
     absolute magnetization    =     0.00 Bohr mag/cell

     iteration #  8     ecut=    40.00 Ry     beta= 0.50
     Davidson diagonalization with overlap
     ethr =  2.41E-08,  avg # of iterations =  1.5

     total cpu time spent up to now is       13.4 secs

     total energy              =     -66.87093781 Ry
     estimated scf accuracy    <       0.00000009 Ry

     total magnetization       =    -0.00 Bohr mag/cell
     absolute magnetization    =     0.00 Bohr mag/cell

     iteration #  9     ecut=    40.00 Ry     beta= 0.50
     Davidson diagonalization with overlap
     ethr =  8.28E-10,  avg # of iterations =  1.5

     Magnetic moment per site  (integrated on atomic sphere of radius R)
     atom   1 (R=0.413)  charge=  9.2465  magn= -0.0001

     total cpu time spent up to now is       13.6 secs

     End of self-consistent calculation

 ------ SPIN UP ------------


          k = 0.0000 0.0000 0.0000 (   459 PWs)   bands (ev):

     5.8711  11.2787  11.2787  11.2787  12.8601  12.8601  32.4806  36.0886
    36.0886  36.0886

          k = 0.0872 0.0872-0.0872 (   471 PWs)   bands (ev):

     6.4195  11.1226  11.4522  11.4522  12.8014  12.8014  32.2958  33.3656
    36.4283  36.4283

          k = 0.1744 0.1744-0.1744 (   477 PWs)   bands (ev):

     7.7324  11.1325  11.5713  11.5713  13.0411  13.0411  27.4821  33.2489
    36.4566  36.4566

          k = 0.2616 0.2616-0.2616 (   465 PWs)   bands (ev):

     8.4806  11.3577  11.3577  12.7899  13.7477  13.7477  22.4160  32.0922
    34.9862  34.9862

          k =-0.3488-0.3488 0.3488 (   464 PWs)   bands (ev):

     8.5322  11.2365  11.2365  14.1211  14.1211  15.0164  19.1749  31.5661
    34.1443  34.1443

          k = 0.1744 0.0000 0.0000 (   471 PWs)   bands (ev):

     6.6063  10.9139  11.6199  11.6199  12.4753  13.0262  33.1633  34.0335
    34.7530  34.7530

          k = 0.2616 0.0872-0.0872 (   470 PWs)   bands (ev):

     7.7220  10.6320  11.6883  11.8998  12.6218  13.2886  29.4994  33.5418
    33.5574  36.0100

          k = 0.3488 0.1744-0.1744 (   458 PWs)   bands (ev):

     8.7808  11.1586  11.2638  11.7878  13.8792  14.0094  24.2683  32.4993
    32.6744  34.1456

          k =-0.2616-0.4360 0.4360 (   459 PWs)   bands (ev):

     8.9247  10.9978  11.5834  12.4947  14.1473  16.3939  19.7621  31.1963
    32.7408  32.8073

          k =-0.1744-0.3488 0.3488 (   455 PWs)   bands (ev):

     8.9487  11.0809  11.5769  12.3513  13.6509  15.6935  21.1768  30.5457
    32.8215  34.4418

          k =-0.0872-0.2616 0.2616 (   463 PWs)   bands (ev):

     8.5828  10.9329  11.4685  11.8035  12.7525  14.1572  26.0085  30.8863
    34.2517  37.5712

          k = 0.0000-0.1744 0.1744 (   469 PWs)   bands (ev):

     7.2682  10.8526  11.6379  11.7382  12.4464  13.2111  30.6113  32.0306
    35.5104  37.3159

          k = 0.3488 0.0000 0.0000 (   456 PWs)   bands (ev):

     8.3793  10.1158  11.9881  12.5717  12.5717  13.4422  31.2751  31.2751
    32.8418  32.9013

          k = 0.4360 0.0872-0.0872 (   456 PWs)   bands (ev):

     9.1667   9.9289  11.7685  12.7499  13.9394  14.1603  26.4141  29.9285
    30.1145  33.7859

          k =-0.1744-0.5232 0.5232 (   459 PWs)   bands (ev):

     9.4343  10.3829  11.6291  12.5154  14.2154  17.1260  21.5762  27.8177
    30.0140  33.6543

          k =-0.0872-0.4360 0.4360 (   456 PWs)   bands (ev):

     9.7188  10.6663  11.5259  12.3249  13.6962  18.0048  20.9983  26.1476
    31.7949  33.4900

          k = 0.0000-0.3488 0.3488 (   463 PWs)   bands (ev):

     9.7873  10.7204  11.0647  12.2370  12.8647  15.8151  24.7506  26.4903
    33.7705  34.7206

          k = 0.5232 0.0000 0.0000 (   452 PWs)   bands (ev):

     8.9883   9.4085  13.8059  13.8059  13.8818  14.0315  26.1027  27.9371
    27.9371  32.9868

          k =-0.0872-0.6104 0.6104 (   460 PWs)   bands (ev):

     9.0792   9.4360  13.2027  13.6225  14.3151  17.2200  22.7432  25.7416
    27.5518  34.0779

          k = 0.0000-0.5232 0.5232 (   458 PWs)   bands (ev):

[...]


     atomic species   valence    mass     pseudopotential
        Au            11.00   196.96657     Au( 1.00)

     Starting magnetic structure 
     atomic species   magnetization
        Au          -0.000

     48 Sym. Ops., with inversion, found



   Cartesian axes

     site n.     atom                  positions (alat units)
         1           Au  tau(   1) = (   0.0000000   0.0000000   0.0000000  )

     number of k points=    29  Methfessel-Paxton smearing, width (Ry)=  0.0200
                       cart. coord. in units 2pi/alat
        k(    1) = (   0.0000000   0.0000000   0.0000000), wk =   0.0019531
        k(    2) = (   0.0871987   0.0871987  -0.0871987), wk =   0.0156250
        k(    3) = (   0.1743975   0.1743975  -0.1743975), wk =   0.0156250
        k(    4) = (   0.2615962   0.2615962  -0.2615962), wk =   0.0156250
        k(    5) = (  -0.3487950  -0.3487950   0.3487950), wk =   0.0078125
        k(    6) = (   0.1743975   0.0000000   0.0000000), wk =   0.0117188
        k(    7) = (   0.2615962   0.0871987  -0.0871987), wk =   0.0468750
        k(    8) = (   0.3487950   0.1743975  -0.1743975), wk =   0.0468750
        k(    9) = (  -0.2615962  -0.4359937   0.4359937), wk =   0.0468750
        k(   10) = (  -0.1743975  -0.3487950   0.3487950), wk =   0.0468750
        k(   11) = (  -0.0871987  -0.2615962   0.2615962), wk =   0.0468750
        k(   12) = (   0.0000000  -0.1743975   0.1743975), wk =   0.0234375
        k(   13) = (   0.3487950   0.0000000   0.0000000), wk =   0.0117188
        k(   14) = (   0.4359937   0.0871987  -0.0871987), wk =   0.0468750
        k(   15) = (  -0.1743975  -0.5231925   0.5231925), wk =   0.0468750
        k(   16) = (  -0.0871987  -0.4359937   0.4359937), wk =   0.0468750
        k(   17) = (   0.0000000  -0.3487950   0.3487950), wk =   0.0234375
        k(   18) = (   0.5231925   0.0000000   0.0000000), wk =   0.0117188
        k(   19) = (  -0.0871987  -0.6103912   0.6103912), wk =   0.0468750
        k(   20) = (   0.0000000  -0.5231925   0.5231925), wk =   0.0234375
        k(   21) = (  -0.6975900   0.0000000   0.0000000), wk =   0.0058594
        k(   22) = (   0.3487950   0.1743975  -0.0000000), wk =   0.0468750
        k(   23) = (  -0.2615962  -0.4359937   0.6103912), wk =   0.0937500
        k(   24) = (  -0.1743975  -0.3487950   0.5231925), wk =   0.0468750
        k(   25) = (  -0.1743975  -0.5231925   0.6975900), wk =   0.0468750
        k(   26) = (  -0.0871987  -0.4359937   0.6103912), wk =   0.0937500
        k(   27) = (   0.0000000  -0.3487950   0.5231925), wk =   0.0468750
        k(   28) = (  -0.6975900   0.1743975   0.0000000), wk =   0.0234375
        k(   29) = (  -0.6975900   0.3487950   0.0000000), wk =   0.0117188

     Dense  grid:    10969 G-vectors     FFT dimensions: (  32,  32,  32)

     Smooth grid:     3839 G-vectors     FFT dimensions: (  24,  24,  24)

     Estimated max dynamical RAM per process >       5.36 MB

     Estimated total dynamical RAM >      42.92 MB
     Generating pointlists ...

     Initial potential from superposition of free atoms

     starting charge      10.9999, renormalised to      11.0000
     Starting wfcs are    9 randomized atomic wfcs +    1 random wfcs

     total cpu time spent up to now is       14.1 secs

     Self-consistent Calculation

     iteration #  1     ecut=    40.00 Ry     beta= 0.50
     Davidson diagonalization with overlap
     ethr =  1.00E-06,  avg # of iterations = 11.8

     total cpu time spent up to now is       14.8 secs

     total energy              =     -66.85203157 Ry
     estimated scf accuracy    <       0.07786721 Ry

     total magnetization       =    -0.00 Bohr mag/cell
     absolute magnetization    =     0.00 Bohr mag/cell

     iteration #  2     ecut=    40.00 Ry     beta= 0.50
     Davidson diagonalization with overlap
     ethr =  7.08E-04,  avg # of iterations =  2.0

     total cpu time spent up to now is       15.0 secs

     total energy              =     -66.87063232 Ry
     estimated scf accuracy    <       0.00209374 Ry

     total magnetization       =    -0.00 Bohr mag/cell
     absolute magnetization    =     0.00 Bohr mag/cell

     iteration #  3     ecut=    40.00 Ry     beta= 0.50
     Davidson diagonalization with overlap
     ethr =  1.90E-05,  avg # of iterations =  1.5

     total cpu time spent up to now is       15.2 secs

     total energy              =     -66.87097013 Ry
     estimated scf accuracy    <       0.00011648 Ry

     total magnetization       =    -0.00 Bohr mag/cell
     absolute magnetization    =     0.00 Bohr mag/cell

     iteration #  4     ecut=    40.00 Ry     beta= 0.50
     Davidson diagonalization with overlap
     ethr =  1.06E-06,  avg # of iterations =  1.4

     total cpu time spent up to now is       15.5 secs

     total energy              =     -66.87097189 Ry
     estimated scf accuracy    <       0.00000326 Ry

     total magnetization       =    -0.00 Bohr mag/cell
     absolute magnetization    =     0.00 Bohr mag/cell

     iteration #  5     ecut=    40.00 Ry     beta= 0.50
     Davidson diagonalization with overlap
     ethr =  2.96E-08,  avg # of iterations =  1.2

     total cpu time spent up to now is       15.7 secs

     total energy              =     -66.87097241 Ry
     estimated scf accuracy    <       0.00000010 Ry

     total magnetization       =    -0.00 Bohr mag/cell
     absolute magnetization    =     0.00 Bohr mag/cell

     iteration #  6     ecut=    40.00 Ry     beta= 0.50
     Davidson diagonalization with overlap
     ethr =  8.78E-10,  avg # of iterations =  1.1

     total cpu time spent up to now is       15.9 secs

     total energy              =     -66.87097242 Ry
     estimated scf accuracy    <          1.5E-09 Ry

     total magnetization       =    -0.00 Bohr mag/cell
     absolute magnetization    =     0.00 Bohr mag/cell

     iteration #  7     ecut=    40.00 Ry     beta= 0.50
     Davidson diagonalization with overlap
     ethr =  1.33E-11,  avg # of iterations =  2.0

     Magnetic moment per site  (integrated on atomic sphere of radius R)
     atom   1 (R=0.413)  charge=  9.2465  magn= -0.0000

     total cpu time spent up to now is       16.2 secs

     End of self-consistent calculation

 ------ SPIN UP ------------


          k = 0.0000 0.0000 0.0000 (   531 PWs)   bands (ev):

     5.8711  11.2782  11.2782  11.2782  12.8597  12.8597  32.4805  36.0885
    36.0885  36.0885

          k = 0.0872 0.0872-0.0872 (   495 PWs)   bands (ev):

     6.4195  11.1223  11.4518  11.4518  12.8011  12.8011  32.2956  33.3655
    36.4282  36.4282

          k = 0.1744 0.1744-0.1744 (   483 PWs)   bands (ev):

     7.7324  11.1323  11.5710  11.5710  13.0408  13.0408  27.4820  33.2489
    36.4565  36.4565

          k = 0.2616 0.2616-0.2616 (   483 PWs)   bands (ev):

     8.4805  11.3574  11.3574  12.7897  13.7473  13.7473  22.4158  32.0921
    34.9861  34.9861

          k =-0.3488-0.3488 0.3488 (   476 PWs)   bands (ev):

     8.5320  11.2363  11.2363  14.1208  14.1208  15.0164  19.1747  31.5661
    34.1443  34.1443

          k = 0.1744 0.0000 0.0000 (   495 PWs)   bands (ev):

     6.6063  10.9136  11.6196  11.6196  12.4749  13.0258  33.1632  34.0334
    34.7529  34.7529

          k = 0.2616 0.0872-0.0872 (   489 PWs)   bands (ev):

     7.7219  10.6317  11.6880  11.8995  12.6215  13.2883  29.4993  33.5417
    33.5573  36.0096

          k = 0.3488 0.1744-0.1744 (   492 PWs)   bands (ev):

     8.7806  11.1583  11.2635  11.7875  13.8789  14.0091  24.2681  32.4992
    32.6743  34.1454

          k =-0.2616-0.4360 0.4360 (   475 PWs)   bands (ev):

     8.9245  10.9975  11.5830  12.4944  14.1469  16.3937  19.7620  31.1962
    32.7408  32.8073

          k =-0.1744-0.3488 0.3488 (   477 PWs)   bands (ev):

     8.9486  11.0806  11.5766  12.3511  13.6506  15.6933  21.1767  30.5455
    32.8215  34.4417

          k =-0.0872-0.2616 0.2616 (   485 PWs)   bands (ev):

     8.5827  10.9326  11.4682  11.8032  12.7521  14.1569  26.0084  30.8861
    34.2517  37.5711

          k = 0.0000-0.1744 0.1744 (   489 PWs)   bands (ev):

     7.2682  10.8523  11.6375  11.7378  12.4461  13.2108  30.6112  32.0304
    35.5102  37.3158

          k = 0.3488 0.0000 0.0000 (   480 PWs)   bands (ev):

     8.3792  10.1155  11.9879  12.5713  12.5713  13.4418  31.2750  31.2750
    32.8417  32.9011

          k = 0.4360 0.0872-0.0872 (   482 PWs)   bands (ev):

     9.1665   9.9287  11.7682  12.7495  13.9390  14.1600  26.4140  29.9285
    30.1143  33.7856

          k =-0.1744-0.5232 0.5232 (   477 PWs)   bands (ev):

     9.4340  10.3826  11.6288  12.5151  14.2151  17.1259  21.5761  27.8176
    30.0139  33.6541

          k =-0.0872-0.4360 0.4360 (   479 PWs)   bands (ev):

     9.7185  10.6661  11.5256  12.3245  13.6958  18.0047  20.9981  26.1475
    31.7948  33.4898

          k = 0.0000-0.3488 0.3488 (   481 PWs)   bands (ev):

     9.7872  10.7201  11.0645  12.2367  12.8644  15.8148  24.7505  26.4902
    33.7704  34.7205

          k = 0.5232 0.0000 0.0000 (   472 PWs)   bands (ev):

     8.9881   9.4082  13.8055  13.8055  13.8814  14.0314  26.1026  27.9371
    27.9371  32.9866

          k =-0.0872-0.6104 0.6104 (   474 PWs)   bands (ev):

     9.0790   9.4357  13.2025  13.6221  14.3148  17.2198  22.7431  25.7415
    27.5518  34.0777

          k = 0.0000-0.5232 0.5232 (   478 PWs)   bands (ev):

     9.4374  10.0799  12.1602  13.1635  13.9977  19.9812  20.8304  23.6072
    29.0899  34.1229

          k =-0.6976 0.0000 0.0000 (   468 PWs)   bands (ev):

     8.7990   9.1365  14.0712  14.4615  14.4615  17.0625  21.8162  26.5134
    26.5134  33.2479

          k = 0.3488 0.1744-0.0000 (   482 PWs)   bands (ev):

     8.8855  10.3319  11.3222  12.5743  12.6556  14.1962  27.5971  29.4144
    33.0526  36.5436

          k =-0.2616-0.4360 0.6104 (   481 PWs)   bands (ev):

     9.5866  10.7655  10.9708  12.3630  13.6084  15.9593  23.1865  28.2741
    30.9501  35.6496

          k =-0.1744-0.3488 0.5232 (   476 PWs)   bands (ev):

     9.5937  10.5789  11.7188  12.1501  13.9797  18.7633  19.1778  28.4890
    29.7135  34.9857

          k =-0.1744-0.5232 0.6976 (   471 PWs)   bands (ev):

     9.5089   9.7764  11.8037  13.4804  13.7961  16.2209  24.5316  26.5938
    28.0942  36.0307

          k =-0.0872-0.4360 0.6104 (   479 PWs)   bands (ev):

     9.7654  10.2251  11.4730  12.9388  14.1719  19.2549  21.3272  24.9690
    27.4592  36.4339

          k = 0.0000-0.3488 0.5232 (   481 PWs)   bands (ev):

    10.2258  10.5221  10.8173  12.7206  13.7996  18.1623  23.3080  23.7726
    28.9955  36.6096

          k =-0.6976 0.1744 0.0000 (   478 PWs)   bands (ev):

     9.2718   9.5550  12.7350  13.5038  14.4625  19.2717  21.2773  25.3048
    25.9860  36.1210

          k =-0.6976 0.3488 0.0000 (   488 PWs)   bands (ev):

     9.9467  10.7898  10.7898  12.7079  14.4635  20.8296  22.5068  22.5068
    25.6847  40.4584

 ------ SPIN DOWN ----------


          k = 0.0000 0.0000 0.0000 (   531 PWs)   bands (ev):

     5.8711  11.2782  11.2782  11.2782  12.8597  12.8597  32.4805  36.0885
    36.0885  36.0885

          k = 0.0872 0.0872-0.0872 (   495 PWs)   bands (ev):

     6.4195  11.1223  11.4518  11.4518  12.8011  12.8011  32.2956  33.3655
    36.4282  36.4282

          k = 0.1744 0.1744-0.1744 (   483 PWs)   bands (ev):

     7.7324  11.1323  11.5710  11.5710  13.0408  13.0408  27.4820  33.2489
    36.4565  36.4565

          k = 0.2616 0.2616-0.2616 (   483 PWs)   bands (ev):

     8.4805  11.3574  11.3574  12.7897  13.7473  13.7473  22.4158  32.0921
    34.9861  34.9861

          k =-0.3488-0.3488 0.3488 (   476 PWs)   bands (ev):

     8.5320  11.2363  11.2363  14.1208  14.1208  15.0164  19.1747  31.5661
    34.1443  34.1443

          k = 0.1744 0.0000 0.0000 (   495 PWs)   bands (ev):

     6.6063  10.9136  11.6196  11.6196  12.4749  13.0258  33.1632  34.0334
    34.7529  34.7529

          k = 0.2616 0.0872-0.0872 (   489 PWs)   bands (ev):

     7.7219  10.6317  11.6880  11.8995  12.6215  13.2883  29.4993  33.5417
    33.5573  36.0096

          k = 0.3488 0.1744-0.1744 (   492 PWs)   bands (ev):

     8.7806  11.1583  11.2635  11.7875  13.8789  14.0091  24.2681  32.4992
    32.6743  34.1454

          k =-0.2616-0.4360 0.4360 (   475 PWs)   bands (ev):

     8.9245  10.9975  11.5830  12.4944  14.1469  16.3937  19.7620  31.1962
    32.7408  32.8073

          k =-0.1744-0.3488 0.3488 (   477 PWs)   bands (ev):

     8.9486  11.0806  11.5766  12.3511  13.6506  15.6933  21.1767  30.5455
    32.8215  34.4417

          k =-0.0872-0.2616 0.2616 (   485 PWs)   bands (ev):

     8.5827  10.9326  11.4682  11.8032  12.7521  14.1569  26.0084  30.8861
    34.2517  37.5711

          k = 0.0000-0.1744 0.1744 (   489 PWs)   bands (ev):

     7.2682  10.8523  11.6375  11.7378  12.4461  13.2108  30.6112  32.0304
    35.5102  37.3158

          k = 0.3488 0.0000 0.0000 (   480 PWs)   bands (ev):

     8.3792  10.1155  11.9879  12.5713  12.5713  13.4418  31.2750  31.2750
    32.8417  32.9011

          k = 0.4360 0.0872-0.0872 (   482 PWs)   bands (ev):

     9.1665   9.9287  11.7682  12.7495  13.9390  14.1600  26.4140  29.9285
    30.1143  33.7856

          k =-0.1744-0.5232 0.5232 (   477 PWs)   bands (ev):

     9.4340  10.3826  11.6288  12.5151  14.2151  17.1259  21.5761  27.8176
    30.0139  33.6541

          k =-0.0872-0.4360 0.4360 (   479 PWs)   bands (ev):

     9.7185  10.6661  11.5256  12.3245  13.6958  18.0047  20.9981  26.1475
    31.7948  33.4898

          k = 0.0000-0.3488 0.3488 (   481 PWs)   bands (ev):

     9.7872  10.7201  11.0645  12.2367  12.8644  15.8148  24.7505  26.4902
    33.7704  34.7205

          k = 0.5232 0.0000 0.0000 (   472 PWs)   bands (ev):

     8.9881   9.4082  13.8055  13.8055  13.8814  14.0314  26.1026  27.9371
    27.9371  32.9866

          k =-0.0872-0.6104 0.6104 (   474 PWs)   bands (ev):

     9.0790   9.4357  13.2025  13.6221  14.3148  17.2198  22.7431  25.7415
    27.5518  34.0777

          k = 0.0000-0.5232 0.5232 (   478 PWs)   bands (ev):

     9.4374  10.0799  12.1602  13.1635  13.9977  19.9812  20.8304  23.6072
    29.0899  34.1229

          k =-0.6976 0.0000 0.0000 (   468 PWs)   bands (ev):

     8.7990   9.1365  14.0712  14.4615  14.4615  17.0625  21.8162  26.5134
    26.5134  33.2479

          k = 0.3488 0.1744-0.0000 (   482 PWs)   bands (ev):

     8.8855  10.3319  11.3222  12.5743  12.6556  14.1962  27.5971  29.4144
    33.0526  36.5436

          k =-0.2616-0.4360 0.6104 (   481 PWs)   bands (ev):

     9.5866  10.7655  10.9708  12.3630  13.6084  15.9593  23.1865  28.2741
    30.9501  35.6496

          k =-0.1744-0.3488 0.5232 (   476 PWs)   bands (ev):

     9.5937  10.5789  11.7188  12.1501  13.9797  18.7633  19.1778  28.4890
    29.7135  34.9857

          k =-0.1744-0.5232 0.6976 (   471 PWs)   bands (ev):

     9.5089   9.7764  11.8037  13.4804  13.7961  16.2209  24.5316  26.5938
    28.0942  36.0307

          k =-0.0872-0.4360 0.6104 (   479 PWs)   bands (ev):

     9.7654  10.2251  11.4729  12.9388  14.1719  19.2549  21.3272  24.9690
    27.4592  36.4339

          k = 0.0000-0.3488 0.5232 (   481 PWs)   bands (ev):

    10.2258  10.5221  10.8173  12.7206  13.7996  18.1623  23.3080  23.7726
    28.9955  36.6096

          k =-0.6976 0.1744 0.0000 (   478 PWs)   bands (ev):

     9.2718   9.5550  12.7350  13.5038  14.4625  19.2717  21.2773  25.3048
    25.9860  36.1210

          k =-0.6976 0.3488 0.0000 (   488 PWs)   bands (ev):

     9.9467  10.7898  10.7898  12.7079  14.4635  20.8296  22.5068  22.5068
    25.6847  40.4584

     the Fermi energy is    16.0658 ev

!    total energy              =     -66.87097242 Ry
     estimated scf accuracy    <          4.1E-10 Ry
     smearing contrib. (-TS)   =      -0.00011268 Ry
     internal energy E=F+TS    =     -66.87085974 Ry

     The total energy is F=E-TS. E is the sum of the following terms:
     one-electron contribution =       8.80308447 Ry
     hartree contribution      =       7.19035872 Ry
     xc contribution           =     -10.45939091 Ry
     ewald contribution        =     -72.40491202 Ry

     total magnetization       =    -0.00 Bohr mag/cell
     absolute magnetization    =     0.00 Bohr mag/cell

     convergence has been achieved in   7 iterations

     Forces acting on atoms (cartesian axes, Ry/au):

     atom    1 type  1   force =     0.00000000    0.00000000    0.00000000
     The non-local contrib.  to forces
     atom    1 type  1   force =    -0.00000000    0.00000000   -0.00000000
     The ionic contribution  to forces
     atom    1 type  1   force =    -0.00000000   -0.00000000   -0.00000000
     The local contribution  to forces
     atom    1 type  1   force =     0.00000000    0.00000000    0.00000000
     The core correction contribution to forces
     atom    1 type  1   force =     0.00000000    0.00000000    0.00000000
     The Hubbard contrib.    to forces
     atom    1 type  1   force =     0.00000000    0.00000000    0.00000000
     The SCF correction term to forces
     atom    1 type  1   force =     0.00000000    0.00000000    0.00000000

     Total force =     0.000000     Total SCF correction =     0.000000


     Computing stress (Cartesian axis) and pressure

          total   stress  (Ry/bohr**3)                   (kbar)     P=       -0.08
  -0.00000052   0.00000000  -0.00000000           -0.08        0.00       -0.00
  -0.00000000  -0.00000052   0.00000000           -0.00       -0.08        0.00
  -0.00000000  -0.00000000  -0.00000052           -0.00       -0.00       -0.08


     init_run     :      0.59s CPU      0.59s WALL (       2 calls)
     electrons    :     14.13s CPU     14.01s WALL (       6 calls)
     update_pot   :      0.23s CPU      0.22s WALL (       3 calls)
     forces       :      0.36s CPU      0.32s WALL (       6 calls)
     stress       :      0.78s CPU      0.71s WALL (       6 calls)

     Called by init_run:
     wfcinit      :      0.09s CPU      0.11s WALL (       2 calls)
     potinit      :      0.20s CPU      0.19s WALL (       3 calls)
     hinit0       :      0.29s CPU      0.29s WALL (       2 calls)

     Called by electrons:
     c_bands      :     11.28s CPU     11.37s WALL (      54 calls)
     sum_band     :      2.35s CPU      2.21s WALL (      54 calls)
     v_of_rho     :      0.17s CPU      0.14s WALL (      59 calls)
     newd         :      0.18s CPU      0.15s WALL (      59 calls)
     mix_rho      :      0.05s CPU      0.05s WALL (      54 calls)

     Called by c_bands:
     init_us_2    :      0.23s CPU      0.22s WALL (    7076 calls)
     init_us_2:cp :      0.22s CPU      0.20s WALL (    7076 calls)
     cegterg      :      9.73s CPU      9.17s WALL (    3132 calls)

     Called by *egterg:
     cdiaghg      :      1.59s CPU      1.50s WALL (    8198 calls)
     h_psi        :      6.73s CPU      6.37s WALL (    8604 calls)
     s_psi        :      0.07s CPU      0.07s WALL (    8604 calls)
     g_psi        :      0.03s CPU      0.02s WALL (    5356 calls)

     Called by h_psi:
     h_psi:calbec :      0.42s CPU      0.39s WALL (    8604 calls)
     vloc_psi     :      6.18s CPU      5.85s WALL (    8604 calls)
     add_vuspsi   :      0.08s CPU      0.07s WALL (    8604 calls)

     General routines
     calbec       :      0.78s CPU      0.74s WALL (   13476 calls)
     fft          :      0.16s CPU      0.16s WALL (     659 calls)
     ffts         :      0.13s CPU      0.13s WALL (     226 calls)
     fftw         :      6.83s CPU      6.50s WALL (  179116 calls)
     interpolate  :      0.14s CPU      0.14s WALL (     118 calls)

     Parallel routines

     PWSCF        :     16.56s CPU     16.35s WALL


   This run was terminated on:  11: 7: 9   3Nov2023            

=------------------------------------------------------------------------------=
   JOB DONE.
=------------------------------------------------------------------------------=
