Header of the LAMMPS data file 

4 atoms 
1 atom types

0.0 4.133333333333333  xlo xhi
0.0 4.133333333333333  ylo yhi
0.0 4.133333333333333  zlo zhi

Masses 

1  107.8682

Atoms # atomic 

1 1 0.00000 0.00000 0.00000 
2 1 0.00000 2.06667 2.06667 
3 1 2.06667 0.00000 2.06667 
4 1 2.06667 2.06667 0.00000 
