
     Program PWSCF v.7.2 starts on 16Oct2023 at 10:31:26 

     This program is part of the open-source Quantum ESPRESSO suite
     for quantum simulation of materials; please cite
         "P. Giannozzi et al., J. Phys.:Condens. Matter 21 395502 (2009);
         "P. Giannozzi et al., J. Phys.:Condens. Matter 29 465901 (2017);
         "P. Giannozzi et al., J. Chem. Phys. 152 154105 (2020);
          URL http://www.quantum-espresso.org", 
     in publications or presentations arising from this work. More details at
     http://www.quantum-espresso.org/quote

     Parallel version (MPI), running on     1 processors

     MPI processes distributed on     1 nodes
     33939 MiB available memory on the printing compute node when the environment starts

     Waiting for input...
     Reading input from standard input
Warning: card &CELL ignored
Warning: card / ignored

     Current dimensions of program PWSCF are:
     Max number of different atomic species (ntypx) = 10
     Max number of k-points (npk) =  40000
     Max angular momentum in pseudopotentials (lmaxx) =  4
     file Ge.pz-dn-rrkjus_psl.0.2.2.UPF: wavefunction(s)  3D renormalized
     Message from routine setup:
     using ibrav=0 with symmetry is DISCOURAGED, use correct ibrav instead

     Subspace diagonalization in iterative solution of the eigenvalue problem:
     a serial algorithm will be used


     G-vector sticks info
     --------------------
     sticks:   dense  smooth     PW     G-vecs:    dense   smooth      PW
     Sum         547     547    163                 8393     8393    1459

     Using Slab Decomposition



     bravais-lattice index     =            0
     lattice parameter (alat)  =       7.5307  a.u.
     unit-cell volume          =     301.9870 (a.u.)^3
     number of atoms/cell      =            2
     number of atomic types    =            1
     number of electrons       =        28.00
     number of Kohn-Sham states=           14
     kinetic-energy cutoff     =      35.0000  Ry
     charge density cutoff     =     140.0000  Ry
     scf convergence threshold =      1.0E-07
     mixing beta               =       0.5000
     number of iterations used =            8  plain     mixing
     Exchange-correlation= LDA
                           (   1   1   0   0   0   0   0)

     celldm(1)=   7.530684  celldm(2)=   0.000000  celldm(3)=   0.000000
     celldm(4)=   0.000000  celldm(5)=   0.000000  celldm(6)=   0.000000

     crystal axes: (cart. coord. in units of alat)
               a(1) = (   0.000000   0.707107   0.707107 )  
               a(2) = (   0.707107   0.000000   0.707107 )  
               a(3) = (   0.707107   0.707107   0.000000 )  

     reciprocal axes: (cart. coord. in units 2 pi/alat)
               b(1) = ( -0.707107  0.707107  0.707107 )  
               b(2) = (  0.707107 -0.707107  0.707107 )  
               b(3) = (  0.707107  0.707107 -0.707107 )  


     PseudoPot. # 1 for Ge read from file:
     ../Ge.pz-dn-rrkjus_psl.0.2.2.UPF
     MD5 check sum: 9948ad5293734715c8cf6021b6c26e6d
     Pseudo is Ultrasoft + core correction, Zval = 14.0
     Generated using "atomic" code by A. Dal Corso  v.5.0.2 svn rev. 9415
     Using radial grid of 1207 points,  6 beta functions with: 
                l(1) =   0
                l(2) =   0
                l(3) =   1
                l(4) =   1
                l(5) =   2
                l(6) =   2
     Q(r) pseudized with 0 coefficients 


     atomic species   valence    mass     pseudopotential
        Ge            14.00    72.63000     Ge( 1.00)

     24 Sym. Ops. (no inversion) found



   Cartesian axes

     site n.     atom                  positions (alat units)
         1           Ge  tau(   1) = (   0.0000000   0.0000000   0.0000000  )
         2           Ge  tau(   2) = (   0.3535524   0.3535524   0.3535524  )

     number of k points=    10
                       cart. coord. in units 2pi/alat
        k(    1) = (   0.0000000   0.0000000   0.0000000), wk =   0.0160000
        k(    2) = (   0.1414214   0.1414214  -0.1414214), wk =   0.1280000
        k(    3) = (   0.2828427   0.2828427  -0.2828427), wk =   0.1280000
        k(    4) = (   0.2828427   0.0000000   0.0000000), wk =   0.0960000
        k(    5) = (   0.4242641   0.1414214  -0.1414214), wk =   0.3840000
        k(    6) = (  -0.1414214  -0.4242641   0.4242641), wk =   0.3840000
        k(    7) = (   0.0000000  -0.2828427   0.2828427), wk =   0.1920000
        k(    8) = (   0.5656854   0.0000000   0.0000000), wk =   0.0960000
        k(    9) = (   0.0000000  -0.5656854   0.5656854), wk =   0.1920000
        k(   10) = (  -0.1414214  -0.4242641   0.7071068), wk =   0.3840000

     Dense  grid:     8393 G-vectors     FFT dimensions: (  30,  30,  30)

     Estimated max dynamical RAM per process >      35.10 MB

     Check: negative core charge=   -0.000145

     Initial potential from superposition of free atoms

     starting charge      27.9988, renormalised to      28.0000
     Starting wfcs are   18 randomized atomic wfcs

     total cpu time spent up to now is        0.9 secs

     Self-consistent Calculation

     iteration #  1     ecut=    35.00 Ry     beta= 0.50
     Davidson diagonalization with overlap
     ethr =  1.00E-02,  avg # of iterations =  1.8

     Threshold (ethr) on eigenvalues was too large:
     Diagonalizing with lowered threshold

     Davidson diagonalization with overlap
     ethr =  1.21E-04,  avg # of iterations =  2.2

     total cpu time spent up to now is        2.4 secs

     total energy              =    -421.78516634 Ry
     estimated scf accuracy    <       0.03692741 Ry

     iteration #  2     ecut=    35.00 Ry     beta= 0.50
     Davidson diagonalization with overlap
     ethr =  1.32E-04,  avg # of iterations =  1.1

     total cpu time spent up to now is        3.0 secs

     total energy              =    -421.78370172 Ry
     estimated scf accuracy    <       0.00671480 Ry

     iteration #  3     ecut=    35.00 Ry     beta= 0.50
     Davidson diagonalization with overlap
     ethr =  2.40E-05,  avg # of iterations =  2.0

     total cpu time spent up to now is        3.7 secs

     total energy              =    -421.78423232 Ry
     estimated scf accuracy    <       0.00007982 Ry

     iteration #  4     ecut=    35.00 Ry     beta= 0.50
     Davidson diagonalization with overlap
     ethr =  2.85E-07,  avg # of iterations =  5.1

     total cpu time spent up to now is        4.7 secs

     total energy              =    -421.78426007 Ry
     estimated scf accuracy    <       0.00000910 Ry

     iteration #  5     ecut=    35.00 Ry     beta= 0.50
     Davidson diagonalization with overlap
     ethr =  3.25E-08,  avg # of iterations =  2.3

     total cpu time spent up to now is        5.5 secs

     total energy              =    -421.78426136 Ry
     estimated scf accuracy    <       0.00000034 Ry

     iteration #  6     ecut=    35.00 Ry     beta= 0.50
     Davidson diagonalization with overlap
     ethr =  1.21E-09,  avg # of iterations =  3.6

     total cpu time spent up to now is        6.3 secs

     total energy              =    -421.78426153 Ry
     estimated scf accuracy    <       0.00000011 Ry

     iteration #  7     ecut=    35.00 Ry     beta= 0.50
     Davidson diagonalization with overlap
     ethr =  3.97E-10,  avg # of iterations =  2.2

     total cpu time spent up to now is        7.2 secs

     End of self-consistent calculation

          k = 0.0000 0.0000 0.0000 (  1067 PWs)   bands (ev):

   -16.5606 -16.5605 -16.5605 -16.5231 -16.5231 -16.3063 -16.3063 -16.3063
   -16.2908 -16.2908  -4.5592   8.2752   8.3524   8.3527

          k = 0.1414 0.1414-0.1414 (  1046 PWs)   bands (ev):

   -16.5755 -16.5755 -16.5544 -16.4998 -16.4998 -16.3266 -16.3266 -16.3130
   -16.2741 -16.2741  -4.0732   4.4782   7.6700   7.6702

          k = 0.2828 0.2828-0.2828 (  1056 PWs)   bands (ev):

   -16.5850 -16.5849 -16.5437 -16.4813 -16.4813 -16.3396 -16.3396 -16.3248
   -16.2647 -16.2647  -2.8267   1.2778   7.0175   7.0177

          k = 0.2828 0.0000 0.0000 (  1054 PWs)   bands (ev):

   -16.5739 -16.5739 -16.5696 -16.4997 -16.4717 -16.3728 -16.3118 -16.2852
   -16.2852 -16.2747  -3.9039   4.4872   6.7197   6.7198

          k = 0.4243 0.1414-0.1414 (  1046 PWs)   bands (ev):

   -16.5980 -16.5858 -16.5396 -16.4726 -16.4436 -16.3992 -16.3404 -16.3126
   -16.2652 -16.2510  -2.8399   1.9641   5.3952   6.1463

          k =-0.1414-0.4243 0.4243 (  1073 PWs)   bands (ev):

   -16.6067 -16.5937 -16.5144 -16.4606 -16.4516 -16.3749 -16.3676 -16.3415
   -16.2535 -16.2424  -2.0636   0.7125   4.5797   6.4181

          k = 0.0000-0.2828 0.2828 (  1057 PWs)   bands (ev):

   -16.5909 -16.5906 -16.5327 -16.4892 -16.4649 -16.3615 -16.3425 -16.3206
   -16.2638 -16.2559  -3.2962   2.7756   5.1511   7.3403

          k = 0.5657 0.0000 0.0000 (  1042 PWs)   bands (ev):

   -16.5924 -16.5924 -16.5395 -16.4651 -16.4399 -16.3860 -16.3683 -16.3098
   -16.2545 -16.2545  -1.9980   0.9355   5.4061   5.4062

          k = 0.0000-0.5657 0.5657 (  1059 PWs)   bands (ev):

   -16.6100 -16.5963 -16.5052 -16.4624 -16.4117 -16.3995 -16.3857 -16.3456
   -16.2488 -16.2364  -0.9184  -0.2561   4.1517   5.5231

          k =-0.1414-0.4243 0.7071 (  1052 PWs)   bands (ev):

   -16.6084 -16.6031 -16.4979 -16.4432 -16.4322 -16.4081 -16.3763 -16.3510
   -16.2436 -16.2388  -1.6232   0.5619   4.2086   5.1977

     highest occupied level (ev):     8.3527

!    total energy              =    -421.78426153 Ry
     estimated scf accuracy    <       0.00000002 Ry

     The total energy is the sum of the following terms:
     one-electron contribution =    -273.98126445 Ry
     hartree contribution      =     162.18890349 Ry
     xc contribution           =    -111.71718928 Ry
     ewald contribution        =    -198.27471128 Ry

     convergence has been achieved in   7 iterations

     Forces acting on atoms (cartesian axes, Ry/au):

     atom    1 type  1   force =    -0.00000000   -0.00000000    0.00000000
     atom    2 type  1   force =    -0.00000000    0.00000000    0.00000000
     The non-local contrib.  to forces
     atom    1 type  1   force =    -0.00000000   -0.00000000   -0.00000000
     atom    2 type  1   force =     0.00000000    0.00000000    0.00000000
     The ionic contribution  to forces
     atom    1 type  1   force =    -0.00003866   -0.00003866   -0.00003866
     atom    2 type  1   force =     0.00003866    0.00003866    0.00003866
     The local contribution  to forces
     atom    1 type  1   force =     0.00000000    0.00000000    0.00000000
     atom    2 type  1   force =     0.00140413    0.00140413    0.00140413
     The core correction contribution to forces
     atom    1 type  1   force =     0.00000002    0.00000002    0.00000002
     atom    2 type  1   force =     0.00017929    0.00017929    0.00017929
     The Hubbard contrib.    to forces
     atom    1 type  1   force =     0.00000000    0.00000000    0.00000000
     atom    2 type  1   force =     0.00000000    0.00000000    0.00000000
     The SCF correction term to forces
     atom    1 type  1   force =    -0.00000000   -0.00000000   -0.00000000
     atom    2 type  1   force =     0.00000003    0.00000003    0.00000003

     Total force =     0.000000     Total SCF correction =     0.000000


     Computing stress (Cartesian axis) and pressure

          total   stress  (Ry/bohr**3)                   (kbar)     P=      -12.34
  -0.00008385   0.00000000   0.00000000          -12.34        0.00        0.00
   0.00000000  -0.00008385   0.00000000            0.00      -12.34        0.00
   0.00000000   0.00000000  -0.00008385            0.00        0.00      -12.34


     init_run     :      0.88s CPU      0.78s WALL (       1 calls)
     electrons    :      8.88s CPU      6.25s WALL (       1 calls)
     forces       :      0.14s CPU      0.11s WALL (       1 calls)
     stress       :      1.47s CPU      0.99s WALL (       1 calls)

     Called by init_run:
     wfcinit      :      0.47s CPU      0.38s WALL (       1 calls)
     potinit      :      0.01s CPU      0.01s WALL (       1 calls)
     hinit0       :      0.37s CPU      0.37s WALL (       1 calls)

     Called by electrons:
     c_bands      :      6.88s CPU      4.73s WALL (       8 calls)
     sum_band     :      1.63s CPU      1.15s WALL (       8 calls)
     v_of_rho     :      0.03s CPU      0.05s WALL (       8 calls)
     newd         :      0.28s CPU      0.21s WALL (       8 calls)
     mix_rho      :      0.03s CPU      0.05s WALL (       8 calls)

     Called by c_bands:
     init_us_2    :      0.25s CPU      0.17s WALL (     190 calls)
     init_us_2:cp :      0.24s CPU      0.17s WALL (     190 calls)
     cegterg      :      6.32s CPU      4.28s WALL (      80 calls)

     Called by *egterg:
     cdiaghg      :      0.26s CPU      0.17s WALL (     273 calls)
     h_psi        :      5.91s CPU      4.06s WALL (     293 calls)
     s_psi        :      0.09s CPU      0.06s WALL (     293 calls)
     g_psi        :      0.04s CPU      0.03s WALL (     203 calls)

     Called by h_psi:
     h_psi:calbec :      0.10s CPU      0.08s WALL (     293 calls)
     vloc_psi     :      5.68s CPU      3.89s WALL (     293 calls)
     add_vuspsi   :      0.09s CPU      0.07s WALL (     293 calls)

     General routines
     calbec       :      0.15s CPU      0.11s WALL (     423 calls)
     fft          :      0.17s CPU      0.16s WALL (      41 calls)
     ffts         :      0.02s CPU      0.01s WALL (       8 calls)
     fftw         :      5.82s CPU      3.98s WALL (    7150 calls)

     Parallel routines

     PWSCF        :     11.50s CPU      8.28s WALL


   This run was terminated on:  10:31:34  16Oct2023            

=------------------------------------------------------------------------------=
   JOB DONE.
=------------------------------------------------------------------------------=
