
     Program PWSCF v.7.2 starts on 14Oct2023 at 15:53:41 

     This program is part of the open-source Quantum ESPRESSO suite
     for quantum simulation of materials; please cite
         "P. Giannozzi et al., J. Phys.:Condens. Matter 21 395502 (2009);
         "P. Giannozzi et al., J. Phys.:Condens. Matter 29 465901 (2017);
         "P. Giannozzi et al., J. Chem. Phys. 152 154105 (2020);
          URL http://www.quantum-espresso.org", 
     in publications or presentations arising from this work. More details at
     http://www.quantum-espresso.org/quote

     Parallel version (MPI), running on     1 processors

     MPI processes distributed on     1 nodes
     37699 MiB available memory on the printing compute node when the environment starts

     Waiting for input...
     Reading input from standard input
Warning: card &CELL ignored
Warning: card / ignored

     Current dimensions of program PWSCF are:
     Max number of different atomic species (ntypx) = 10
     Max number of k-points (npk) =  40000
     Max angular momentum in pseudopotentials (lmaxx) =  4
     file Ge.pz-dn-rrkjus_psl.0.2.2.UPF: wavefunction(s)  3D renormalized
     Message from routine setup:
     using ibrav=0 with symmetry is DISCOURAGED, use correct ibrav instead

     Subspace diagonalization in iterative solution of the eigenvalue problem:
     a serial algorithm will be used


     G-vector sticks info
     --------------------
     sticks:   dense  smooth     PW     G-vecs:    dense   smooth      PW
     Sum         451     451    151                 6375     6375    1139

     Using Slab Decomposition



     bravais-lattice index     =            0
     lattice parameter (alat)  =       7.4246  a.u.
     unit-cell volume          =     289.4059 (a.u.)^3
     number of atoms/cell      =            2
     number of atomic types    =            1
     number of electrons       =        28.00
     number of Kohn-Sham states=           14
     kinetic-energy cutoff     =      30.0000  Ry
     charge density cutoff     =     120.0000  Ry
     scf convergence threshold =      1.0E-07
     mixing beta               =       0.5000
     number of iterations used =            8  plain     mixing
     Exchange-correlation= LDA
                           (   1   1   0   0   0   0   0)

     celldm(1)=   7.424618  celldm(2)=   0.000000  celldm(3)=   0.000000
     celldm(4)=   0.000000  celldm(5)=   0.000000  celldm(6)=   0.000000

     crystal axes: (cart. coord. in units of alat)
               a(1) = (   0.000000   0.707107   0.707107 )  
               a(2) = (   0.707107   0.000000   0.707107 )  
               a(3) = (   0.707107   0.707107   0.000000 )  

     reciprocal axes: (cart. coord. in units 2 pi/alat)
               b(1) = ( -0.707107  0.707107  0.707107 )  
               b(2) = (  0.707107 -0.707107  0.707107 )  
               b(3) = (  0.707107  0.707107 -0.707107 )  


     PseudoPot. # 1 for Ge read from file:
     ../Ge.pz-dn-rrkjus_psl.0.2.2.UPF
     MD5 check sum: 9948ad5293734715c8cf6021b6c26e6d
     Pseudo is Ultrasoft + core correction, Zval = 14.0
     Generated using "atomic" code by A. Dal Corso  v.5.0.2 svn rev. 9415
     Using radial grid of 1207 points,  6 beta functions with: 
                l(1) =   0
                l(2) =   0
                l(3) =   1
                l(4) =   1
                l(5) =   2
                l(6) =   2
     Q(r) pseudized with 0 coefficients 


     atomic species   valence    mass     pseudopotential
        Ge            14.00    72.63000     Ge( 1.00)

     48 Sym. Ops., with inversion, found (24 have fractional translation)



   Cartesian axes

     site n.     atom                  positions (alat units)
         1           Ge  tau(   1) = (   0.0000000   0.0000000   0.0000000  )
         2           Ge  tau(   2) = (   0.3535535   0.3535535   0.3535535  )

     number of k points=     8
                       cart. coord. in units 2pi/alat
        k(    1) = (   0.0000000   0.0000000   0.0000000), wk =   0.0312500
        k(    2) = (   0.1767767   0.1767767  -0.1767767), wk =   0.2500000
        k(    3) = (  -0.3535534  -0.3535534   0.3535534), wk =   0.1250000
        k(    4) = (   0.3535534   0.0000000   0.0000000), wk =   0.1875000
        k(    5) = (  -0.1767767  -0.5303301   0.5303301), wk =   0.7500000
        k(    6) = (   0.0000000  -0.3535534   0.3535534), wk =   0.3750000
        k(    7) = (  -0.7071068   0.0000000   0.0000000), wk =   0.0937500
        k(    8) = (  -0.7071068   0.3535534   0.0000000), wk =   0.1875000

     Dense  grid:     6375 G-vectors     FFT dimensions: (  32,  32,  32)

     Estimated max dynamical RAM per process >      27.32 MB

     Check: negative core charge=   -0.000251

     Initial potential from superposition of free atoms

     starting charge      27.9988, renormalised to      28.0000
     Starting wfcs are   18 randomized atomic wfcs

     total cpu time spent up to now is        1.0 secs

     Self-consistent Calculation

     iteration #  1     ecut=    30.00 Ry     beta= 0.50
     Davidson diagonalization with overlap
     ethr =  1.00E-02,  avg # of iterations =  2.0

     Threshold (ethr) on eigenvalues was too large:
     Diagonalizing with lowered threshold

     Davidson diagonalization with overlap
     ethr =  1.44E-04,  avg # of iterations =  2.0

     total cpu time spent up to now is        1.7 secs

     total energy              =    -421.74169912 Ry
     estimated scf accuracy    <       0.04446572 Ry

     iteration #  2     ecut=    30.00 Ry     beta= 0.50
     Davidson diagonalization with overlap
     ethr =  1.59E-04,  avg # of iterations =  1.1

     total cpu time spent up to now is        2.1 secs

     total energy              =    -421.74030551 Ry
     estimated scf accuracy    <       0.00772761 Ry

     iteration #  3     ecut=    30.00 Ry     beta= 0.50
     Davidson diagonalization with overlap
     ethr =  2.76E-05,  avg # of iterations =  2.0

     total cpu time spent up to now is        2.5 secs

     total energy              =    -421.74096428 Ry
     estimated scf accuracy    <       0.00008794 Ry

     iteration #  4     ecut=    30.00 Ry     beta= 0.50
     Davidson diagonalization with overlap
     ethr =  3.14E-07,  avg # of iterations =  3.8

     total cpu time spent up to now is        3.0 secs

     total energy              =    -421.74098765 Ry
     estimated scf accuracy    <       0.00001599 Ry

     iteration #  5     ecut=    30.00 Ry     beta= 0.50
     Davidson diagonalization with overlap
     ethr =  5.71E-08,  avg # of iterations =  2.2

     total cpu time spent up to now is        3.4 secs

     total energy              =    -421.74098949 Ry
     estimated scf accuracy    <       0.00000096 Ry

     iteration #  6     ecut=    30.00 Ry     beta= 0.50
     Davidson diagonalization with overlap
     ethr =  3.45E-09,  avg # of iterations =  2.8

     total cpu time spent up to now is        3.9 secs

     total energy              =    -421.74098993 Ry
     estimated scf accuracy    <       0.00000015 Ry

     iteration #  7     ecut=    30.00 Ry     beta= 0.50
     Davidson diagonalization with overlap
     ethr =  5.30E-10,  avg # of iterations =  2.6

     total cpu time spent up to now is        4.4 secs

     End of self-consistent calculation

          k = 0.0000 0.0000 0.0000 (   821 PWs)   bands (ev):

   -16.1115 -16.1115 -16.1115 -16.0490 -16.0490 -15.8181 -15.8181 -15.8180
   -15.8180 -15.8180  -4.2943   8.9555   8.9555   8.9556

          k = 0.1768 0.1768-0.1768 (   812 PWs)   bands (ev):

   -16.1209 -16.1209 -16.0969 -16.0282 -16.0282 -15.8551 -15.8551 -15.8450
   -15.7891 -15.7891  -3.5124   4.0940   8.0121   8.0121

          k =-0.3536-0.3536 0.3536 (   796 PWs)   bands (ev):

   -16.1227 -16.1227 -16.0885 -16.0192 -16.0192 -15.8568 -15.8568 -15.8415
   -15.7783 -15.7783  -2.0704   1.0340   7.4640   7.4640

          k = 0.3536 0.0000 0.0000 (   817 PWs)   bands (ev):

   -16.1242 -16.1242 -16.1194 -16.0208 -15.9866 -15.9314 -15.8403 -15.7997
   -15.7997 -15.7949  -3.2320   4.1793   6.7739   6.7739

          k =-0.1768-0.5303 0.5303 (   803 PWs)   bands (ev):

   -16.1507 -16.1353 -16.0649 -15.9843 -15.9621 -15.9447 -15.8863 -15.8506
   -15.7666 -15.7535  -1.6522   1.3480   4.9702   6.3926

          k = 0.0000-0.3536 0.3536 (   804 PWs)   bands (ev):

   -16.1425 -16.1379 -16.0507 -16.0156 -15.9869 -15.8997 -15.8785 -15.8598
   -15.7702 -15.7617  -2.3037   2.2520   4.8069   7.3514

          k =-0.7071 0.0000 0.0000 (   790 PWs)   bands (ev):

   -16.1319 -16.1319 -16.0533 -16.0533 -15.9262 -15.9261 -15.8653 -15.8653
   -15.7576 -15.7576  -0.2039  -0.2039   5.6789   5.6789

          k =-0.7071 0.3536 0.0000 (   792 PWs)   bands (ev):

   -16.1555 -16.1555 -15.9915 -15.9915 -15.9359 -15.9359 -15.9058 -15.9058
   -15.7419 -15.7419  -0.0885  -0.0884   4.7570   4.7570

     highest occupied level (ev):     8.9556

!    total energy              =    -421.74098993 Ry
     estimated scf accuracy    <       0.00000004 Ry

     The total energy is the sum of the following terms:
     one-electron contribution =    -269.19239091 Ry
     hartree contribution      =     160.29271627 Ry
     xc contribution           =    -111.73410811 Ry
     ewald contribution        =    -201.10720717 Ry

     convergence has been achieved in   7 iterations

     Forces acting on atoms (cartesian axes, Ry/au):

     atom    1 type  1   force =     0.00000000    0.00000000    0.00000000
     atom    2 type  1   force =     0.00000000    0.00000000    0.00000000
     The non-local contrib.  to forces
     atom    1 type  1   force =     0.00000000    0.00000000   -0.00000000
     atom    2 type  1   force =     0.00000000    0.00000000   -0.00000000
     The ionic contribution  to forces
     atom    1 type  1   force =     0.00000402    0.00000402    0.00000402
     atom    2 type  1   force =    -0.00000402   -0.00000402   -0.00000402
     The local contribution  to forces
     atom    1 type  1   force =     0.00000000    0.00000000    0.00000000
     atom    2 type  1   force =    -0.00013950   -0.00013950   -0.00013950
     The core correction contribution to forces
     atom    1 type  1   force =    -0.00000000   -0.00000000   -0.00000000
     atom    2 type  1   force =    -0.00001784   -0.00001784   -0.00001784
     The Hubbard contrib.    to forces
     atom    1 type  1   force =     0.00000000    0.00000000    0.00000000
     atom    2 type  1   force =     0.00000000    0.00000000    0.00000000
     The SCF correction term to forces
     atom    1 type  1   force =    -0.00000000   -0.00000000   -0.00000000
     atom    2 type  1   force =    -0.00000000   -0.00000000   -0.00000000

     Total force =     0.000000     Total SCF correction =     0.000000


     Computing stress (Cartesian axis) and pressure

          total   stress  (Ry/bohr**3)                   (kbar)     P=     -145.37
  -0.00098823  -0.00000000  -0.00000000         -145.37       -0.00       -0.00
  -0.00000000  -0.00098823   0.00000000           -0.00     -145.37        0.00
   0.00000000  -0.00000000  -0.00098823            0.00       -0.00     -145.37


     init_run     :      0.86s CPU      0.74s WALL (       1 calls)
     electrons    :      4.92s CPU      3.39s WALL (       1 calls)
     forces       :      0.12s CPU      0.07s WALL (       1 calls)
     stress       :      0.98s CPU      0.67s WALL (       1 calls)

     Called by init_run:
     wfcinit      :      0.46s CPU      0.31s WALL (       1 calls)
     potinit      :      0.00s CPU      0.01s WALL (       1 calls)
     hinit0       :      0.38s CPU      0.39s WALL (       1 calls)

     Called by electrons:
     c_bands      :      3.65s CPU      2.50s WALL (       8 calls)
     sum_band     :      0.94s CPU      0.68s WALL (       8 calls)
     v_of_rho     :      0.05s CPU      0.04s WALL (       8 calls)
     newd         :      0.26s CPU      0.17s WALL (       8 calls)
     mix_rho      :      0.01s CPU      0.01s WALL (       8 calls)

     Called by c_bands:
     init_us_2    :      0.15s CPU      0.11s WALL (     152 calls)
     init_us_2:cp :      0.15s CPU      0.10s WALL (     152 calls)
     cegterg      :      3.30s CPU      2.24s WALL (      64 calls)

     Called by *egterg:
     cdiaghg      :      0.19s CPU      0.13s WALL (     204 calls)
     h_psi        :      3.20s CPU      2.18s WALL (     220 calls)
     s_psi        :      0.06s CPU      0.04s WALL (     220 calls)
     g_psi        :      0.02s CPU      0.02s WALL (     148 calls)

     Called by h_psi:
     h_psi:calbec :      0.06s CPU      0.04s WALL (     220 calls)
     vloc_psi     :      3.05s CPU      2.08s WALL (     220 calls)
     add_vuspsi   :      0.06s CPU      0.04s WALL (     220 calls)

     General routines
     calbec       :      0.10s CPU      0.07s WALL (     324 calls)
     fft          :      0.17s CPU      0.17s WALL (      41 calls)
     ffts         :      0.01s CPU      0.01s WALL (       8 calls)
     fftw         :      2.87s CPU      1.97s WALL (    5694 calls)

     Parallel routines

     PWSCF        :      7.07s CPU      5.13s WALL


   This run was terminated on:  15:53:46  14Oct2023            

=------------------------------------------------------------------------------=
   JOB DONE.
=------------------------------------------------------------------------------=
