
     Program PWSCF v.7.2 starts on  1Nov2023 at 16:59:51 

     This program is part of the open-source Quantum ESPRESSO suite
     for quantum simulation of materials; please cite
         "P. Giannozzi et al., J. Phys.:Condens. Matter 21 395502 (2009);
         "P. Giannozzi et al., J. Phys.:Condens. Matter 29 465901 (2017);
         "P. Giannozzi et al., J. Chem. Phys. 152 154105 (2020);
          URL http://www.quantum-espresso.org", 
     in publications or presentations arising from this work. More details at
     http://www.quantum-espresso.org/quote

     Parallel version (MPI), running on     4 processors

     MPI processes distributed on     4 nodes
     186607 MiB available memory on the printing compute node when the environment starts

     Waiting for input...
     Reading input from standard input
Warning: card &CELL ignored
Warning: card / ignored

     Current dimensions of program PWSCF are:
     Max number of different atomic species (ntypx) = 10
     Max number of k-points (npk) =  40000
     Max angular momentum in pseudopotentials (lmaxx) =  4
     file Fe.pbe-nd-rrkjus.UPF: wavefunction(s)  4S renormalized
     Message from routine setup:
     using ibrav=0 with symmetry is DISCOURAGED, use correct ibrav instead

     R & G space division:  proc/nbgrp/npool/nimage =       4
     Subspace diagonalization in iterative solution of the eigenvalue problem:
     a serial algorithm will be used


     Parallelization info
     --------------------
     sticks:   dense  smooth     PW     G-vecs:    dense   smooth      PW
     Min         193      96     38                 3392     1188     301
     Max         194      97     39                 3394     1189     302
     Sum         773     387    155                13571     4753    1205

     Using Slab Decomposition



     bravais-lattice index     =            0
     lattice parameter (alat)  =       6.5462  a.u.
     unit-cell volume          =     215.9467 (a.u.)^3
     number of atoms/cell      =            1
     number of atomic types    =            1
     number of electrons       =         8.00
     number of Kohn-Sham states=            8
     kinetic-energy cutoff     =      30.0000  Ry
     charge density cutoff     =     240.0000  Ry
     scf convergence threshold =      1.0E-07
     mixing beta               =       0.5000
     number of iterations used =            8  plain     mixing
     Exchange-correlation=  SLA  PW   PBE  PBE
                           (   1   4   3   4   0   0   0)

     celldm(1)=   6.546203  celldm(2)=   0.000000  celldm(3)=   0.000000
     celldm(4)=   0.000000  celldm(5)=   0.000000  celldm(6)=   0.000000

     crystal axes: (cart. coord. in units of alat)
               a(1) = (  -0.577350   0.577350   0.577350 )  
               a(2) = (   0.577350  -0.577350   0.577350 )  
               a(3) = (   0.577350   0.577350  -0.577350 )  

     reciprocal axes: (cart. coord. in units 2 pi/alat)
               b(1) = (  0.000000  0.866025  0.866025 )  
               b(2) = (  0.866025  0.000000  0.866025 )  
               b(3) = (  0.866025  0.866025  0.000000 )  


     PseudoPot. # 1 for Fe read from file:
     /home/gridsan/epan1/labutil/lab3_samples/pseudopotentials/Fe.pbe-nd-rrkjus.UPF
     MD5 check sum: 398036227a04b607635f6f5e8dfd8242
     Pseudo is Ultrasoft + core correction, Zval =  8.0
     Generated by new atomic code, or converted to UPF format
     Using radial grid of  957 points,  6 beta functions with: 
                l(1) =   0
                l(2) =   0
                l(3) =   1
                l(4) =   1
                l(5) =   2
                l(6) =   2
     Q(r) pseudized with 0 coefficients 


     atomic species   valence    mass     pseudopotential
        Fe             8.00    55.84500     Fe( 1.00)

     Starting magnetic structure 
     atomic species   magnetization
        Fe           0.700

     48 Sym. Ops., with inversion, found



   Cartesian axes

     site n.     atom                  positions (alat units)
         1           Fe  tau(   1) = (   0.0000000   0.0000000   0.0000000  )

     number of k points=    47  Methfessel-Paxton smearing, width (Ry)=  0.0200
                       cart. coord. in units 2pi/alat
        k(    1) = (   0.0000000   0.0000000   0.0000000), wk =   0.0010000
        k(    2) = (   0.0866025   0.0866025   0.0000000), wk =   0.0120000
        k(    3) = (   0.1732051   0.1732051   0.0000000), wk =   0.0120000
        k(    4) = (   0.2598076   0.2598076   0.0000000), wk =   0.0120000
        k(    5) = (   0.3464102   0.3464102   0.0000000), wk =   0.0120000
        k(    6) = (  -0.4330127  -0.4330127   0.0000000), wk =   0.0060000
        k(    7) = (   0.1732051   0.0866025   0.0866025), wk =   0.0240000
        k(    8) = (   0.2598076   0.1732051   0.0866025), wk =   0.0480000
        k(    9) = (   0.3464102   0.2598076   0.0866025), wk =   0.0480000
        k(   10) = (   0.4330127   0.3464102   0.0866025), wk =   0.0480000
        k(   11) = (   0.3464102   0.1732051   0.1732051), wk =   0.0240000
        k(   12) = (   0.4330127   0.2598076   0.1732051), wk =   0.0480000
        k(   13) = (   0.5196152   0.3464102   0.1732051), wk =   0.0240000
        k(   14) = (   0.5196152   0.2598076   0.2598076), wk =   0.0240000
        k(   15) = (   0.1732051   0.1732051   0.1732051), wk =   0.0080000
        k(   16) = (   0.2598076   0.2598076   0.1732051), wk =   0.0240000
        k(   17) = (   0.3464102   0.3464102   0.1732051), wk =   0.0240000
        k(   18) = (   0.4330127   0.4330127   0.1732051), wk =   0.0120000
        k(   19) = (   0.0000000   0.0000000   0.1732051), wk =   0.0060000
        k(   20) = (   0.3464102   0.2598076   0.2598076), wk =   0.0240000
        k(   21) = (   0.4330127   0.3464102   0.2598076), wk =   0.0480000
        k(   22) = (   0.0000000  -0.0866025   0.2598076), wk =   0.0240000
        k(   23) = (   0.5196152   0.3464102   0.3464102), wk =   0.0080000
        k(   24) = (   0.0000000  -0.1732051   0.3464102), wk =   0.0240000
        k(   25) = (   0.0866025  -0.0866025   0.3464102), wk =   0.0240000
        k(   26) = (   0.0000000  -0.2598076   0.4330127), wk =   0.0240000
        k(   27) = (   0.0866025  -0.1732051   0.4330127), wk =   0.0480000
        k(   28) = (  -0.8660254  -0.3464102  -0.3464102), wk =   0.0120000
        k(   29) = (  -0.7794229  -0.2598076  -0.3464102), wk =   0.0480000
        k(   30) = (  -0.6928203  -0.1732051  -0.3464102), wk =   0.0240000
        k(   31) = (  -0.6928203  -0.2598076  -0.2598076), wk =   0.0240000
        k(   32) = (   0.3464102   0.3464102   0.3464102), wk =   0.0080000
        k(   33) = (   0.4330127   0.4330127   0.3464102), wk =   0.0120000
        k(   34) = (   0.0000000   0.0000000   0.3464102), wk =   0.0060000
        k(   35) = (   0.0000000  -0.0866025   0.4330127), wk =   0.0240000
        k(   36) = (   0.0000000  -0.1732051   0.5196152), wk =   0.0240000
        k(   37) = (   0.0866025  -0.0866025   0.5196152), wk =   0.0240000
        k(   38) = (  -0.8660254  -0.2598076  -0.2598076), wk =   0.0120000
        k(   39) = (  -0.7794229  -0.1732051  -0.2598076), wk =   0.0480000
        k(   40) = (  -0.6928203  -0.1732051  -0.1732051), wk =   0.0080000
        k(   41) = (   0.0000000   0.0000000   0.5196152), wk =   0.0060000
        k(   42) = (   0.0000000  -0.0866025   0.6062178), wk =   0.0240000
        k(   43) = (  -0.8660254  -0.1732051  -0.1732051), wk =   0.0120000
        k(   44) = (  -0.7794229  -0.0866025  -0.1732051), wk =   0.0240000
        k(   45) = (   0.0000000   0.0000000   0.6928203), wk =   0.0060000
        k(   46) = (  -0.8660254  -0.0866025  -0.0866025), wk =   0.0120000
        k(   47) = (  -0.8660254  -0.8660254  -0.8660254), wk =   0.0010000

     Dense  grid:    13571 G-vectors     FFT dimensions: (  36,  36,  36)

     Smooth grid:     4753 G-vectors     FFT dimensions: (  24,  24,  24)

     Estimated max dynamical RAM per process >      17.17 MB

     Estimated total dynamical RAM >      68.69 MB

     Check: negative core charge=   -0.000007
     Generating pointlists ...
     new r_m :   0.4125 (alat units)  2.7003 (a.u.) for type    1

     Initial potential from superposition of free atoms

     starting charge       7.9994, renormalised to       8.0000
     Starting wfcs are    6 randomized atomic wfcs +    2 random wfcs

     total cpu time spent up to now is        2.0 secs

     Self-consistent Calculation

     iteration #  1     ecut=    30.00 Ry     beta= 0.50
     Davidson diagonalization with overlap
     ethr =  1.00E-02,  avg # of iterations =  5.5

     total cpu time spent up to now is        4.4 secs

     total energy              =     -55.32687645 Ry
     estimated scf accuracy    <       0.55891991 Ry

     total magnetization       =     4.50 Bohr mag/cell
     absolute magnetization    =     4.50 Bohr mag/cell

     iteration #  2     ecut=    30.00 Ry     beta= 0.50
     Davidson diagonalization with overlap
     ethr =  6.99E-03,  avg # of iterations =  2.0

     total cpu time spent up to now is        5.8 secs

     total energy              =     -55.48041177 Ry
     estimated scf accuracy    <       0.90920307 Ry

     total magnetization       =     2.76 Bohr mag/cell
     absolute magnetization    =     2.76 Bohr mag/cell

     iteration #  3     ecut=    30.00 Ry     beta= 0.50
     Davidson diagonalization with overlap
     ethr =  6.99E-03,  avg # of iterations =  1.1

     total cpu time spent up to now is        7.2 secs

     total energy              =     -55.59392173 Ry
     estimated scf accuracy    <       0.01099582 Ry

     total magnetization       =     3.56 Bohr mag/cell
     absolute magnetization    =     3.58 Bohr mag/cell

     iteration #  4     ecut=    30.00 Ry     beta= 0.50
     Davidson diagonalization with overlap
     ethr =  1.37E-04,  avg # of iterations =  3.6

     total cpu time spent up to now is        8.7 secs

     total energy              =     -55.60177834 Ry
     estimated scf accuracy    <       0.00293369 Ry

     total magnetization       =     3.45 Bohr mag/cell
     absolute magnetization    =     3.59 Bohr mag/cell

     iteration #  5     ecut=    30.00 Ry     beta= 0.50
     Davidson diagonalization with overlap
     ethr =  3.67E-05,  avg # of iterations =  2.3

     total cpu time spent up to now is       10.8 secs

     total energy              =     -55.60483615 Ry
     estimated scf accuracy    <       0.00180761 Ry

     total magnetization       =     3.24 Bohr mag/cell
     absolute magnetization    =     3.49 Bohr mag/cell

     iteration #  6     ecut=    30.00 Ry     beta= 0.50
     Davidson diagonalization with overlap
     ethr =  2.26E-05,  avg # of iterations =  1.2

     total cpu time spent up to now is       12.3 secs

     total energy              =     -55.60492854 Ry
     estimated scf accuracy    <       0.00043615 Ry

     total magnetization       =     3.26 Bohr mag/cell
     absolute magnetization    =     3.52 Bohr mag/cell

     iteration #  7     ecut=    30.00 Ry     beta= 0.50
     Davidson diagonalization with overlap
     c_bands:  1 eigenvalues not converged
     ethr =  5.45E-06,  avg # of iterations =  2.9

     total cpu time spent up to now is       14.2 secs

     total energy              =     -55.60509937 Ry
     estimated scf accuracy    <       0.00009457 Ry

     total magnetization       =     3.27 Bohr mag/cell
     absolute magnetization    =     3.53 Bohr mag/cell

     iteration #  8     ecut=    30.00 Ry     beta= 0.50
     Davidson diagonalization with overlap
     ethr =  1.18E-06,  avg # of iterations =  2.5

     total cpu time spent up to now is       15.6 secs

     total energy              =     -55.60512231 Ry
     estimated scf accuracy    <       0.00004186 Ry

     total magnetization       =     3.27 Bohr mag/cell
     absolute magnetization    =     3.53 Bohr mag/cell

     iteration #  9     ecut=    30.00 Ry     beta= 0.50
     Davidson diagonalization with overlap
     ethr =  5.23E-07,  avg # of iterations =  1.9

     total cpu time spent up to now is       17.3 secs

     total energy              =     -55.60514320 Ry
     estimated scf accuracy    <       0.00000456 Ry

     total magnetization       =     3.28 Bohr mag/cell
     absolute magnetization    =     3.53 Bohr mag/cell

     iteration # 10     ecut=    30.00 Ry     beta= 0.50
     Davidson diagonalization with overlap
     ethr =  5.70E-08,  avg # of iterations =  3.7

     total cpu time spent up to now is       19.2 secs

     total energy              =     -55.60514805 Ry
     estimated scf accuracy    <       0.00000145 Ry

     total magnetization       =     3.28 Bohr mag/cell
     absolute magnetization    =     3.53 Bohr mag/cell

     iteration # 11     ecut=    30.00 Ry     beta= 0.50
     Davidson diagonalization with overlap
     ethr =  1.81E-08,  avg # of iterations =  2.9

     Magnetic moment per site  (integrated on atomic sphere of radius R)
     atom   1 (R=0.413)  charge=  7.0808  magn=  3.3940

     total cpu time spent up to now is       20.7 secs

     End of self-consistent calculation

 ------ SPIN UP ------------


          k = 0.0000 0.0000 0.0000 (   603 PWs)   bands (ev):

    -1.8024  -0.1226  -0.1226  -0.1025  -0.1025  -0.1025  15.5208  15.5208

          k = 0.0866 0.0866 0.0000 (   609 PWs)   bands (ev):

    -1.6093  -0.1429  -0.1220  -0.1183  -0.0907  -0.0611  13.7923  14.6754

          k = 0.1732 0.1732 0.0000 (   605 PWs)   bands (ev):

    -1.0693  -0.1773  -0.1592  -0.1192  -0.0353   0.0511  10.8625  13.3537

          k = 0.2598 0.2598 0.0000 (   601 PWs)   bands (ev):

    -0.5876  -0.2095  -0.1145  -0.0939   0.1967   0.3523   8.0588  12.2483

          k = 0.3464 0.3464 0.0000 (   596 PWs)   bands (ev):

    -0.5599  -0.2500  -0.1095  -0.0366   0.3213   1.6260   5.5557  11.5280

          k =-0.4330-0.4330 0.0000 (   590 PWs)   bands (ev):

    -0.5762  -0.2655  -0.1074  -0.0204   0.3707   3.3044   3.4916  11.2776

          k = 0.1732 0.0866 0.0866 (   603 PWs)   bands (ev):

    -1.2380  -0.1839  -0.1443  -0.1010  -0.0865   0.0330  12.1411  12.8288

          k = 0.2598 0.1732 0.0866 (   606 PWs)   bands (ev):

    -0.6543  -0.2241  -0.1512  -0.0840  -0.0213   0.2581   9.5114  11.4267

          k = 0.3464 0.2598 0.0866 (   597 PWs)   bands (ev):

    -0.4993  -0.2344  -0.1339  -0.0428   0.1937   1.0912   6.8892  10.5729

          k = 0.4330 0.3464 0.0866 (   598 PWs)   bands (ev):

    -0.5292  -0.2518  -0.1283  -0.0212   0.3094   2.6192   4.5737  10.1320

          k = 0.3464 0.1732 0.1732 (   595 PWs)   bands (ev):

    -0.3910  -0.2994  -0.1210  -0.0258   0.0447   0.9592   8.1898   9.0750

          k = 0.4330 0.2598 0.1732 (   600 PWs)   bands (ev):

    -0.4079  -0.2778  -0.1547   0.0037   0.1763   2.2522   6.0660   8.1326

          k = 0.5196 0.3464 0.1732 (   597 PWs)   bands (ev):

    -0.4337  -0.2478  -0.1842   0.0140   0.2283   3.8651   4.1056   7.8910

          k = 0.5196 0.2598 0.2598 (   592 PWs)   bands (ev):

    -0.3170  -0.3110  -0.2204   0.0726   0.1508   3.7505   5.4608   6.1285

          k = 0.1732 0.1732 0.1732 (   616 PWs)   bands (ev):

    -0.7445  -0.2130  -0.2130  -0.0844  -0.0844   0.2534  10.5279  11.6578

          k = 0.2598 0.2598 0.1732 (   605 PWs)   bands (ev):

    -0.3851  -0.2383  -0.1249  -0.0913  -0.0367   0.8379   8.2875  10.1171

          k = 0.3464 0.3464 0.1732 (   593 PWs)   bands (ev):

    -0.4293  -0.2534  -0.1012  -0.0357   0.1374   2.0749   5.9003   9.3943

          k = 0.4330 0.4330 0.1732 (   598 PWs)   bands (ev):

    -0.4552  -0.2581  -0.1062  -0.0223   0.2064   3.7295   3.8687   9.1596

          k = 0.0000 0.0000 0.1732 (   599 PWs)   bands (ev):

    -1.4195  -0.1690  -0.1019  -0.0908  -0.0908  -0.0609  13.7520  13.7686

          k = 0.3464 0.2598 0.2598 (   605 PWs)   bands (ev):

    -0.2982  -0.2796  -0.0971  -0.0389  -0.0078   1.9095   7.1447   8.1577

          k = 0.4330 0.3464 0.2598 (   596 PWs)   bands (ev):

    -0.3317  -0.2499  -0.1244  -0.0198   0.0744   3.3981   5.3112   7.3625

          k = 0.0000-0.0866 0.2598 (   600 PWs)   bands (ev):

    -0.9027  -0.2259  -0.1189  -0.0680  -0.0279   0.0425  11.0001  12.4789

          k = 0.5196 0.3464 0.3464 (   595 PWs)   bands (ev):

    -0.2800  -0.1988  -0.1988   0.0196   0.0196   4.5032   5.5220   5.5221

          k = 0.0000-0.1732 0.3464 (   608 PWs)   bands (ev):

    -0.5148  -0.2331  -0.1650  -0.0405   0.1894   0.5116   8.2298  11.4274

          k = 0.0866-0.0866 0.3464 (   604 PWs)   bands (ev):

    -0.4950  -0.2993  -0.1028  -0.0313   0.0817   0.3832   9.5825  10.2772

          k = 0.0000-0.2598 0.4330 (   598 PWs)   bands (ev):

    -0.5211  -0.2023  -0.1961  -0.0239   0.3161   1.8194   5.7383  10.7459

          k = 0.0866-0.1732 0.4330 (   595 PWs)   bands (ev):

    -0.4362  -0.3086  -0.1378   0.0049   0.2195   1.4380   7.2261   9.2193

          k =-0.8660-0.3464-0.3464 (   602 PWs)   bands (ev):

    -0.5430  -0.2167  -0.1833  -0.0188   0.3662   3.5635   3.6140  10.5088

          k =-0.7794-0.2598-0.3464 (   595 PWs)   bands (ev):

    -0.4843  -0.2688  -0.1784   0.0201   0.3140   2.9915   4.9453   8.7745

          k =-0.6928-0.1732-0.3464 (   591 PWs)   bands (ev):

    -0.3966  -0.3633  -0.1720   0.0905   0.2393   2.7918   6.3450   7.0861

          k =-0.6928-0.2598-0.2598 (   594 PWs)   bands (ev):

    -0.4164  -0.3380  -0.2059   0.1285   0.2504   4.2923   4.7733   6.5897

          k = 0.3464 0.3464 0.3464 (   601 PWs)   bands (ev):

    -0.2379  -0.2379  -0.0746  -0.0746  -0.0401   3.2145   6.3409   7.5928

          k = 0.4330 0.4330 0.3464 (   588 PWs)   bands (ev):

    -0.2199  -0.2059  -0.1039  -0.0616  -0.0515   4.4752   5.3142   6.7952

          k = 0.0000 0.0000 0.3464 (   603 PWs)   bands (ev):

    -0.5466  -0.2954  -0.0370  -0.0370   0.0475   0.1926  11.2086  11.2086

          k = 0.0000-0.0866 0.4330 (   595 PWs)   bands (ev):

    -0.4233  -0.3615  -0.0453   0.0048   0.1730   1.0154   8.7164  10.1722

          k = 0.0000-0.1732 0.5196 (   602 PWs)   bands (ev):

    -0.4824  -0.3550  -0.0718   0.0278   0.3024   2.3728   6.2782   9.5005

          k = 0.0866-0.0866 0.5196 (   599 PWs)   bands (ev):

    -0.4465  -0.4207  -0.0370   0.0892   0.2432   2.1614   7.6719   8.2878

          k =-0.8660-0.2598-0.2598 (   596 PWs)   bands (ev):

    -0.5126  -0.3498  -0.0824   0.0342   0.3549   4.0155   4.2733   9.2669

          k =-0.7794-0.1732-0.2598 (   596 PWs)   bands (ev):

    -0.4970  -0.4299  -0.0528   0.1374   0.3109   3.7044   5.6759   7.6318

          k =-0.6928-0.1732-0.1732 (   595 PWs)   bands (ev):

    -0.4801  -0.4801  -0.0601   0.2537   0.2537   4.9229   5.7804   5.7804

          k = 0.0000 0.0000 0.5196 (   594 PWs)   bands (ev):

    -0.4623  -0.4451   0.0863   0.0863   0.1802   1.9402   9.1285   9.1285

          k = 0.0000-0.0866 0.6062 (   601 PWs)   bands (ev):

    -0.5321  -0.4954   0.1028   0.1450   0.2864   3.2843   7.1216   8.4460

          k =-0.8660-0.1732-0.1732 (   602 PWs)   bands (ev):

    -0.5602  -0.5138   0.0982   0.1642   0.3410   4.7722   5.3099   8.2074

          k =-0.7794-0.0866-0.1732 (   605 PWs)   bands (ev):

    -0.5733  -0.5558   0.1233   0.2486   0.3122   4.7570   6.5365   6.9797

          k = 0.0000 0.0000 0.6928 (   602 PWs)   bands (ev):

    -0.6050  -0.5867   0.2456   0.2456   0.2856   4.5666   7.7490   7.7490

          k =-0.8660-0.0866-0.0866 (   606 PWs)   bands (ev):

    -0.6309  -0.6236   0.2596   0.2816   0.3298   5.9304   6.5112   7.5040

          k =-0.8660-0.8660-0.8660 (   610 PWs)   bands (ev):

    -0.6614  -0.6614   0.3254   0.3254   0.3254   7.2556   7.2557   7.6392

 ------ SPIN DOWN ----------


          k = 0.0000 0.0000 0.0000 (   603 PWs)   bands (ev):

    -1.6342   3.0052   3.0052   3.0052   3.8292   3.8292  16.5241  16.5242

          k = 0.0866 0.0866 0.0000 (   609 PWs)   bands (ev):

    -1.4388   2.9749   3.0008   3.0650   3.7992   3.8311  14.4511  15.5282

          k = 0.1732 0.1732 0.0000 (   605 PWs)   bands (ev):

    -0.8625   2.8968   2.9770   3.2304   3.7393   3.8385  11.4319  14.0793

          k = 0.2598 0.2598 0.0000 (   601 PWs)   bands (ev):

     0.0526   2.8015   2.9367   3.4534   3.7027   3.8522   8.6746  12.8675

          k = 0.3464 0.3464 0.0000 (   596 PWs)   bands (ev):

     1.1360   2.7255   2.9887   3.6530   3.6991   3.8671   6.3589  12.0604

          k =-0.4330-0.4330 0.0000 (   590 PWs)   bands (ev):

     1.7088   2.6968   3.2528   3.7029   3.7348   3.8737   5.1189  11.7744

          k = 0.1732 0.0866 0.0866 (   603 PWs)   bands (ev):

    -1.0527   2.9373   2.9624   3.1863   3.7503   3.8395  12.8312  13.2519

          k = 0.2598 0.1732 0.0866 (   606 PWs)   bands (ev):

    -0.3030   2.8516   2.9158   3.3946   3.6986   3.8548  10.0997  11.9269

          k = 0.3464 0.2598 0.0866 (   597 PWs)   bands (ev):

     0.7267   2.7623   2.8829   3.6350   3.6858   3.8766   7.5506  11.0685

          k = 0.4330 0.3464 0.0866 (   598 PWs)   bands (ev):

     1.6655   2.7083   2.9922   3.6960   3.8018   4.0122   5.5625  10.6057

          k = 0.3464 0.1732 0.1732 (   595 PWs)   bands (ev):

     0.5776   2.8065   2.8146   3.6397   3.6713   3.8879   8.8032   9.5616

          k = 0.4330 0.2598 0.1732 (   600 PWs)   bands (ev):

     1.5917   2.7282   2.7921   3.6832   3.7880   4.1213   6.7489   8.6601

          k = 0.5196 0.3464 0.1732 (   597 PWs)   bands (ev):

     2.0964   2.7025   2.8359   3.6998   3.7946   4.8040   5.2126   8.4145

          k = 0.5196 0.2598 0.2598 (   592 PWs)   bands (ev):

     2.2793   2.6891   2.7352   3.7136   3.7691   4.9228   6.1632   6.7626

          k = 0.1732 0.1732 0.1732 (   616 PWs)   bands (ev):

    -0.4877   2.8656   2.8656   3.3936   3.7935   3.7935  11.2352  12.0450

          k = 0.2598 0.2598 0.1732 (   605 PWs)   bands (ev):

     0.4054   2.7604   2.7961   3.6583   3.7633   3.8363   8.8910  10.6250

          k = 0.3464 0.3464 0.1732 (   593 PWs)   bands (ev):

     1.4464   2.6831   2.7782   3.7539   3.8663   3.9994   6.6044   9.9111

          k = 0.4330 0.4330 0.1732 (   598 PWs)   bands (ev):

     1.9717   2.6549   2.8627   3.7555   3.8767   4.5281   5.1569   9.6668

          k = 0.0000 0.0000 0.1732 (   599 PWs)   bands (ev):

    -1.2444   3.0035   3.0035   3.0691   3.7304   3.8618  14.4288  14.4375

          k = 0.3464 0.2598 0.2598 (   605 PWs)   bands (ev):

     1.3510   2.6901   2.6915   3.7857   3.8454   4.0277   7.7422   8.6696

          k = 0.4330 0.3464 0.2598 (   596 PWs)   bands (ev):

     2.1450   2.6331   2.6880   3.7972   3.8610   4.6772   6.0222   7.9068

          k = 0.0000-0.0866 0.2598 (   600 PWs)   bands (ev):

    -0.6712   2.9487   2.9964   3.2179   3.6343   3.8802  11.5802  13.0758

          k = 0.5196 0.3464 0.3464 (   595 PWs)   bands (ev):

     2.4371   2.6319   2.6319   3.8347   3.8347   5.4903   6.1773   6.1773

          k = 0.0000-0.1732 0.3464 (   608 PWs)   bands (ev):

     0.2368   2.8619   2.9596   3.4416   3.5901   3.8908   8.8375  11.9717

          k = 0.0866-0.0866 0.3464 (   604 PWs)   bands (ev):

     0.0665   2.9402   2.9602   3.3818   3.5351   3.8991  10.1977  10.7489

          k = 0.0000-0.2598 0.4330 (   598 PWs)   bands (ev):

     1.3049   2.7919   2.9625   3.6120   3.6445   3.9510   6.5065  11.2332

          k = 0.0866-0.1732 0.4330 (   595 PWs)   bands (ev):

     1.0685   2.8695   2.9169   3.5267   3.6006   3.9546   7.8590   9.7266

          k =-0.8660-0.3464-0.3464 (   602 PWs)   bands (ev):

     1.8625   2.7651   3.0762   3.6267   3.7280   4.2199   5.1539  10.9698

          k =-0.7794-0.2598-0.3464 (   595 PWs)   bands (ev):

     1.9580   2.8222   2.9067   3.5676   3.7109   4.3605   5.8027   9.2683

          k =-0.6928-0.1732-0.3464 (   591 PWs)   bands (ev):

     1.9759   2.7959   2.8830   3.5487   3.6861   4.3519   6.9982   7.6637

          k =-0.6928-0.2598-0.2598 (   594 PWs)   bands (ev):

     2.4246   2.7898   2.7972   3.5918   3.6798   5.4274   5.4580   7.1839

          k = 0.3464 0.3464 0.3464 (   601 PWs)   bands (ev):

     2.1532   2.6119   2.6119   3.8578   3.8578   4.5944   6.9173   8.1212

          k = 0.4330 0.4330 0.3464 (   588 PWs)   bands (ev):

     2.4800   2.5859   2.6152   3.8614   3.8821   5.4337   5.9710   7.3568

          k = 0.0000 0.0000 0.3464 (   603 PWs)   bands (ev):

    -0.1094   3.0434   3.0434   3.2361   3.4560   3.9065  11.7486  11.7486

          k = 0.0000-0.0866 0.4330 (   595 PWs)   bands (ev):

     0.7702   3.0263   3.0362   3.3653   3.4177   3.9266   9.2986  10.6633

          k = 0.0000-0.1732 0.5196 (   602 PWs)   bands (ev):

     1.7677   2.9253   2.9797   3.4315   3.6227   4.1319   6.9578   9.9371

          k = 0.0866-0.0866 0.5196 (   599 PWs)   bands (ev):

     1.6793   2.9490   3.0685   3.3596   3.5617   4.0747   8.2713   8.7822

          k =-0.8660-0.2598-0.2598 (   596 PWs)   bands (ev):

     2.2669   2.8665   2.9603   3.4509   3.7108   4.9288   5.2961   9.6771

          k =-0.7794-0.1732-0.2598 (   596 PWs)   bands (ev):

     2.4115   2.8225   3.0128   3.4459   3.6582   4.8085   6.3587   8.1361

          k =-0.6928-0.1732-0.1732 (   595 PWs)   bands (ev):

     2.7677   2.7677   2.8581   3.5854   3.5854   5.8574   6.3620   6.3621

          k = 0.0000 0.0000 0.5196 (   594 PWs)   bands (ev):

     1.5615   3.0898   3.2070   3.2070   3.4410   3.9997   9.5607   9.5607

          k = 0.0000-0.0866 0.6062 (   601 PWs)   bands (ev):

     2.3144   2.8891   3.2489   3.3432   3.5985   4.4601   7.6657   8.8084

          k =-0.8660-0.1732-0.1732 (   602 PWs)   bands (ev):

     2.6602   2.7370   3.2457   3.3710   3.6895   5.6841   5.8435   8.5347

          k =-0.7794-0.0866-0.1732 (   605 PWs)   bands (ev):

     2.6538   2.7714   3.2499   3.5167   3.6399   5.5155   7.0658   7.3948

          k = 0.0000 0.0000 0.6928 (   602 PWs)   bands (ev):

     2.5922   2.7776   3.4904   3.4904   3.6042   5.2719   8.0172   8.0172

          k =-0.8660-0.0866-0.0866 (   606 PWs)   bands (ev):

     2.6738   2.6947   3.5341   3.5623   3.6725   6.5245   6.8441   7.7223

          k =-0.8660-0.8660-0.8660 (   610 PWs)   bands (ev):

     2.6555   2.6555   3.6658   3.6658   3.6658   7.4147   7.4147   8.8430

     the Fermi energy is     2.9394 ev

!    total energy              =     -55.60515114 Ry
     estimated scf accuracy    <       0.00000004 Ry
     smearing contrib. (-TS)   =      -0.00190621 Ry
     internal energy E=F+TS    =     -55.60324494 Ry

     The total energy is F=E-TS. E is the sum of the following terms:
     one-electron contribution =     -11.22994941 Ry
     hartree contribution      =      12.66390782 Ry
     xc contribution           =     -26.22441283 Ry
     ewald contribution        =     -30.81279051 Ry

     total magnetization       =     3.28 Bohr mag/cell
     absolute magnetization    =     3.53 Bohr mag/cell

     convergence has been achieved in  11 iterations

     Forces acting on atoms (cartesian axes, Ry/au):

     atom    1 type  1   force =     0.00000000    0.00000000    0.00000000
     The non-local contrib.  to forces
     atom    1 type  1   force =    -0.00000000    0.00000000   -0.00000000
     The ionic contribution  to forces
     atom    1 type  1   force =    -0.00000000   -0.00000000   -0.00000000
     The local contribution  to forces
     atom    1 type  1   force =     0.00000000    0.00000000    0.00000000
     The core correction contribution to forces
     atom    1 type  1   force =     0.00000000    0.00000000    0.00000000
     The Hubbard contrib.    to forces
     atom    1 type  1   force =     0.00000000    0.00000000    0.00000000
     The SCF correction term to forces
     atom    1 type  1   force =     0.00000000    0.00000000   -0.00000000

     Total force =     0.000000     Total SCF correction =     0.000000


     Computing stress (Cartesian axis) and pressure

          total   stress  (Ry/bohr**3)                   (kbar)     P=     -164.44
  -0.00111786  -0.00000000  -0.00000000         -164.44       -0.00       -0.00
  -0.00000000  -0.00111786  -0.00000000           -0.00     -164.44       -0.00
  -0.00000000  -0.00000000  -0.00111786           -0.00       -0.00     -164.44


     init_run     :      1.05s CPU      1.59s WALL (       1 calls)
     electrons    :     12.19s CPU     18.68s WALL (       1 calls)
     forces       :      0.20s CPU      0.34s WALL (       1 calls)
     stress       :      0.54s CPU      0.98s WALL (       1 calls)

     Called by init_run:
     wfcinit      :      0.35s CPU      0.63s WALL (       1 calls)
     potinit      :      0.29s CPU      0.44s WALL (       1 calls)
     hinit0       :      0.38s CPU      0.46s WALL (       1 calls)

     Called by electrons:
     c_bands      :      8.96s CPU     13.88s WALL (      11 calls)
     sum_band     :      2.19s CPU      3.36s WALL (      11 calls)
     v_of_rho     :      0.65s CPU      0.90s WALL (      12 calls)
     newd         :      0.24s CPU      0.44s WALL (      12 calls)
     mix_rho      :      0.06s CPU      0.06s WALL (      11 calls)

     Called by c_bands:
     init_us_2    :      0.18s CPU      0.26s WALL (    2350 calls)
     init_us_2:cp :      0.18s CPU      0.26s WALL (    2350 calls)
     cegterg      :      7.18s CPU      8.49s WALL (    1034 calls)

     Called by *egterg:
     cdiaghg      :      0.47s CPU      0.54s WALL (    3814 calls)
     h_psi        :      5.75s CPU      6.94s WALL (    3908 calls)
     s_psi        :      0.08s CPU      0.08s WALL (    3908 calls)
     g_psi        :      0.01s CPU      0.02s WALL (    2780 calls)

     Called by h_psi:
     h_psi:calbec :      0.39s CPU      0.48s WALL (    3908 calls)
     vloc_psi     :      5.28s CPU      6.34s WALL (    3908 calls)
     add_vuspsi   :      0.06s CPU      0.09s WALL (    3908 calls)

     General routines
     calbec       :      0.83s CPU      1.24s WALL (    5412 calls)
     fft          :      0.76s CPU      1.10s WALL (     338 calls)
     ffts         :      0.15s CPU      0.16s WALL (      46 calls)
     fftw         :      6.07s CPU      7.71s WALL (   50014 calls)
     interpolate  :      0.18s CPU      0.22s WALL (      24 calls)

     Parallel routines

     PWSCF        :     14.27s CPU     22.01s WALL


   This run was terminated on:  17: 0:13   1Nov2023            

=------------------------------------------------------------------------------=
   JOB DONE.
=------------------------------------------------------------------------------=
