Header of the LAMMPS data file 

4 atoms 
1 atom types

0.0 4.017171717171717  xlo xhi
0.0 4.017171717171717  ylo yhi
0.0 4.017171717171717  zlo zhi

Masses 

1  107.8682

Atoms # atomic 

1 1 0.00000 0.00000 0.00000 
2 1 0.00000 2.00859 2.00859 
3 1 2.00859 0.00000 2.00859 
4 1 2.00859 2.00859 0.00000 
