
     Program PWSCF v.7.2 starts on  3Nov2023 at 10:55:25 

     This program is part of the open-source Quantum ESPRESSO suite
     for quantum simulation of materials; please cite
         "P. Giannozzi et al., J. Phys.:Condens. Matter 21 395502 (2009);
         "P. Giannozzi et al., J. Phys.:Condens. Matter 29 465901 (2017);
         "P. Giannozzi et al., J. Chem. Phys. 152 154105 (2020);
          URL http://www.quantum-espresso.org", 
     in publications or presentations arising from this work. More details at
     http://www.quantum-espresso.org/quote

     Parallel version (MPI), running on     8 processors

     MPI processes distributed on     8 nodes
     185889 MiB available memory on the printing compute node when the environment starts

     Waiting for input...
     Reading input from standard input

     Current dimensions of program PWSCF are:
     Max number of different atomic species (ntypx) = 10
     Max number of k-points (npk) =  40000
     Max angular momentum in pseudopotentials (lmaxx) =  4
     file Cu.pz-d-rrkjus.UPF: wavefunction(s)  3D renormalized
     Message from routine setup:
     using ibrav=0 with symmetry is DISCOURAGED, use correct ibrav instead

     R & G space division:  proc/nbgrp/npool/nimage =       8
     Subspace diagonalization in iterative solution of the eigenvalue problem:
     a serial algorithm will be used


     Parallelization info
     --------------------
     sticks:   dense  smooth     PW     G-vecs:    dense   smooth      PW
     Min          59      30     10                  858      305      65
     Max          60      31     11                  861      308      68
     Sum         475     241     85                 6879     2445     531

     Using Slab Decomposition



     bravais-lattice index     =            0
     lattice parameter (alat)  =       4.6768  a.u.
     unit-cell volume          =      72.3337 (a.u.)^3
     number of atoms/cell      =            1
     number of atomic types    =            1
     number of electrons       =        11.00
     number of Kohn-Sham states=           10
     kinetic-energy cutoff     =      40.0000  Ry
     charge density cutoff     =     320.0000  Ry
     scf convergence threshold =      1.0E-07
     mixing beta               =       0.5000
     number of iterations used =            8  plain     mixing
     energy convergence thresh.=      1.0E-04
     force convergence thresh. =      1.0E-03
     press convergence thresh. =      5.0E-01
     Exchange-correlation=  SLA  PZ   NOGX NOGC
                           (   1   1   0   0   0   0   0)
     nstep                     =           50


     celldm(1)=   4.676834  celldm(2)=   0.000000  celldm(3)=   0.000000
     celldm(4)=   0.000000  celldm(5)=   0.000000  celldm(6)=   0.000000

     crystal axes: (cart. coord. in units of alat)
               a(1) = (   0.000000   0.707107   0.707107 )  
               a(2) = (   0.707107   0.000000   0.707107 )  
               a(3) = (   0.707107   0.707107   0.000000 )  

     reciprocal axes: (cart. coord. in units 2 pi/alat)
               b(1) = ( -0.707107  0.707107  0.707107 )  
               b(2) = (  0.707107 -0.707107  0.707107 )  
               b(3) = (  0.707107  0.707107 -0.707107 )  


     PseudoPot. # 1 for Cu read from file:
     /home/gridsan/epan1/labutil/lab3_samples/pseudopotentials/Cu.pz-d-rrkjus.UPF
     MD5 check sum: fd38ae683e239c95a66f426e1f8e5fc7
     Pseudo is Ultrasoft, Zval = 11.0
     Generated by new atomic code, or converted to UPF format
     Using radial grid of  899 points,  3 beta functions with: 
                l(1) =   2
                l(2) =   2
                l(3) =   1
     Q(r) pseudized with 0 coefficients 


     atomic species   valence    mass     pseudopotential
        Cu            11.00    63.54600     Cu( 1.00)

     Starting magnetic structure 
     atomic species   magnetization
        Cu           0.700

     48 Sym. Ops., with inversion, found



   Cartesian axes

     site n.     atom                  positions (alat units)
         1           Cu  tau(   1) = (   0.0000000   0.0000000   0.0000000  )

     number of k points=    47  Methfessel-Paxton smearing, width (Ry)=  0.0200
                       cart. coord. in units 2pi/alat
        k(    1) = (   0.0000000   0.0000000   0.0000000), wk =   0.0010000
        k(    2) = (   0.0707107   0.0707107  -0.0707107), wk =   0.0080000
        k(    3) = (   0.1414214   0.1414214  -0.1414214), wk =   0.0080000
        k(    4) = (   0.2121320   0.2121320  -0.2121320), wk =   0.0080000
        k(    5) = (   0.2828427   0.2828427  -0.2828427), wk =   0.0080000
        k(    6) = (  -0.3535534  -0.3535534   0.3535534), wk =   0.0040000
        k(    7) = (   0.1414214   0.0000000   0.0000000), wk =   0.0060000
        k(    8) = (   0.2121320   0.0707107  -0.0707107), wk =   0.0240000
        k(    9) = (   0.2828427   0.1414214  -0.1414214), wk =   0.0240000
        k(   10) = (   0.3535534   0.2121320  -0.2121320), wk =   0.0240000
        k(   11) = (  -0.2828427  -0.4242641   0.4242641), wk =   0.0240000
        k(   12) = (  -0.2121320  -0.3535534   0.3535534), wk =   0.0240000
        k(   13) = (  -0.1414214  -0.2828427   0.2828427), wk =   0.0240000
        k(   14) = (  -0.0707107  -0.2121320   0.2121320), wk =   0.0240000
        k(   15) = (   0.0000000  -0.1414214   0.1414214), wk =   0.0120000
        k(   16) = (   0.2828427   0.0000000   0.0000000), wk =   0.0060000
        k(   17) = (   0.3535534   0.0707107  -0.0707107), wk =   0.0240000
        k(   18) = (   0.4242641   0.1414214  -0.1414214), wk =   0.0240000
        k(   19) = (  -0.2121320  -0.4949747   0.4949747), wk =   0.0240000
        k(   20) = (  -0.1414214  -0.4242641   0.4242641), wk =   0.0240000
        k(   21) = (  -0.0707107  -0.3535534   0.3535534), wk =   0.0240000
        k(   22) = (   0.0000000  -0.2828427   0.2828427), wk =   0.0120000
        k(   23) = (   0.4242641   0.0000000   0.0000000), wk =   0.0060000
        k(   24) = (   0.4949747   0.0707107  -0.0707107), wk =   0.0240000
        k(   25) = (  -0.1414214  -0.5656854   0.5656854), wk =   0.0240000
        k(   26) = (  -0.0707107  -0.4949747   0.4949747), wk =   0.0240000
        k(   27) = (  -0.0000000  -0.4242641   0.4242641), wk =   0.0120000
        k(   28) = (   0.5656854   0.0000000   0.0000000), wk =   0.0060000
        k(   29) = (  -0.0707107  -0.6363961   0.6363961), wk =   0.0240000
        k(   30) = (   0.0000000  -0.5656854   0.5656854), wk =   0.0120000
        k(   31) = (  -0.7071068   0.0000000   0.0000000), wk =   0.0030000
        k(   32) = (   0.2828427   0.1414214   0.0000000), wk =   0.0240000
        k(   33) = (   0.3535534   0.2121320  -0.0707107), wk =   0.0480000
        k(   34) = (  -0.2828427  -0.4242641   0.5656854), wk =   0.0480000
        k(   35) = (  -0.2121320  -0.3535534   0.4949747), wk =   0.0240000
        k(   36) = (   0.4242641   0.1414214  -0.0000000), wk =   0.0240000
        k(   37) = (  -0.2121320  -0.4949747   0.6363961), wk =   0.0480000
        k(   38) = (  -0.1414214  -0.4242641   0.5656854), wk =   0.0480000
        k(   39) = (  -0.0707107  -0.3535534   0.4949747), wk =   0.0480000
        k(   40) = (   0.0000000  -0.2828427   0.4242641), wk =   0.0240000
        k(   41) = (  -0.1414214  -0.5656854   0.7071068), wk =   0.0240000
        k(   42) = (  -0.0707107  -0.4949747   0.6363961), wk =   0.0480000
        k(   43) = (  -0.0000000  -0.4242641   0.5656854), wk =   0.0240000
        k(   44) = (  -0.7071068   0.1414214   0.0000000), wk =   0.0120000
        k(   45) = (  -0.1414214  -0.4242641   0.7071068), wk =   0.0240000
        k(   46) = (  -0.0707107  -0.3535534   0.6363961), wk =   0.0240000
        k(   47) = (  -0.7071068   0.2828427   0.0000000), wk =   0.0120000

     Dense  grid:     6879 G-vectors     FFT dimensions: (  27,  27,  27)

     Smooth grid:     2445 G-vectors     FFT dimensions: (  20,  20,  20)

     Estimated max dynamical RAM per process >       3.91 MB

     Estimated total dynamical RAM >      31.29 MB
     Generating pointlists ...
     new r_m :   0.4125 (alat units)  1.9292 (a.u.) for type    1

     Initial potential from superposition of free atoms

     starting charge      10.9997, renormalised to      11.0000
     Starting wfcs are    6 randomized atomic wfcs +    4 random wfcs

     total cpu time spent up to now is        0.4 secs

     Self-consistent Calculation

     iteration #  1     ecut=    40.00 Ry     beta= 0.50
     Davidson diagonalization with overlap
     ethr =  1.00E-02,  avg # of iterations =  6.1

     total cpu time spent up to now is        0.9 secs

     total energy              =     -86.97761344 Ry
     estimated scf accuracy    <       1.45046319 Ry

     total magnetization       =     1.72 Bohr mag/cell
     absolute magnetization    =     1.87 Bohr mag/cell

     iteration #  2     ecut=    40.00 Ry     beta= 0.50
     Davidson diagonalization with overlap
     ethr =  1.00E-02,  avg # of iterations =  1.5

     total cpu time spent up to now is        1.1 secs

     total energy              =     -87.61810793 Ry
     estimated scf accuracy    <       0.73337875 Ry

     total magnetization       =     0.28 Bohr mag/cell
     absolute magnetization    =     0.52 Bohr mag/cell

     iteration #  3     ecut=    40.00 Ry     beta= 0.50
     Davidson diagonalization with overlap
     ethr =  6.67E-03,  avg # of iterations =  1.0

     negative rho (up, down):  0.000E+00 2.529E-07

     total cpu time spent up to now is        1.4 secs

     total energy              =     -87.80021038 Ry
     estimated scf accuracy    <       0.21830064 Ry

     total magnetization       =     0.26 Bohr mag/cell
     absolute magnetization    =     0.51 Bohr mag/cell

     iteration #  4     ecut=    40.00 Ry     beta= 0.50
     Davidson diagonalization with overlap
     ethr =  1.98E-03,  avg # of iterations =  1.6

     total cpu time spent up to now is        1.6 secs

     total energy              =     -87.82797064 Ry
     estimated scf accuracy    <       0.05200280 Ry

     total magnetization       =    -0.07 Bohr mag/cell
     absolute magnetization    =     0.07 Bohr mag/cell

     iteration #  5     ecut=    40.00 Ry     beta= 0.50
     Davidson diagonalization with overlap
     ethr =  4.73E-04,  avg # of iterations =  1.3

     total cpu time spent up to now is        1.9 secs

     total energy              =     -87.84044102 Ry
     estimated scf accuracy    <       0.00114016 Ry

     total magnetization       =    -0.07 Bohr mag/cell
     absolute magnetization    =     0.07 Bohr mag/cell

     iteration #  6     ecut=    40.00 Ry     beta= 0.50
     Davidson diagonalization with overlap
     ethr =  1.04E-05,  avg # of iterations =  1.8

     total cpu time spent up to now is        2.1 secs

     total energy              =     -87.84133475 Ry
     estimated scf accuracy    <       0.00019293 Ry

     total magnetization       =     0.02 Bohr mag/cell
     absolute magnetization    =     0.04 Bohr mag/cell

     iteration #  7     ecut=    40.00 Ry     beta= 0.50
     Davidson diagonalization with overlap
     ethr =  1.75E-06,  avg # of iterations =  1.6

     total cpu time spent up to now is        2.4 secs

     total energy              =     -87.84139917 Ry
     estimated scf accuracy    <       0.00005084 Ry

     total magnetization       =     0.01 Bohr mag/cell
     absolute magnetization    =     0.02 Bohr mag/cell

     iteration #  8     ecut=    40.00 Ry     beta= 0.50
     Davidson diagonalization with overlap
     ethr =  4.62E-07,  avg # of iterations =  1.3

     total cpu time spent up to now is        2.6 secs

     total energy              =     -87.84141909 Ry
     estimated scf accuracy    <       0.00000027 Ry

     total magnetization       =     0.00 Bohr mag/cell
     absolute magnetization    =     0.00 Bohr mag/cell

     iteration #  9     ecut=    40.00 Ry     beta= 0.50
     Davidson diagonalization with overlap
     ethr =  2.43E-09,  avg # of iterations =  2.1

     total cpu time spent up to now is        2.9 secs

     total energy              =     -87.84141959 Ry
     estimated scf accuracy    <       0.00000023 Ry

     total magnetization       =    -0.00 Bohr mag/cell
     absolute magnetization    =     0.00 Bohr mag/cell

     iteration # 10     ecut=    40.00 Ry     beta= 0.50
     Davidson diagonalization with overlap
     ethr =  2.09E-09,  avg # of iterations =  1.2

     Magnetic moment per site  (integrated on atomic sphere of radius R)
     atom   1 (R=0.412)  charge=  9.7755  magn= -0.0000

     total cpu time spent up to now is        3.2 secs

     End of self-consistent calculation

 ------ SPIN UP ------------


          k = 0.0000 0.0000 0.0000 (   331 PWs)   bands (ev):

     5.6319  12.0626  12.0626  12.0626  13.0266  13.0266  40.4902  43.0166
    43.0166  43.0166

          k = 0.0707 0.0707-0.0707 (   316 PWs)   bands (ev):

     6.0201  11.9783  12.1382  12.1382  13.0002  13.0002  37.4170  41.1244
    42.0251  42.0251

          k = 0.1414 0.1414-0.1414 (   311 PWs)   bands (ev):

     7.1240  11.8137  12.2508  12.2508  13.0261  13.0261  31.7367  40.5423
    40.7831  40.7831

          k = 0.2121 0.2121-0.2121 (   305 PWs)   bands (ev):

     8.6381  11.9098  12.1987  12.1987  13.2707  13.2707  26.5484  39.6637
    39.9855  39.9855

          k = 0.2828 0.2828-0.2828 (   311 PWs)   bands (ev):

     9.6408  12.0773  12.0773  13.0602  13.5663  13.5663  22.2073  38.8865
    39.6379  39.6379

          k =-0.3536-0.3536 0.3536 (   302 PWs)   bands (ev):

     9.8366  12.0236  12.0236  13.6913  13.6913  14.3609  19.9758  38.5884
    39.5750  39.5750

          k = 0.1414 0.0000 0.0000 (   315 PWs)   bands (ev):

     6.1485  11.8999  12.1971  12.1971  12.8810  13.0870  38.9716  39.6411
    39.6411  41.1807

          k = 0.2121 0.0707-0.0707 (   310 PWs)   bands (ev):

     7.0128  11.7162  12.3187  12.3426  12.8120  13.1594  33.8553  37.8992
    38.9316  42.4826

          k = 0.2828 0.1414-0.1414 (   310 PWs)   bands (ev):

     8.4205  11.6117  12.1965  12.3647  13.1647  13.3606  28.4623  36.8682
    38.1090  40.6373

          k = 0.3536 0.2121-0.2121 (   307 PWs)   bands (ev):

     9.6628  11.9367  12.0947  12.2586  13.6123  13.9716  23.7597  36.6110
    37.0350  38.7948

          k =-0.2828-0.4243 0.4243 (   311 PWs)   bands (ev):

    10.0261  11.8807  12.1659  12.7421  13.6999  15.3827  20.3969  35.5991
    37.2033  38.4556

          k =-0.2121-0.3536 0.3536 (   310 PWs)   bands (ev):

     9.9801  11.9255  12.1665  12.6457  13.5338  14.9809  21.2602  34.6305
    38.6875  39.0284

          k =-0.1414-0.2828 0.2828 (   305 PWs)   bands (ev):

     9.3531  11.8667  12.0804  12.2697  13.1796  13.9216  25.2403  34.3749
    40.3454  41.0290

          k =-0.0707-0.2121 0.2121 (   311 PWs)   bands (ev):

     7.9206  11.6665  12.2370  12.3814  12.8437  13.3938  30.2016  34.8246
    42.2201  43.9876

          k = 0.0000-0.1414 0.1414 (   315 PWs)   bands (ev):

     6.6487  11.8322  12.2449  12.2555  12.8566  13.1134  35.4346  36.2763
    42.7475  44.4775

          k = 0.2828 0.0000 0.0000 (   303 PWs)   bands (ev):

     7.5949  11.4823  12.5760  12.5784  12.5784  13.2463  35.7281  35.7281
    36.9776  37.9812

          k = 0.3536 0.0707-0.0707 (   309 PWs)   bands (ev):

     8.7226  11.2675  12.2897  12.7266  13.1525  13.4103  30.9073  34.3383
    35.6432  37.6668

          k = 0.4243 0.1414-0.1414 (   316 PWs)   bands (ev):

     9.9098  11.2416  12.0450  12.6694  13.6484  14.3091  25.9683  33.2040
    33.8174  37.3362

          k =-0.2121-0.4950 0.4950 (   312 PWs)   bands (ev):

    10.4358  11.4128  12.0707  12.5561  13.7233  16.3361  21.8255  31.2070
    34.2420  37.3690

          k =-0.1414-0.4243 0.4243 (   307 PWs)   bands (ev):

    10.5425  11.5211  12.0949  12.4927  13.5360  17.1439  20.8197  29.8777
    35.6181  37.9367

          k =-0.0707-0.3536 0.3536 (   308 PWs)   bands (ev):

    10.3146  11.6590  11.7554  12.5238  13.1531  15.2516  24.4937  29.3088
    37.8606  39.1468

          k = 0.0000-0.2828 0.2828 (   311 PWs)   bands (ev):

     9.2142  11.4948  12.0455  12.6306  12.7414  14.0725  28.8500  29.8843
    40.8306  40.9900

          k = 0.4243 0.0000 0.0000 (   311 PWs)   bands (ev):

     9.3543  10.9823  12.7989  13.1215  13.1215  13.4453  32.3433  32.5662
    32.5662  35.5940

          k = 0.4950 0.0707-0.0707 (   313 PWs)   bands (ev):

     9.9803  10.8262  12.7345  13.1895  13.6545  14.4279  28.6496  29.6476
    31.6962  36.2510

          k =-0.1414-0.5657 0.5657 (   307 PWs)   bands (ev):

    10.4270  10.8720  12.4414  13.0782  13.7561  16.8226  24.2879  27.4357
    31.8444  36.4925

          k =-0.0707-0.4950 0.4950 (   305 PWs)   bands (ev):

    10.7782  11.0488  12.0883  12.9449  13.5901  19.5526  20.9303  25.9868
    33.0143  36.9327

          k =-0.0000-0.4243 0.4243 (   303 PWs)   bands (ev):

    10.9381  11.3341  11.6824  12.7876  13.2990  17.3370  23.4614  25.8317
    35.0802  37.8148

          k = 0.5657 0.0000 0.0000 (   322 PWs)   bands (ev):

     9.9650  10.5905  13.6080  13.6377  13.6377  14.9658  26.6665  30.4493
    30.4493  34.8225

          k =-0.0707-0.6364 0.6364 (   310 PWs)   bands (ev):

    10.0973  10.5591  13.3650  13.5259  13.8019  17.0265  24.6129  27.4919
    30.2545  35.6975

          k = 0.0000-0.5657 0.5657 (   310 PWs)   bands (ev):

    10.4083  10.7406  12.7206  13.3309  13.7111  19.2713  23.3000  24.3313
    31.1550  36.2562

          k =-0.7071 0.0000 0.0000 (   302 PWs)   bands (ev):

     9.9617  10.4438  13.6706  13.8587  13.8587  17.0849  23.5404  29.6900
    29.6900  34.5774

          k = 0.2828 0.1414 0.0000 (   308 PWs)   bands (ev):

     8.0390  11.5086  12.2477  12.5909  12.7926  13.4147  32.1951  32.9363
    39.5564  41.2886

          k = 0.3536 0.2121-0.0707 (   311 PWs)   bands (ev):

     9.4139  11.4297  11.9937  12.5968  13.1305  14.0438  27.3206  31.9491
    36.8212  41.3528

          k =-0.2828-0.4243 0.5657 (   306 PWs)   bands (ev):

    10.2620  11.6513  11.9355  12.4755  13.5148  15.3746  22.8669  31.9973
    34.5665  40.7499

          k =-0.2121-0.3536 0.4950 (   308 PWs)   bands (ev):

    10.4028  11.5968  12.2457  12.4025  13.6418  16.9231  20.2635  32.5555
    33.2554  40.4993

          k = 0.4243 0.1414-0.0000 (   309 PWs)   bands (ev):

     9.7030  11.0801  12.1563  13.1200  13.1947  14.0833  29.6128  30.3261
    32.9455  39.3423

          k =-0.2121-0.4950 0.6364 (   311 PWs)   bands (ev):

    10.4647  11.0881  11.9539  12.9955  13.5582  15.7323  25.2277  29.7640
    30.5766  39.9460

          k =-0.1414-0.4243 0.5657 (   310 PWs)   bands (ev):

    10.8028  11.1683  11.8969  12.8228  13.6559  18.2699  21.3708  28.5665
    30.6128  40.3154

          k =-0.0707-0.3536 0.4950 (   305 PWs)   bands (ev):

    10.9150  11.2792  11.6952  12.7843  13.4803  17.5374  22.4523  27.5103
    32.0353  41.2592

          k = 0.0000-0.2828 0.4243 (   310 PWs)   bands (ev):

    10.4865  11.3494  11.6535  12.8518  13.1461  15.3688  26.2250  27.6680
    34.1502  42.7761

          k =-0.1414-0.5657 0.7071 (   315 PWs)   bands (ev):

    10.2339  10.7371  12.7195  13.4733  13.6355  16.1222  26.9707  27.8510
    28.7666  38.1785

          k =-0.0707-0.4950 0.6364 (   306 PWs)   bands (ev):

    10.5184  10.8611  12.3757  13.2340  13.7644  18.7384  23.9679  25.3133
    28.8281  39.2745

          k =-0.0000-0.4243 0.5657 (   306 PWs)   bands (ev):

    10.8740  11.0746  11.8996  13.0073  13.6390  20.4023  21.5122  24.8219
    30.0796  40.1205

          k =-0.7071 0.1414 0.0000 (   312 PWs)   bands (ev):

    10.2004  10.6077  13.0858  13.4808  13.8590  18.3051  23.7074  27.2070
    28.1123  37.8004

          k =-0.1414-0.4243 0.7071 (   305 PWs)   bands (ev):

    10.8089  11.1800  11.7051  13.0762  13.6315  18.0202  24.4476  26.2708
    28.2562  43.8623

          k =-0.0707-0.3536 0.6364 (   310 PWs)   bands (ev):

    10.8871  11.3261  11.5776  12.9677  13.7530  20.7084  21.5608  26.2778
    26.9962  44.3094

          k =-0.7071 0.2828 0.0000 (   302 PWs)   bands (ev):

    10.6810  11.1093  11.9593  13.0772  13.8595  20.7632  23.7947  24.2393
    26.0609  43.4359

 ------ SPIN DOWN ----------


          k = 0.0000 0.0000 0.0000 (   331 PWs)   bands (ev):

     5.6317  12.0625  12.0625  12.0625  13.0264  13.0264  40.4901  43.0165
    43.0165  43.0165

          k = 0.0707 0.0707-0.0707 (   316 PWs)   bands (ev):

     6.0200  11.9781  12.1380  12.1380  13.0001  13.0001  37.4169  41.1243
    42.0250  42.0250

          k = 0.1414 0.1414-0.1414 (   311 PWs)   bands (ev):

     7.1238  11.8135  12.2507  12.2507  13.0260  13.0260  31.7365  40.5421
    40.7830  40.7830

          k = 0.2121 0.2121-0.2121 (   305 PWs)   bands (ev):

     8.6380  11.9096  12.1986  12.1986  13.2706  13.2706  26.5483  39.6635
    39.9854  39.9854

          k = 0.2828 0.2828-0.2828 (   311 PWs)   bands (ev):

     9.6407  12.0772  12.0772  13.0601  13.5661  13.5661  22.2072  38.8864
    39.6378  39.6378

          k =-0.3536-0.3536 0.3536 (   302 PWs)   bands (ev):

     9.8365  12.0234  12.0234  13.6911  13.6911  14.3608  19.9757  38.5882
    39.5749  39.5749

          k = 0.1414 0.0000 0.0000 (   315 PWs)   bands (ev):

     6.1484  11.8998  12.1969  12.1969  12.8809  13.0869  38.9715  39.6410
    39.6410  41.1806

          k = 0.2121 0.0707-0.0707 (   310 PWs)   bands (ev):

     7.0127  11.7160  12.3185  12.3424  12.8119  13.1593  33.8552  37.8991
    38.9315  42.4823

          k = 0.2828 0.1414-0.1414 (   310 PWs)   bands (ev):

     8.4204  11.6116  12.1964  12.3645  13.1646  13.3605  28.4621  36.8681
    38.1089  40.6372

          k = 0.3536 0.2121-0.2121 (   307 PWs)   bands (ev):

     9.6627  11.9365  12.0946  12.2584  13.6121  13.9715  23.7596  36.6109
    37.0348  38.7947

          k =-0.2828-0.4243 0.4243 (   311 PWs)   bands (ev):

    10.0260  11.8806  12.1657  12.7419  13.6997  15.3826  20.3968  35.5990
    37.2032  38.4555

          k =-0.2121-0.3536 0.3536 (   310 PWs)   bands (ev):

     9.9799  11.9254  12.1664  12.6456  13.5336  14.9808  21.2601  34.6304
    38.6874  39.0283

          k =-0.1414-0.2828 0.2828 (   305 PWs)   bands (ev):

     9.3530  11.8666  12.0803  12.2696  13.1794  13.9215  25.2402  34.3748
    40.3453  41.0289

          k =-0.0707-0.2121 0.2121 (   311 PWs)   bands (ev):

     7.9205  11.6664  12.2368  12.3813  12.8435  13.3937  30.2014  34.8245
    42.2200  43.9874

          k = 0.0000-0.1414 0.1414 (   315 PWs)   bands (ev):

     6.6486  11.8321  12.2447  12.2554  12.8565  13.1133  35.4344  36.2762
    42.7474  44.4773

          k = 0.2828 0.0000 0.0000 (   303 PWs)   bands (ev):

     7.5947  11.4821  12.5758  12.5783  12.5783  13.2462  35.7280  35.7280
    36.9775  37.9810

          k = 0.3536 0.0707-0.0707 (   309 PWs)   bands (ev):

     8.7225  11.2673  12.2896  12.7265  13.1523  13.4102  30.9071  34.3382
    35.6431  37.6667

          k = 0.4243 0.1414-0.1414 (   316 PWs)   bands (ev):

     9.9097  11.2415  12.0449  12.6693  13.6482  14.3090  25.9682  33.2038
    33.8173  37.3360

          k =-0.2121-0.4950 0.4950 (   312 PWs)   bands (ev):

    10.4357  11.4127  12.0705  12.5560  13.7231  16.3359  21.8254  31.2069
    34.2419  37.3688

          k =-0.1414-0.4243 0.4243 (   307 PWs)   bands (ev):

    10.5424  11.5209  12.0947  12.4926  13.5359  17.1437  20.8196  29.8776
    35.6180  37.9366

          k =-0.0707-0.3536 0.3536 (   308 PWs)   bands (ev):

    10.3145  11.6589  11.7553  12.5237  13.1529  15.2515  24.4936  29.3087
    37.8605  39.1467

          k = 0.0000-0.2828 0.2828 (   311 PWs)   bands (ev):

     9.2141  11.4947  12.0454  12.6305  12.7413  14.0724  28.8499  29.8842
    40.8304  40.9898

          k = 0.4243 0.0000 0.0000 (   311 PWs)   bands (ev):

     9.3542  10.9822  12.7988  13.1213  13.1213  13.4452  32.3432  32.5661
    32.5661  35.5938

          k = 0.4950 0.0707-0.0707 (   313 PWs)   bands (ev):

     9.9801  10.8261  12.7344  13.1893  13.6544  14.4277  28.6495  29.6474
    31.6961  36.2509

          k =-0.1414-0.5657 0.5657 (   307 PWs)   bands (ev):

    10.4268  10.8719  12.4412  13.0781  13.7560  16.8224  24.2878  27.4355
    31.8443  36.4923

          k =-0.0707-0.4950 0.4950 (   305 PWs)   bands (ev):

    10.7781  11.0486  12.0881  12.9447  13.5899  19.5525  20.9302  25.9867
    33.0142  36.9326

          k =-0.0000-0.4243 0.4243 (   303 PWs)   bands (ev):

    10.9379  11.3340  11.6823  12.7875  13.2988  17.3368  23.4613  25.8316
    35.0801  37.8147

          k = 0.5657 0.0000 0.0000 (   322 PWs)   bands (ev):

     9.9648  10.5904  13.6078  13.6376  13.6376  14.9657  26.6664  30.4492
    30.4492  34.8223

          k =-0.0707-0.6364 0.6364 (   310 PWs)   bands (ev):

    10.0972  10.5590  13.3649  13.5257  13.8018  17.0264  24.6128  27.4917
    30.2544  35.6974

          k = 0.0000-0.5657 0.5657 (   310 PWs)   bands (ev):

    10.4081  10.7405  12.7204  13.3307  13.7109  19.2712  23.2999  24.3312
    31.1549  36.2561

          k =-0.7071 0.0000 0.0000 (   302 PWs)   bands (ev):

     9.9616  10.4437  13.6704  13.8585  13.8585  17.0848  23.5403  29.6899
    29.6899  34.5773

          k = 0.2828 0.1414 0.0000 (   308 PWs)   bands (ev):

     8.0389  11.5085  12.2476  12.5907  12.7924  13.4145  32.1950  32.9362
    39.5562  41.2884

          k = 0.3536 0.2121-0.0707 (   311 PWs)   bands (ev):

     9.4138  11.4295  11.9936  12.5967  13.1303  14.0437  27.3205  31.9490
    36.8211  41.3527

          k =-0.2828-0.4243 0.5657 (   306 PWs)   bands (ev):

    10.2619  11.6512  11.9353  12.4754  13.5147  15.3744  22.8667  31.9972
    34.5664  40.7498

          k =-0.2121-0.3536 0.4950 (   308 PWs)   bands (ev):

    10.4027  11.5967  12.2456  12.4024  13.6417  16.9229  20.2634  32.5554
    33.2553  40.4992

          k = 0.4243 0.1414-0.0000 (   309 PWs)   bands (ev):

     9.7029  11.0799  12.1562  13.1198  13.1946  14.0832  29.6127  30.3260
    32.9454  39.3422

          k =-0.2121-0.4950 0.6364 (   311 PWs)   bands (ev):

    10.4645  11.0879  11.9538  12.9954  13.5581  15.7322  25.2276  29.7639
    30.5765  39.9459

          k =-0.1414-0.4243 0.5657 (   310 PWs)   bands (ev):

    10.8027  11.1681  11.8968  12.8226  13.6558  18.2698  21.3707  28.5664
    30.6126  40.3152

          k =-0.0707-0.3536 0.4950 (   305 PWs)   bands (ev):

    10.9149  11.2791  11.6951  12.7841  13.4801  17.5373  22.4522  27.5101
    32.0352  41.2591

          k = 0.0000-0.2828 0.4243 (   310 PWs)   bands (ev):

    10.4864  11.3492  11.6534  12.8516  13.1460  15.3687  26.2249  27.6678
    34.1500  42.7759

          k =-0.1414-0.5657 0.7071 (   315 PWs)   bands (ev):

    10.2338  10.7370  12.7193  13.4732  13.6354  16.1220  26.9706  27.8509
    28.7665  38.1783

          k =-0.0707-0.4950 0.6364 (   306 PWs)   bands (ev):

    10.5183  10.8610  12.3756  13.2338  13.7642  18.7383  23.9678  25.3132
    28.8280  39.2744

          k =-0.0000-0.4243 0.5657 (   306 PWs)   bands (ev):

    10.8738  11.0744  11.8995  13.0072  13.6388  20.4022  21.5121  24.8218
    30.0795  40.1204

          k =-0.7071 0.1414 0.0000 (   312 PWs)   bands (ev):

    10.2003  10.6075  13.0857  13.4806  13.8588  18.3049  23.7073  27.2069
    28.1122  37.8003

          k =-0.1414-0.4243 0.7071 (   305 PWs)   bands (ev):

    10.8088  11.1799  11.7049  13.0760  13.6314  18.0200  24.4475  26.2707
    28.2561  43.8615

          k =-0.0707-0.3536 0.6364 (   310 PWs)   bands (ev):

    10.8869  11.3260  11.5775  12.9675  13.7528  20.7083  21.5607  26.2777
    26.9961  44.3093

          k =-0.7071 0.2828 0.0000 (   302 PWs)   bands (ev):

    10.6808  11.1091  11.9591  13.0770  13.8593  20.7631  23.7945  24.2392
    26.0608  43.4359

     the Fermi energy is    15.4895 ev

!    total energy              =     -87.84141965 Ry
     estimated scf accuracy    <          1.1E-09 Ry
     smearing contrib. (-TS)   =      -0.00015146 Ry
     internal energy E=F+TS    =     -87.84126819 Ry

     The total energy is F=E-TS. E is the sum of the following terms:
     one-electron contribution =      -8.03632392 Ry
     hartree contribution      =      18.15862769 Ry
     xc contribution           =     -14.08621553 Ry
     ewald contribution        =     -83.87735643 Ry

     total magnetization       =    -0.00 Bohr mag/cell
     absolute magnetization    =     0.00 Bohr mag/cell

     convergence has been achieved in  10 iterations

     Forces acting on atoms (cartesian axes, Ry/au):

     atom    1 type  1   force =     0.00000000    0.00000000    0.00000000
     The non-local contrib.  to forces
     atom    1 type  1   force =    -0.00000000   -0.00000000    0.00000000
     The ionic contribution  to forces
     atom    1 type  1   force =    -0.00000000   -0.00000000   -0.00000000
     The local contribution  to forces
     atom    1 type  1   force =    -0.00000000   -0.00000000    0.00000000
     The core correction contribution to forces
     atom    1 type  1   force =     0.00000000    0.00000000    0.00000000
     The Hubbard contrib.    to forces
     atom    1 type  1   force =     0.00000000    0.00000000    0.00000000
     The SCF correction term to forces
     atom    1 type  1   force =     0.00000000    0.00000000   -0.00000000

     Total force =     0.000000     Total SCF correction =     0.000000


     Computing stress (Cartesian axis) and pressure

          total   stress  (Ry/bohr**3)                   (kbar)     P=       84.46
   0.00057416  -0.00000000   0.00000000           84.46       -0.00        0.00
   0.00000000   0.00057416  -0.00000000            0.00       84.46       -0.00
   0.00000000  -0.00000000   0.00057416            0.00       -0.00       84.46


     BFGS Geometry Optimization
     Energy error            =      0.0E+00 Ry
     Gradient error          =      0.0E+00 Ry/Bohr
     Cell gradient error     =      8.4E+01 kbar

     number of scf cycles    =   1
     number of bfgs steps    =   0

     enthalpy           new  =     -87.8414196493 Ry

     new trust radius        =       0.0244159784 bohr
     new conv_thr            =       0.0000001000 Ry

     new unit-cell volume =     75.49347 a.u.^3 (    11.18698 Ang^3 )
     density =      9.43245 g/cm^3

CELL_PARAMETERS (angstrom)
  -0.000000000   1.775119548   1.775119548
   1.775119548  -0.000000000   1.775119548
   1.775119548   1.775119548  -0.000000000

ATOMIC_POSITIONS (angstrom)
Cu            0.0000000000        0.0000000000        0.0000000000



     Writing config-only to output data dir /home/gridsan/epan1/labutil/lab3_samples/problem3/Lab3/Cu_a_3.5_ecut_40_nk_10/pwscf.save/
     NEW-OLD atomic charge density approx. for the potential
     extrapolated charge   11.46039, renormalised to   11.00000
     Generating pointlists ...

     total cpu time spent up to now is        3.4 secs

     Self-consistent Calculation

     iteration #  1     ecut=    40.00 Ry     beta= 0.50
     Davidson diagonalization with overlap
     ethr =  1.00E-06,  avg # of iterations =  4.2

     total cpu time spent up to now is        3.9 secs

     total energy              =     -87.67779491 Ry
     estimated scf accuracy    <       0.15648275 Ry

     total magnetization       =    -0.00 Bohr mag/cell
     absolute magnetization    =     0.00 Bohr mag/cell

     iteration #  2     ecut=    40.00 Ry     beta= 0.50
     Davidson diagonalization with overlap
     ethr =  1.42E-03,  avg # of iterations =  2.0

     total cpu time spent up to now is        4.2 secs

     total energy              =     -87.84588550 Ry
     estimated scf accuracy    <       0.24298755 Ry

     total magnetization       =    -0.00 Bohr mag/cell
     absolute magnetization    =     0.00 Bohr mag/cell

     iteration #  3     ecut=    40.00 Ry     beta= 0.50
     Davidson diagonalization with overlap
     ethr =  1.42E-03,  avg # of iterations =  1.0

     total cpu time spent up to now is        4.5 secs

     total energy              =     -87.84494087 Ry
     estimated scf accuracy    <       0.05381235 Ry

     total magnetization       =    -0.00 Bohr mag/cell
     absolute magnetization    =     0.00 Bohr mag/cell

     iteration #  4     ecut=    40.00 Ry     beta= 0.50
     Davidson diagonalization with overlap
     ethr =  4.89E-04,  avg # of iterations =  1.0

     total cpu time spent up to now is        4.7 secs

     total energy              =     -87.84246839 Ry
     estimated scf accuracy    <       0.01587036 Ry

     total magnetization       =    -0.00 Bohr mag/cell
     absolute magnetization    =     0.00 Bohr mag/cell

     iteration #  5     ecut=    40.00 Ry     beta= 0.50
     Davidson diagonalization with overlap
     ethr =  1.44E-04,  avg # of iterations =  1.0

     total cpu time spent up to now is        5.0 secs

     total energy              =     -87.84173396 Ry
     estimated scf accuracy    <       0.00342961 Ry

     total magnetization       =    -0.00 Bohr mag/cell
     absolute magnetization    =     0.00 Bohr mag/cell

     iteration #  6     ecut=    40.00 Ry     beta= 0.50
     Davidson diagonalization with overlap
     ethr =  3.12E-05,  avg # of iterations =  1.0

     total cpu time spent up to now is        5.2 secs

     total energy              =     -87.84231322 Ry
     estimated scf accuracy    <       0.00001266 Ry

     total magnetization       =    -0.00 Bohr mag/cell
     absolute magnetization    =     0.00 Bohr mag/cell

     iteration #  7     ecut=    40.00 Ry     beta= 0.50
     Davidson diagonalization with overlap
     ethr =  1.15E-07,  avg # of iterations =  2.1

     total cpu time spent up to now is        5.5 secs

     total energy              =     -87.84229825 Ry
     estimated scf accuracy    <       0.00003672 Ry

     total magnetization       =    -0.00 Bohr mag/cell
     absolute magnetization    =     0.00 Bohr mag/cell

     iteration #  8     ecut=    40.00 Ry     beta= 0.50
     Davidson diagonalization with overlap
     ethr =  1.15E-07,  avg # of iterations =  2.0

     Magnetic moment per site  (integrated on atomic sphere of radius R)
     atom   1 (R=0.412)  charge=  9.7312  magn= -0.0000

     total cpu time spent up to now is        5.8 secs

     End of self-consistent calculation

 ------ SPIN UP ------------


          k = 0.0000 0.0000 0.0000 (   331 PWs)   bands (ev):

     5.1028  11.3483  11.3483  11.3483  12.2501  12.2501  39.1486  41.3678
    41.3678  41.3678

          k = 0.0697 0.0697-0.0697 (   316 PWs)   bands (ev):

     5.4793  11.2699  11.4192  11.4192  12.2257  12.2257  35.9776  39.6882
    40.3886  40.3886

          k = 0.1394 0.1394-0.1394 (   311 PWs)   bands (ev):

     6.5522  11.1173  11.5249  11.5249  12.2506  12.2506  30.4110  39.1537
    39.1659  39.1659

          k = 0.2091 0.2091-0.2091 (   305 PWs)   bands (ev):

     8.0360  11.2108  11.4765  11.4765  12.4798  12.4798  25.3401  38.3227
    38.3771  38.3771

          k = 0.2788 0.2788-0.2788 (   311 PWs)   bands (ev):

     9.0382  11.3631  11.3631  12.3264  12.7562  12.7562  21.0856  37.5833
    38.0261  38.0261

          k =-0.3486-0.3486 0.3486 (   302 PWs)   bands (ev):

     9.2373  11.3129  11.3129  12.8731  12.8731  13.6222  18.8726  37.2987
    37.9573  37.9573

          k = 0.1394 0.0000 0.0000 (   315 PWs)   bands (ev):

     5.6038  11.1966  11.4744  11.4744  12.1145  12.3068  37.5970  38.0714
    38.0714  39.6498

          k = 0.2091 0.0697-0.0697 (   310 PWs)   bands (ev):

     6.4438  11.0254  11.5888  11.6109  12.0504  12.3748  32.4811  36.3769
    37.5141  40.9627

          k = 0.2788 0.1394-0.1394 (   310 PWs)   bands (ev):

     7.8191  10.9289  11.4752  11.6319  12.3818  12.5636  27.2125  35.3732
    36.7432  38.9909

          k = 0.3486 0.2091-0.2091 (   307 PWs)   bands (ev):

     9.0509  11.2379  11.3827  11.5329  12.7991  13.1518  22.6131  35.1208
    35.6870  37.2162

          k =-0.2788-0.4183 0.4183 (   311 PWs)   bands (ev):

     9.4178  11.1814  11.4463  12.0030  12.8811  14.5539  19.2972  34.2125
    35.6905  36.9885

          k =-0.2091-0.3486 0.3486 (   310 PWs)   bands (ev):

     9.3705  11.2229  11.4470  11.9144  12.7260  14.1411  20.1549  33.2437
    37.1201  37.5942

          k =-0.1394-0.2788 0.2788 (   305 PWs)   bands (ev):

     8.7398  11.1708  11.3677  11.5434  12.3948  13.0946  24.0626  32.9853
    38.8992  39.3715

          k =-0.0697-0.2091 0.2091 (   311 PWs)   bands (ev):

     7.3287  10.9798  11.5131  11.6474  12.0804  12.5949  28.9121  33.4202
    40.7323  42.1820

          k = 0.0000-0.1394 0.1394 (   315 PWs)   bands (ev):

     6.0896  11.1338  11.5195  11.5292  12.0919  12.3318  34.0410  34.8214
    41.2337  42.7690

          k = 0.2788 0.0000 0.0000 (   303 PWs)   bands (ev):

     7.0114  10.8066  11.8299  11.8321  11.8321  12.4560  34.2746  34.2746
    35.6001  36.6261

          k = 0.3486 0.0697-0.0697 (   309 PWs)   bands (ev):

     8.1164  10.6058  11.5621  11.9710  12.3708  12.6098  29.6043  32.9288
    34.2909  36.1631

          k = 0.4183 0.1394-0.1394 (   316 PWs)   bands (ev):

     9.2891  10.5830  11.3326  11.9176  12.8328  13.4711  24.7826  31.8608
    32.4240  35.8497

          k =-0.2091-0.4880 0.4880 (   312 PWs)   bands (ev):

     9.8107  10.7481  11.3599  11.8119  12.9030  15.4441  20.7249  29.8963
    32.8328  35.9087

          k =-0.1394-0.4183 0.4183 (   307 PWs)   bands (ev):

     9.9120  10.8491  11.3874  11.7527  12.7281  16.2393  19.7291  28.5937
    34.1609  36.4864

          k =-0.0697-0.3486 0.3486 (   308 PWs)   bands (ev):

     9.6800  10.9756  11.0656  11.7819  12.3699  14.3683  23.3420  28.0348
    36.3278  37.6838

          k = 0.0000-0.2788 0.2788 (   311 PWs)   bands (ev):

     8.5934  10.8193  11.3359  11.8817  11.9844  13.2347  27.6077  28.5848
    39.2012  39.4944

          k = 0.4183 0.0000 0.0000 (   311 PWs)   bands (ev):

     8.7477  10.3386  12.0415  12.3408  12.3408  12.6424  31.0318  31.2173
    31.2173  34.2182

          k = 0.4880 0.0697-0.0697 (   313 PWs)   bands (ev):

     9.3748  10.1922  11.9818  12.4043  12.8385  13.5920  27.4252  28.3534
    30.3776  34.8130

          k =-0.1394-0.5577 0.5577 (   307 PWs)   bands (ev):

     9.8128  10.2362  11.7081  12.3004  12.9337  15.9113  23.1589  26.1929
    30.5198  35.0347

          k =-0.0697-0.4880 0.4880 (   305 PWs)   bands (ev):

    10.1443  10.4052  11.3780  12.1761  12.7786  18.5877  19.8626  24.7712
    31.6471  35.4770

          k =-0.0000-0.4183 0.4183 (   303 PWs)   bands (ev):

    10.2870  10.6748  10.9964  12.0292  12.5063  16.3930  22.3696  24.6091
    33.6411  36.3578

          k = 0.5577 0.0000 0.0000 (   322 PWs)   bands (ev):

     9.3741   9.9710  12.7948  12.8236  12.8236  14.1467  25.4475  29.1766
    29.1766  33.4466

          k =-0.0697-0.6274 0.6274 (   310 PWs)   bands (ev):

     9.5058   9.9414  12.5744  12.7185  12.9767  16.1476  23.4292  26.2827
    28.9889  34.2709

          k = 0.0000-0.5577 0.5577 (   310 PWs)   bands (ev):

     9.8012  10.1119  11.9726  12.5367  12.8918  18.3233  22.2285  23.1053
    29.8551  34.8014

          k =-0.6971 0.0000 0.0000 (   302 PWs)   bands (ev):

     9.3788   9.8332  12.8533  13.0298  13.0298  16.2441  22.3564  28.4463
    28.4463  33.2012

          k = 0.2788 0.1394 0.0000 (   308 PWs)   bands (ev):

     7.4443  10.8316  11.5234  11.8436  12.0327  12.6143  30.8683  31.5689
    38.0741  39.7694

          k = 0.3486 0.2091-0.0697 (   311 PWs)   bands (ev):

     8.7933  10.7585  11.2863  11.8498  12.3497  13.2093  26.1012  30.6169
    35.3657  39.7738

          k =-0.2788-0.4183 0.5577 (   306 PWs)   bands (ev):

     9.6374  10.9714  11.2327  11.7368  12.7088  14.5002  21.7441  30.6719
    33.1498  39.2091

          k =-0.2091-0.3486 0.4880 (   308 PWs)   bands (ev):

     9.7791  10.9190  11.5309  11.6683  12.8269  16.0450  19.1672  31.2611
    31.8242  38.9792

          k = 0.4183 0.1394-0.0000 (   309 PWs)   bands (ev):

     9.0856  10.4302  11.4369  12.3393  12.4105  13.2492  28.3519  29.0399
    31.5706  37.8595

          k =-0.2091-0.4880 0.6274 (   311 PWs)   bands (ev):

     9.8390  10.4389  11.2474  12.2238  12.7494  14.8413  24.0678  28.5214
    29.2257  38.4135

          k =-0.1394-0.4183 0.5577 (   310 PWs)   bands (ev):

    10.1646  10.5181  11.1972  12.0621  12.8402  17.3263  20.2864  27.3175
    29.2920  38.7767

          k =-0.0697-0.3486 0.4880 (   305 PWs)   bands (ev):

    10.2670  10.6224  11.0083  12.0262  12.6761  16.5960  21.3562  26.2770
    30.6832  39.7005

          k = 0.0000-0.2788 0.4183 (   310 PWs)   bands (ev):

     9.8453  10.6831  10.9691  12.0899  12.3635  14.4799  25.0540  26.4192
    32.7469  41.1663

          k =-0.1394-0.5577 0.6971 (   315 PWs)   bands (ev):

     9.6304  10.1084  11.9687  12.6707  12.8215  15.2372  25.7648  26.6445
    27.4862  36.7187

          k =-0.0697-0.4880 0.6274 (   306 PWs)   bands (ev):

     9.9050  10.2249  11.6476  12.4466  12.9417  17.7844  22.8681  24.0999
    27.5655  37.7574

          k = 0.0000-0.4183 0.5577 (   306 PWs)   bands (ev):

    10.2409  10.4246  11.2008  12.2345  12.8245  19.3869  20.4843  23.6149
    28.7817  38.5812

          k =-0.6971 0.1394 0.0000 (   312 PWs)   bands (ev):

     9.6052   9.9868  12.3141  12.6765  13.0301  17.3990  22.5321  26.0228
    26.8679  36.3477

          k =-0.1394-0.4183 0.6971 (   305 PWs)   bands (ev):

    10.1784  10.5242  11.0147  12.2996  12.8177  17.0649  23.3318  25.0748
    26.9739  42.2588

          k =-0.0697-0.3486 0.6274 (   310 PWs)   bands (ev):

    10.2553  10.6598  10.8980  12.1973  12.9311  19.7077  20.4883  25.1339
    25.6970  42.6606

          k =-0.6971 0.2788 0.0000 (   302 PWs)   bands (ev):

    10.0608  10.4577  11.2569  12.2994  13.0306  19.7631  22.7013  23.1049
    24.7973  41.8426

 ------ SPIN DOWN ----------


          k = 0.0000 0.0000 0.0000 (   331 PWs)   bands (ev):

     5.1028  11.3483  11.3483  11.3483  12.2501  12.2501  39.1486  41.3678
    41.3678  41.3678

          k = 0.0697 0.0697-0.0697 (   316 PWs)   bands (ev):

     5.4793  11.2699  11.4192  11.4192  12.2257  12.2257  35.9776  39.6882
    40.3886  40.3886

          k = 0.1394 0.1394-0.1394 (   311 PWs)   bands (ev):

     6.5522  11.1173  11.5249  11.5249  12.2506  12.2506  30.4110  39.1537
    39.1659  39.1659

          k = 0.2091 0.2091-0.2091 (   305 PWs)   bands (ev):

     8.0360  11.2108  11.4765  11.4765  12.4798  12.4798  25.3401  38.3227
    38.3771  38.3771

          k = 0.2788 0.2788-0.2788 (   311 PWs)   bands (ev):

     9.0382  11.3631  11.3631  12.3264  12.7562  12.7562  21.0856  37.5833
    38.0261  38.0261

          k =-0.3486-0.3486 0.3486 (   302 PWs)   bands (ev):

     9.2373  11.3129  11.3129  12.8731  12.8731  13.6222  18.8726  37.2987
    37.9573  37.9573

          k = 0.1394 0.0000 0.0000 (   315 PWs)   bands (ev):

     5.6038  11.1966  11.4744  11.4744  12.1145  12.3068  37.5970  38.0714
    38.0714  39.6498

          k = 0.2091 0.0697-0.0697 (   310 PWs)   bands (ev):

     6.4438  11.0254  11.5888  11.6109  12.0504  12.3748  32.4811  36.3769
    37.5141  40.9626

          k = 0.2788 0.1394-0.1394 (   310 PWs)   bands (ev):

     7.8191  10.9289  11.4752  11.6319  12.3818  12.5636  27.2125  35.3732
    36.7432  38.9909

          k = 0.3486 0.2091-0.2091 (   307 PWs)   bands (ev):

     9.0509  11.2379  11.3826  11.5329  12.7991  13.1518  22.6131  35.1208
    35.6870  37.2162

          k =-0.2788-0.4183 0.4183 (   311 PWs)   bands (ev):

     9.4178  11.1814  11.4463  12.0030  12.8811  14.5539  19.2972  34.2125
    35.6905  36.9885

          k =-0.2091-0.3486 0.3486 (   310 PWs)   bands (ev):

     9.3705  11.2229  11.4470  11.9144  12.7260  14.1411  20.1549  33.2437
    37.1201  37.5942

          k =-0.1394-0.2788 0.2788 (   305 PWs)   bands (ev):

     8.7398  11.1708  11.3677  11.5434  12.3948  13.0946  24.0626  32.9853
    38.8992  39.3715

          k =-0.0697-0.2091 0.2091 (   311 PWs)   bands (ev):

     7.3287  10.9798  11.5130  11.6474  12.0804  12.5949  28.9121  33.4202
    40.7323  42.1819

          k = 0.0000-0.1394 0.1394 (   315 PWs)   bands (ev):

     6.0896  11.1338  11.5195  11.5292  12.0919  12.3318  34.0410  34.8214
    41.2337  42.7690

          k = 0.2788 0.0000 0.0000 (   303 PWs)   bands (ev):

     7.0114  10.8066  11.8299  11.8321  11.8321  12.4560  34.2746  34.2746
    35.6001  36.6261

          k = 0.3486 0.0697-0.0697 (   309 PWs)   bands (ev):

     8.1164  10.6058  11.5621  11.9710  12.3708  12.6098  29.6043  32.9288
    34.2909  36.1631

          k = 0.4183 0.1394-0.1394 (   316 PWs)   bands (ev):

     9.2891  10.5830  11.3326  11.9176  12.8328  13.4711  24.7826  31.8608
    32.4240  35.8497

          k =-0.2091-0.4880 0.4880 (   312 PWs)   bands (ev):

     9.8107  10.7481  11.3599  11.8119  12.9030  15.4441  20.7249  29.8963
    32.8328  35.9087

          k =-0.1394-0.4183 0.4183 (   307 PWs)   bands (ev):

     9.9120  10.8491  11.3874  11.7527  12.7281  16.2393  19.7291  28.5937
    34.1609  36.4864

          k =-0.0697-0.3486 0.3486 (   308 PWs)   bands (ev):

     9.6800  10.9756  11.0656  11.7818  12.3699  14.3683  23.3420  28.0348
    36.3278  37.6838

          k = 0.0000-0.2788 0.2788 (   311 PWs)   bands (ev):

     8.5934  10.8193  11.3359  11.8817  11.9844  13.2347  27.6077  28.5848
    39.2012  39.4944

          k = 0.4183 0.0000 0.0000 (   311 PWs)   bands (ev):

     8.7477  10.3386  12.0415  12.3408  12.3408  12.6424  31.0318  31.2173
    31.2173  34.2182

          k = 0.4880 0.0697-0.0697 (   313 PWs)   bands (ev):

     9.3748  10.1922  11.9818  12.4043  12.8385  13.5920  27.4252  28.3534
    30.3776  34.8130

          k =-0.1394-0.5577 0.5577 (   307 PWs)   bands (ev):

     9.8128  10.2362  11.7081  12.3004  12.9337  15.9113  23.1589  26.1929
    30.5198  35.0347

          k =-0.0697-0.4880 0.4880 (   305 PWs)   bands (ev):

    10.1443  10.4052  11.3780  12.1761  12.7786  18.5877  19.8626  24.7712
    31.6471  35.4770

          k =-0.0000-0.4183 0.4183 (   303 PWs)   bands (ev):

    10.2870  10.6748  10.9964  12.0292  12.5063  16.3930  22.3696  24.6091
    33.6411  36.3578

          k = 0.5577 0.0000 0.0000 (   322 PWs)   bands (ev):

     9.3741   9.9710  12.7948  12.8236  12.8236  14.1467  25.4475  29.1766
    29.1766  33.4466

          k =-0.0697-0.6274 0.6274 (   310 PWs)   bands (ev):

     9.5058   9.9414  12.5744  12.7185  12.9767  16.1476  23.4292  26.2827
    28.9889  34.2709

          k = 0.0000-0.5577 0.5577 (   310 PWs)   bands (ev):

     9.8012  10.1119  11.9726  12.5367  12.8918  18.3233  22.2285  23.1053
    29.8551  34.8014

          k =-0.6971 0.0000 0.0000 (   302 PWs)   bands (ev):

     9.3788   9.8332  12.8533  13.0298  13.0298  16.2441  22.3564  28.4463
    28.4463  33.2012

          k = 0.2788 0.1394 0.0000 (   308 PWs)   bands (ev):

     7.4443  10.8316  11.5234  11.8436  12.0327  12.6143  30.8683  31.5689
    38.0741  39.7694

          k = 0.3486 0.2091-0.0697 (   311 PWs)   bands (ev):

     8.7933  10.7585  11.2863  11.8498  12.3497  13.2093  26.1012  30.6169
    35.3657  39.7738

          k =-0.2788-0.4183 0.5577 (   306 PWs)   bands (ev):

     9.6374  10.9714  11.2327  11.7368  12.7088  14.5002  21.7441  30.6719
    33.1498  39.2091

          k =-0.2091-0.3486 0.4880 (   308 PWs)   bands (ev):

     9.7791  10.9190  11.5309  11.6683  12.8269  16.0450  19.1672  31.2611
    31.8242  38.9792

          k = 0.4183 0.1394-0.0000 (   309 PWs)   bands (ev):

     9.0856  10.4302  11.4369  12.3393  12.4105  13.2492  28.3519  29.0399
    31.5706  37.8595

          k =-0.2091-0.4880 0.6274 (   311 PWs)   bands (ev):

     9.8390  10.4389  11.2474  12.2238  12.7494  14.8413  24.0678  28.5214
    29.2257  38.4135

          k =-0.1394-0.4183 0.5577 (   310 PWs)   bands (ev):

    10.1646  10.5181  11.1972  12.0621  12.8402  17.3263  20.2864  27.3174
    29.2920  38.7767

          k =-0.0697-0.3486 0.4880 (   305 PWs)   bands (ev):

    10.2670  10.6224  11.0083  12.0262  12.6761  16.5960  21.3562  26.2770
    30.6832  39.7005

          k = 0.0000-0.2788 0.4183 (   310 PWs)   bands (ev):

     9.8453  10.6831  10.9691  12.0899  12.3635  14.4799  25.0540  26.4192
    32.7469  41.1663

          k =-0.1394-0.5577 0.6971 (   315 PWs)   bands (ev):

     9.6304  10.1084  11.9687  12.6707  12.8215  15.2372  25.7648  26.6445
    27.4862  36.7187

          k =-0.0697-0.4880 0.6274 (   306 PWs)   bands (ev):

     9.9050  10.2249  11.6476  12.4466  12.9417  17.7844  22.8681  24.0999
    27.5655  37.7574

          k = 0.0000-0.4183 0.5577 (   306 PWs)   bands (ev):

    10.2409  10.4246  11.2008  12.2345  12.8245  19.3869  20.4843  23.6149
    28.7817  38.5812

          k =-0.6971 0.1394 0.0000 (   312 PWs)   bands (ev):

     9.6052   9.9868  12.3141  12.6765  13.0301  17.3990  22.5321  26.0228
    26.8679  36.3477

          k =-0.1394-0.4183 0.6971 (   305 PWs)   bands (ev):

    10.1784  10.5242  11.0147  12.2996  12.8177  17.0649  23.3318  25.0748
    26.9739  42.2588

          k =-0.0697-0.3486 0.6274 (   310 PWs)   bands (ev):

    10.2553  10.6598  10.8980  12.1973  12.9311  19.7076  20.4883  25.1339
    25.6970  42.6606

          k =-0.6971 0.2788 0.0000 (   302 PWs)   bands (ev):

    10.0608  10.4577  11.2569  12.2994  13.0306  19.7631  22.7013  23.1049
    24.7973  41.8426

     the Fermi energy is    14.6198 ev

!    total energy              =     -87.84230541 Ry
     estimated scf accuracy    <          8.8E-09 Ry
     smearing contrib. (-TS)   =      -0.00016490 Ry
     internal energy E=F+TS    =     -87.84214050 Ry

     The total energy is F=E-TS. E is the sum of the following terms:
     one-electron contribution =      -9.84557097 Ry
     hartree contribution      =      18.75432610 Ry
     xc contribution           =     -14.06047969 Ry
     ewald contribution        =     -82.69041595 Ry

     total magnetization       =    -0.00 Bohr mag/cell
     absolute magnetization    =     0.00 Bohr mag/cell

     convergence has been achieved in   8 iterations

     Forces acting on atoms (cartesian axes, Ry/au):

     atom    1 type  1   force =     0.00000000    0.00000000    0.00000000
     The non-local contrib.  to forces
     atom    1 type  1   force =    -0.00000000    0.00000000   -0.00000000
     The ionic contribution  to forces
     atom    1 type  1   force =    -0.00000000   -0.00000000   -0.00000000
     The local contribution  to forces
     atom    1 type  1   force =     0.00000000   -0.00000000    0.00000000
     The core correction contribution to forces
     atom    1 type  1   force =     0.00000000    0.00000000    0.00000000
     The Hubbard contrib.    to forces
     atom    1 type  1   force =     0.00000000    0.00000000    0.00000000
     The SCF correction term to forces
     atom    1 type  1   force =     0.00000000    0.00000000   -0.00000000

     Total force =     0.000000     Total SCF correction =     0.000000


     Computing stress (Cartesian axis) and pressure

          total   stress  (Ry/bohr**3)                   (kbar)     P=        0.36
   0.00000246  -0.00000000  -0.00000000            0.36       -0.00       -0.00
  -0.00000000   0.00000246  -0.00000000           -0.00        0.36       -0.00
  -0.00000000  -0.00000000   0.00000246           -0.00       -0.00        0.36

     Energy error            =      8.9E-04 Ry
     Gradient error          =      0.0E+00 Ry/Bohr
     Cell gradient error     =      3.6E-01 kbar

     number of scf cycles    =   2
     number of bfgs steps    =   1

     enthalpy           old  =     -87.8414196493 Ry
     enthalpy           new  =     -87.8423054065 Ry

     CASE: enthalpy          _new < enthalpy          _old

     new trust radius        =       0.0001088860 bohr
     new conv_thr            =       0.0000000010 Ry

     new unit-cell volume =     75.50767 a.u.^3 (    11.18908 Ang^3 )
     density =      9.43068 g/cm^3

CELL_PARAMETERS (angstrom)
  -0.000000000   1.775230776   1.775230776
   1.775230776  -0.000000000   1.775230776
   1.775230776   1.775230776  -0.000000000

ATOMIC_POSITIONS (angstrom)
Cu            0.0000000000        0.0000000000        0.0000000000



     Writing config-only to output data dir /home/gridsan/epan1/labutil/lab3_samples/problem3/Lab3/Cu_a_3.5_ecut_40_nk_10/pwscf.save/
     NEW-OLD atomic charge density approx. for the potential
     extrapolated charge   11.00207, renormalised to   11.00000
     Generating pointlists ...

     total cpu time spent up to now is        6.1 secs

     Self-consistent Calculation

     iteration #  1     ecut=    40.00 Ry     beta= 0.50
     Davidson diagonalization with overlap
     ethr =  1.00E-06,  avg # of iterations =  2.0

     Threshold (ethr) on eigenvalues was too large:
     Diagonalizing with lowered threshold

     Davidson diagonalization with overlap
     ethr =  2.31E-08,  avg # of iterations =  1.0

     total cpu time spent up to now is        6.6 secs

     total energy              =     -87.84230277 Ry
     estimated scf accuracy    <       0.00000255 Ry

     total magnetization       =    -0.00 Bohr mag/cell
     absolute magnetization    =     0.00 Bohr mag/cell

     iteration #  2     ecut=    40.00 Ry     beta= 0.50
     Davidson diagonalization with overlap
     ethr =  2.32E-08,  avg # of iterations =  2.0

     total cpu time spent up to now is        6.9 secs

     total energy              =     -87.84230554 Ry
     estimated scf accuracy    <       0.00000496 Ry

     total magnetization       =    -0.00 Bohr mag/cell
     absolute magnetization    =     0.00 Bohr mag/cell

     iteration #  3     ecut=    40.00 Ry     beta= 0.50
     Davidson diagonalization with overlap
     ethr =  2.32E-08,  avg # of iterations =  1.0

     total cpu time spent up to now is        7.2 secs

     total energy              =     -87.84230560 Ry
     estimated scf accuracy    <       0.00000092 Ry

     total magnetization       =    -0.00 Bohr mag/cell
     absolute magnetization    =     0.00 Bohr mag/cell

     iteration #  4     ecut=    40.00 Ry     beta= 0.50
     Davidson diagonalization with overlap
     ethr =  8.33E-09,  avg # of iterations =  1.0

     total cpu time spent up to now is        7.4 secs

     total energy              =     -87.84230551 Ry
     estimated scf accuracy    <       0.00000022 Ry

     total magnetization       =    -0.00 Bohr mag/cell
     absolute magnetization    =     0.00 Bohr mag/cell

     iteration #  5     ecut=    40.00 Ry     beta= 0.50
     Davidson diagonalization with overlap
     ethr =  2.04E-09,  avg # of iterations =  1.5

     total cpu time spent up to now is        7.7 secs

     total energy              =     -87.84230557 Ry
     estimated scf accuracy    <       0.00000003 Ry

     total magnetization       =    -0.00 Bohr mag/cell
     absolute magnetization    =     0.00 Bohr mag/cell

     iteration #  6     ecut=    40.00 Ry     beta= 0.50
     Davidson diagonalization with overlap
     ethr =  2.88E-10,  avg # of iterations =  1.0

     Magnetic moment per site  (integrated on atomic sphere of radius R)
     atom   1 (R=0.412)  charge=  9.7310  magn=  0.0000

     total cpu time spent up to now is        7.9 secs

     End of self-consistent calculation

 ------ SPIN UP ------------


          k = 0.0000 0.0000 0.0000 (   331 PWs)   bands (ev):

     5.1005  11.3448  11.3448  11.3448  12.2463  12.2463  39.1427  41.3606
    41.3606  41.3606

          k = 0.0697 0.0697-0.0697 (   316 PWs)   bands (ev):

     5.4769  11.2665  11.4157  11.4157  12.2219  12.2219  35.9713  39.6819
    40.3815  40.3815

          k = 0.1394 0.1394-0.1394 (   311 PWs)   bands (ev):

     6.5497  11.1139  11.5214  11.5214  12.2468  12.2468  30.4051  39.1476
    39.1588  39.1588

          k = 0.2091 0.2091-0.2091 (   305 PWs)   bands (ev):

     8.0333  11.2075  11.4730  11.4730  12.4760  12.4760  25.3348  38.3169
    38.3700  38.3700

          k = 0.2788 0.2788-0.2788 (   311 PWs)   bands (ev):

     9.0354  11.3597  11.3597  12.3231  12.7523  12.7523  21.0806  37.5776
    38.0190  38.0190

          k =-0.3485-0.3485 0.3485 (   302 PWs)   bands (ev):

     9.2345  11.3095  11.3095  12.8691  12.8691  13.6190  18.8677  37.2932
    37.9502  37.9502

          k = 0.1394 0.0000 0.0000 (   315 PWs)   bands (ev):

     5.6014  11.1931  11.4709  11.4709  12.1108  12.3030  37.5910  38.0645
    38.0645  39.6432

          k = 0.2091 0.0697-0.0697 (   310 PWs)   bands (ev):

     6.4413  11.0220  11.5853  11.6074  12.0468  12.3711  32.4750  36.3703
    37.5079  40.9560

          k = 0.2788 0.1394-0.1394 (   310 PWs)   bands (ev):

     7.8164  10.9257  11.4717  11.6283  12.3781  12.5597  27.2070  35.3666
    36.7372  38.9836

          k = 0.3485 0.2091-0.2091 (   307 PWs)   bands (ev):

     9.0481  11.2345  11.3793  11.5294  12.7952  13.1480  22.6080  35.1142
    35.6811  37.2093

          k =-0.2788-0.4182 0.4182 (   311 PWs)   bands (ev):

     9.4149  11.1780  11.4428  11.9995  12.8772  14.5501  19.2923  34.2064
    35.6839  36.9821

          k =-0.2091-0.3485 0.3485 (   310 PWs)   bands (ev):

     9.3676  11.2195  11.4435  11.9109  12.7221  14.1372  20.1500  33.2377
    37.1133  37.5879

          k =-0.1394-0.2788 0.2788 (   305 PWs)   bands (ev):

     8.7370  11.1675  11.3643  11.5399  12.3910  13.0907  24.0574  32.9792
    38.8929  39.3642

          k =-0.0697-0.2091 0.2091 (   311 PWs)   bands (ev):

     7.3261  10.9764  11.5096  11.6439  12.0767  12.5910  28.9064  33.4141
    40.7258  42.1740

          k = 0.0000-0.1394 0.1394 (   315 PWs)   bands (ev):

     6.0871  11.1305  11.5160  11.5257  12.0882  12.3280  34.0349  34.8150
    41.2271  42.7615

          k = 0.2788 0.0000 0.0000 (   303 PWs)   bands (ev):

     7.0089  10.8033  11.8263  11.8285  11.8285  12.4522  34.2683  34.2683
    35.5941  36.6203

          k = 0.3485 0.0697-0.0697 (   309 PWs)   bands (ev):

     8.1137  10.6026  11.5586  11.9673  12.3671  12.6059  29.5986  32.9226
    34.2849  36.1565

          k = 0.4182 0.1394-0.1394 (   316 PWs)   bands (ev):

     9.2863  10.5798  11.3291  11.9140  12.8289  13.4671  24.7774  31.8549
    32.4179  35.8432

          k =-0.2091-0.4879 0.4879 (   312 PWs)   bands (ev):

     9.8078  10.7450  11.3565  11.8083  12.8991  15.4401  20.7200  29.8905
    32.8266  35.9024

          k =-0.1394-0.4182 0.4182 (   307 PWs)   bands (ev):

     9.9089  10.8458  11.3841  11.7492  12.7242  16.2353  19.7242  28.5880
    34.1545  36.4801

          k =-0.0697-0.3485 0.3485 (   308 PWs)   bands (ev):

     9.6771  10.9724  11.0623  11.7783  12.3662  14.3642  23.3369  28.0292
    36.3211  37.6774

          k = 0.0000-0.2788 0.2788 (   311 PWs)   bands (ev):

     8.5907  10.8160  11.3325  11.8781  11.9808  13.2308  27.6022  28.5791
    39.1940  39.4878

          k = 0.4182 0.0000 0.0000 (   311 PWs)   bands (ev):

     8.7450  10.3354  12.0379  12.3370  12.3370  12.6386  31.0260  31.2114
    31.2114  34.2122

          k = 0.4879 0.0697-0.0697 (   313 PWs)   bands (ev):

     9.3720  10.1891  11.9783  12.4005  12.8346  13.5881  27.4198  28.3477
    30.3718  34.8066

          k =-0.1394-0.5576 0.5576 (   307 PWs)   bands (ev):

     9.8099  10.2331  11.7046  12.2967  12.9298  15.9072  23.1539  26.1874
    30.5140  35.0283

          k =-0.0697-0.4879 0.4879 (   305 PWs)   bands (ev):

    10.1412  10.4021  11.3746  12.1724  12.7747  18.5834  19.8578  24.7658
    31.6411  35.4707

          k =-0.0000-0.4182 0.4182 (   303 PWs)   bands (ev):

    10.2839  10.6717  10.9931  12.0255  12.5025  16.3887  22.3647  24.6037
    33.6348  36.3514

          k = 0.5576 0.0000 0.0000 (   322 PWs)   bands (ev):

     9.3713   9.9680  12.7908  12.8196  12.8196  14.1430  25.4421  29.1710
    29.1710  33.4405

          k =-0.0697-0.6274 0.6274 (   310 PWs)   bands (ev):

     9.5030   9.9384  12.5706  12.7146  12.9727  16.1437  23.4240  26.2774
    28.9833  34.2646

          k = 0.0000-0.5576 0.5576 (   310 PWs)   bands (ev):

     9.7983  10.1089  11.9691  12.5329  12.8879  18.3191  22.2238  23.0998
    29.8494  34.7950

          k =-0.6971 0.0000 0.0000 (   302 PWs)   bands (ev):

     9.3760   9.8302  12.8494  13.0258  13.0258  16.2404  22.3511  28.4409
    28.4409  33.1951

          k = 0.2788 0.1394 0.0000 (   308 PWs)   bands (ev):

     7.4416  10.8283  11.5199  11.8400  12.0290  12.6104  30.8625  31.5629
    38.0676  39.7627

          k = 0.3485 0.2091-0.0697 (   311 PWs)   bands (ev):

     8.7905  10.7552  11.2828  11.8462  12.3459  13.2054  26.0958  30.6110
    35.3593  39.7669

          k =-0.2788-0.4182 0.5576 (   306 PWs)   bands (ev):

     9.6344  10.9682  11.2293  11.7333  12.7049  14.4962  21.7391  30.6661
    33.1435  39.2023

          k =-0.2091-0.3485 0.4879 (   308 PWs)   bands (ev):

     9.7762  10.9157  11.5275  11.6647  12.8230  16.0411  19.1622  31.2555
    31.8179  38.9725

          k = 0.4182 0.1394-0.0000 (   309 PWs)   bands (ev):

     9.0828  10.4271  11.4334  12.3355  12.4067  13.2453  28.3464  29.0342
    31.5646  37.8530

          k =-0.2091-0.4879 0.6274 (   311 PWs)   bands (ev):

     9.8361  10.4358  11.2440  12.2201  12.7455  14.8372  24.0626  28.5160
    29.2198  38.4067

          k =-0.1394-0.4182 0.5576 (   310 PWs)   bands (ev):

    10.1616  10.5149  11.1939  12.0584  12.8363  17.3221  20.2816  27.3119
    29.2862  38.7700

          k =-0.0697-0.3485 0.4879 (   305 PWs)   bands (ev):

    10.2639  10.6192  11.0050  12.0226  12.6722  16.5917  21.3513  26.2715
    30.6773  39.6936

          k = 0.0000-0.2788 0.4182 (   310 PWs)   bands (ev):

     9.8423  10.6799  10.9658  12.0862  12.3597  14.4758  25.0488  26.4137
    32.7407  41.1593

          k =-0.1394-0.5576 0.6971 (   315 PWs)   bands (ev):

     9.6276  10.1054  11.9651  12.6668  12.8175  15.2332  25.7595  26.6392
    27.4806  36.7123

          k =-0.0697-0.4879 0.6274 (   306 PWs)   bands (ev):

     9.9021  10.2218  11.6442  12.4428  12.9377  17.7801  22.8633  24.0945
    27.5599  37.7508

          k =-0.0000-0.4182 0.5576 (   306 PWs)   bands (ev):

    10.2379  10.4214  11.1975  12.2308  12.8206  19.3824  20.4797  23.6096
    28.7760  38.5745

          k =-0.6971 0.1394 0.0000 (   312 PWs)   bands (ev):

     9.6023   9.9838  12.3104  12.6726  13.0261  17.3950  22.5269  26.0175
    26.8624  36.3413

          k =-0.1394-0.4182 0.6971 (   305 PWs)   bands (ev):

    10.1754  10.5210  11.0114  12.2959  12.8138  17.0606  23.3268  25.0695
    26.9682  42.2518

          k =-0.0697-0.3485 0.6274 (   310 PWs)   bands (ev):

    10.2523  10.6566  10.8947  12.1936  12.9271  19.7032  20.4835  25.1289
    25.6912  42.6534

          k =-0.6971 0.2788 0.0000 (   302 PWs)   bands (ev):

    10.0579  10.4545  11.2535  12.2957  13.0266  19.7586  22.6965  23.0999
    24.7917  41.8356

 ------ SPIN DOWN ----------


          k = 0.0000 0.0000 0.0000 (   331 PWs)   bands (ev):

     5.1005  11.3448  11.3448  11.3448  12.2463  12.2463  39.1427  41.3606
    41.3606  41.3606

          k = 0.0697 0.0697-0.0697 (   316 PWs)   bands (ev):

     5.4769  11.2665  11.4157  11.4157  12.2219  12.2219  35.9713  39.6819
    40.3815  40.3815

          k = 0.1394 0.1394-0.1394 (   311 PWs)   bands (ev):

     6.5497  11.1139  11.5214  11.5214  12.2468  12.2468  30.4051  39.1476
    39.1588  39.1588

          k = 0.2091 0.2091-0.2091 (   305 PWs)   bands (ev):

     8.0333  11.2075  11.4730  11.4730  12.4760  12.4760  25.3348  38.3169
    38.3700  38.3700

          k = 0.2788 0.2788-0.2788 (   311 PWs)   bands (ev):

     9.0354  11.3597  11.3597  12.3231  12.7523  12.7523  21.0806  37.5776
    38.0190  38.0190

          k =-0.3485-0.3485 0.3485 (   302 PWs)   bands (ev):

     9.2345  11.3095  11.3095  12.8691  12.8691  13.6190  18.8677  37.2932
    37.9502  37.9502

          k = 0.1394 0.0000 0.0000 (   315 PWs)   bands (ev):

     5.6014  11.1931  11.4709  11.4709  12.1108  12.3030  37.5910  38.0645
    38.0645  39.6432

          k = 0.2091 0.0697-0.0697 (   310 PWs)   bands (ev):

     6.4413  11.0220  11.5853  11.6074  12.0468  12.3711  32.4750  36.3703
    37.5079  40.9560

          k = 0.2788 0.1394-0.1394 (   310 PWs)   bands (ev):

     7.8164  10.9257  11.4717  11.6283  12.3781  12.5597  27.2070  35.3666
    36.7372  38.9836

          k = 0.3485 0.2091-0.2091 (   307 PWs)   bands (ev):

     9.0481  11.2345  11.3793  11.5294  12.7952  13.1480  22.6080  35.1142
    35.6811  37.2093

          k =-0.2788-0.4182 0.4182 (   311 PWs)   bands (ev):

     9.4149  11.1780  11.4428  11.9995  12.8772  14.5501  19.2923  34.2064
    35.6839  36.9821

          k =-0.2091-0.3485 0.3485 (   310 PWs)   bands (ev):

     9.3676  11.2195  11.4435  11.9109  12.7221  14.1372  20.1500  33.2377
    37.1133  37.5879

          k =-0.1394-0.2788 0.2788 (   305 PWs)   bands (ev):

     8.7370  11.1675  11.3643  11.5399  12.3910  13.0907  24.0574  32.9792
    38.8929  39.3642

          k =-0.0697-0.2091 0.2091 (   311 PWs)   bands (ev):

     7.3261  10.9764  11.5096  11.6439  12.0767  12.5910  28.9064  33.4141
    40.7258  42.1740

          k = 0.0000-0.1394 0.1394 (   315 PWs)   bands (ev):

     6.0871  11.1305  11.5160  11.5257  12.0882  12.3280  34.0349  34.8150
    41.2271  42.7615

          k = 0.2788 0.0000 0.0000 (   303 PWs)   bands (ev):

     7.0089  10.8033  11.8263  11.8285  11.8285  12.4522  34.2683  34.2683
    35.5941  36.6203

          k = 0.3485 0.0697-0.0697 (   309 PWs)   bands (ev):

     8.1137  10.6026  11.5586  11.9673  12.3671  12.6059  29.5986  32.9226
    34.2849  36.1565

          k = 0.4182 0.1394-0.1394 (   316 PWs)   bands (ev):

     9.2863  10.5798  11.3291  11.9140  12.8289  13.4671  24.7774  31.8549
    32.4179  35.8432

          k =-0.2091-0.4879 0.4879 (   312 PWs)   bands (ev):

     9.8078  10.7450  11.3565  11.8083  12.8991  15.4401  20.7200  29.8905
    32.8266  35.9024

          k =-0.1394-0.4182 0.4182 (   307 PWs)   bands (ev):

     9.9089  10.8458  11.3841  11.7492  12.7242  16.2353  19.7242  28.5880
    34.1545  36.4801

          k =-0.0697-0.3485 0.3485 (   308 PWs)   bands (ev):

     9.6771  10.9724  11.0623  11.7783  12.3662  14.3642  23.3369  28.0292
    36.3211  37.6774

          k = 0.0000-0.2788 0.2788 (   311 PWs)   bands (ev):

     8.5907  10.8160  11.3325  11.8781  11.9808  13.2308  27.6022  28.5791
    39.1940  39.4878

          k = 0.4182 0.0000 0.0000 (   311 PWs)   bands (ev):

     8.7450  10.3354  12.0379  12.3370  12.3370  12.6386  31.0260  31.2114
    31.2114  34.2122

          k = 0.4879 0.0697-0.0697 (   313 PWs)   bands (ev):

     9.3720  10.1891  11.9783  12.4005  12.8346  13.5881  27.4198  28.3477
    30.3718  34.8066

          k =-0.1394-0.5576 0.5576 (   307 PWs)   bands (ev):

     9.8099  10.2331  11.7046  12.2967  12.9298  15.9072  23.1539  26.1874
    30.5140  35.0283

          k =-0.0697-0.4879 0.4879 (   305 PWs)   bands (ev):

    10.1412  10.4021  11.3746  12.1724  12.7747  18.5834  19.8578  24.7658
    31.6411  35.4707

          k =-0.0000-0.4182 0.4182 (   303 PWs)   bands (ev):

    10.2839  10.6717  10.9931  12.0255  12.5025  16.3887  22.3647  24.6037
    33.6348  36.3514

          k = 0.5576 0.0000 0.0000 (   322 PWs)   bands (ev):

     9.3713   9.9680  12.7908  12.8196  12.8196  14.1430  25.4421  29.1710
    29.1710  33.4405

          k =-0.0697-0.6274 0.6274 (   310 PWs)   bands (ev):

     9.5030   9.9384  12.5706  12.7146  12.9727  16.1437  23.4240  26.2774
    28.9833  34.2646

          k = 0.0000-0.5576 0.5576 (   310 PWs)   bands (ev):

     9.7983  10.1089  11.9691  12.5329  12.8879  18.3191  22.2238  23.0998
    29.8494  34.7950

          k =-0.6971 0.0000 0.0000 (   302 PWs)   bands (ev):

     9.3760   9.8302  12.8494  13.0258  13.0258  16.2404  22.3511  28.4409
    28.4409  33.1951

          k = 0.2788 0.1394 0.0000 (   308 PWs)   bands (ev):

     7.4416  10.8283  11.5199  11.8400  12.0290  12.6104  30.8625  31.5629
    38.0676  39.7627

          k = 0.3485 0.2091-0.0697 (   311 PWs)   bands (ev):

     8.7905  10.7552  11.2828  11.8462  12.3459  13.2054  26.0958  30.6110
    35.3593  39.7669

          k =-0.2788-0.4182 0.5576 (   306 PWs)   bands (ev):

     9.6344  10.9682  11.2293  11.7333  12.7049  14.4962  21.7391  30.6661
    33.1435  39.2023

          k =-0.2091-0.3485 0.4879 (   308 PWs)   bands (ev):

     9.7762  10.9157  11.5275  11.6647  12.8230  16.0411  19.1622  31.2555
    31.8179  38.9725

          k = 0.4182 0.1394-0.0000 (   309 PWs)   bands (ev):

     9.0828  10.4271  11.4334  12.3355  12.4067  13.2453  28.3464  29.0342
    31.5646  37.8530

          k =-0.2091-0.4879 0.6274 (   311 PWs)   bands (ev):

     9.8361  10.4358  11.2440  12.2201  12.7455  14.8372  24.0626  28.5160
    29.2198  38.4067

          k =-0.1394-0.4182 0.5576 (   310 PWs)   bands (ev):

    10.1616  10.5149  11.1939  12.0584  12.8363  17.3221  20.2816  27.3119
    29.2862  38.7700

          k =-0.0697-0.3485 0.4879 (   305 PWs)   bands (ev):

    10.2639  10.6192  11.0050  12.0226  12.6722  16.5917  21.3513  26.2715
    30.6773  39.6936

          k = 0.0000-0.2788 0.4182 (   310 PWs)   bands (ev):

     9.8423  10.6799  10.9658  12.0862  12.3597  14.4758  25.0488  26.4137
    32.7407  41.1593

          k =-0.1394-0.5576 0.6971 (   315 PWs)   bands (ev):

     9.6276  10.1054  11.9651  12.6668  12.8175  15.2332  25.7595  26.6392
    27.4806  36.7123

          k =-0.0697-0.4879 0.6274 (   306 PWs)   bands (ev):

     9.9021  10.2218  11.6442  12.4428  12.9377  17.7801  22.8633  24.0945
    27.5599  37.7508

          k =-0.0000-0.4182 0.5576 (   306 PWs)   bands (ev):

    10.2379  10.4214  11.1975  12.2308  12.8206  19.3824  20.4797  23.6096
    28.7760  38.5745

          k =-0.6971 0.1394 0.0000 (   312 PWs)   bands (ev):

     9.6023   9.9838  12.3104  12.6726  13.0261  17.3950  22.5269  26.0175
    26.8624  36.3413

          k =-0.1394-0.4182 0.6971 (   305 PWs)   bands (ev):

    10.1754  10.5210  11.0114  12.2959  12.8138  17.0606  23.3268  25.0695
    26.9682  42.2518

          k =-0.0697-0.3485 0.6274 (   310 PWs)   bands (ev):

    10.2523  10.6566  10.8947  12.1936  12.9271  19.7032  20.4835  25.1289
    25.6912  42.6534

          k =-0.6971 0.2788 0.0000 (   302 PWs)   bands (ev):

    10.0579  10.4545  11.2535  12.2957  13.0266  19.7586  22.6965  23.0999
    24.7917  41.8356

     the Fermi energy is    14.6158 ev

!    total energy              =     -87.84230558 Ry
     estimated scf accuracy    <          4.0E-11 Ry
     smearing contrib. (-TS)   =      -0.00016489 Ry
     internal energy E=F+TS    =     -87.84214068 Ry

     The total energy is F=E-TS. E is the sum of the following terms:
     one-electron contribution =      -9.85370605 Ry
     hartree contribution      =      18.75722974 Ry
     xc contribution           =     -14.06042945 Ry
     ewald contribution        =     -82.68523493 Ry

     total magnetization       =    -0.00 Bohr mag/cell
     absolute magnetization    =     0.00 Bohr mag/cell

     convergence has been achieved in   6 iterations

     Forces acting on atoms (cartesian axes, Ry/au):

     atom    1 type  1   force =     0.00000000    0.00000000    0.00000000
     The non-local contrib.  to forces
     atom    1 type  1   force =     0.00000000    0.00000000    0.00000000
     The ionic contribution  to forces
     atom    1 type  1   force =    -0.00000000   -0.00000000   -0.00000000
     The local contribution  to forces
     atom    1 type  1   force =    -0.00000000   -0.00000000   -0.00000000
     The core correction contribution to forces
     atom    1 type  1   force =     0.00000000    0.00000000    0.00000000
     The Hubbard contrib.    to forces
     atom    1 type  1   force =     0.00000000    0.00000000    0.00000000
     The SCF correction term to forces
     atom    1 type  1   force =     0.00000000    0.00000000   -0.00000000

     Total force =     0.000000     Total SCF correction =     0.000000


     Computing stress (Cartesian axis) and pressure

          total   stress  (Ry/bohr**3)                   (kbar)     P=        1.34
   0.00000913   0.00000000   0.00000000            1.34        0.00        0.00
   0.00000000   0.00000913   0.00000000            0.00        1.34        0.00
   0.00000000   0.00000000   0.00000913            0.00        0.00        1.34

     Energy error            =      1.7E-07 Ry
     Gradient error          =      0.0E+00 Ry/Bohr
     Cell gradient error     =      1.3E+00 kbar

     number of scf cycles    =   3
     number of bfgs steps    =   2

     enthalpy           old  =     -87.8423054065 Ry
     enthalpy           new  =     -87.8423055777 Ry

     CASE: enthalpy          _new < enthalpy          _old


     WARNING: bfgs curvature condition failed, Theta= 0.216
     new trust radius        =       0.0001197783 bohr
     new conv_thr            =       0.0000000010 Ry

     new unit-cell volume =     75.52328 a.u.^3 (    11.19140 Ang^3 )
     density =      9.42873 g/cm^3

CELL_PARAMETERS (angstrom)
  -0.000000000   1.775353127   1.775353127
   1.775353127  -0.000000000   1.775353127
   1.775353127   1.775353127  -0.000000000

ATOMIC_POSITIONS (angstrom)
Cu            0.0000000000        0.0000000000        0.0000000000



     Writing config-only to output data dir /home/gridsan/epan1/labutil/lab3_samples/problem3/Lab3/Cu_a_3.5_ecut_40_nk_10/pwscf.save/
     NEW-OLD atomic charge density approx. for the potential
     extrapolated charge   11.00227, renormalised to   11.00000
     Generating pointlists ...

     total cpu time spent up to now is        8.1 secs

     Self-consistent Calculation

     iteration #  1     ecut=    40.00 Ry     beta= 0.50
     Davidson diagonalization with overlap
     ethr =  1.00E-06,  avg # of iterations =  2.0

     Threshold (ethr) on eigenvalues was too large:
     Diagonalizing with lowered threshold

     Davidson diagonalization with overlap
     ethr =  3.11E-08,  avg # of iterations =  1.0

     total cpu time spent up to now is        8.7 secs

     total energy              =     -87.84230210 Ry
     estimated scf accuracy    <       0.00000344 Ry

     total magnetization       =    -0.00 Bohr mag/cell
     absolute magnetization    =     0.00 Bohr mag/cell

     iteration #  2     ecut=    40.00 Ry     beta= 0.50
     Davidson diagonalization with overlap
     ethr =  3.13E-08,  avg # of iterations =  2.0

     total cpu time spent up to now is        9.0 secs

     total energy              =     -87.84230564 Ry
     estimated scf accuracy    <       0.00000619 Ry

     total magnetization       =    -0.00 Bohr mag/cell
     absolute magnetization    =     0.00 Bohr mag/cell

     iteration #  3     ecut=    40.00 Ry     beta= 0.50
     Davidson diagonalization with overlap
     ethr =  3.13E-08,  avg # of iterations =  1.0

     total cpu time spent up to now is        9.2 secs

     total energy              =     -87.84230594 Ry
     estimated scf accuracy    <       0.00000108 Ry

     total magnetization       =    -0.00 Bohr mag/cell
     absolute magnetization    =     0.00 Bohr mag/cell

     iteration #  4     ecut=    40.00 Ry     beta= 0.50
     Davidson diagonalization with overlap
     ethr =  9.78E-09,  avg # of iterations =  1.0

     total cpu time spent up to now is        9.4 secs

     total energy              =     -87.84230561 Ry
     estimated scf accuracy    <       0.00000079 Ry

     total magnetization       =    -0.00 Bohr mag/cell
     absolute magnetization    =     0.00 Bohr mag/cell

     iteration #  5     ecut=    40.00 Ry     beta= 0.50
     Davidson diagonalization with overlap
     ethr =  7.16E-09,  avg # of iterations =  1.0

     total cpu time spent up to now is        9.7 secs

     total energy              =     -87.84230571 Ry
     estimated scf accuracy    <       0.00000001 Ry

     total magnetization       =     0.00 Bohr mag/cell
     absolute magnetization    =     0.00 Bohr mag/cell

     iteration #  6     ecut=    40.00 Ry     beta= 0.50
     Davidson diagonalization with overlap
     ethr =  1.18E-10,  avg # of iterations =  2.0

     total cpu time spent up to now is       10.0 secs

     total energy              =     -87.84230571 Ry
     estimated scf accuracy    <       0.00000003 Ry

     total magnetization       =     0.00 Bohr mag/cell
     absolute magnetization    =     0.00 Bohr mag/cell

     iteration #  7     ecut=    40.00 Ry     beta= 0.50
     Davidson diagonalization with overlap
     ethr =  1.18E-10,  avg # of iterations =  1.7

     Magnetic moment per site  (integrated on atomic sphere of radius R)
     atom   1 (R=0.412)  charge=  9.7308  magn= -0.0000

     total cpu time spent up to now is       10.5 secs

     End of self-consistent calculation

 ------ SPIN UP ------------


          k = 0.0000 0.0000 0.0000 (   331 PWs)   bands (ev):

     5.0980  11.3414  11.3414  11.3414  12.2427  12.2427  39.1363  41.3528
    41.3528  41.3528

          k = 0.0697 0.0697-0.0697 (   316 PWs)   bands (ev):

     5.4744  11.2631  11.4123  11.4123  12.2183  12.2183  35.9645  39.6751
    40.3737  40.3737

          k = 0.1394 0.1394-0.1394 (   311 PWs)   bands (ev):

     6.5470  11.1106  11.5180  11.5180  12.2432  12.2432  30.3989  39.1410
    39.1511  39.1511

          k = 0.2091 0.2091-0.2091 (   305 PWs)   bands (ev):

     8.0305  11.2042  11.4696  11.4696  12.4722  12.4722  25.3291  38.3105
    38.3624  38.3624

          k = 0.2788 0.2788-0.2788 (   311 PWs)   bands (ev):

     9.0325  11.3563  11.3563  12.3196  12.7485  12.7485  21.0753  37.5714
    38.0114  38.0114

          k =-0.3485-0.3485 0.3485 (   302 PWs)   bands (ev):

     9.2316  11.3061  11.3061  12.8653  12.8653  13.6155  18.8624  37.2870
    37.9425  37.9425

          k = 0.1394 0.0000 0.0000 (   315 PWs)   bands (ev):

     5.5988  11.1898  11.4675  11.4675  12.1072  12.2993  37.5844  38.0570
    38.0570  39.6359

          k = 0.2091 0.0697-0.0697 (   310 PWs)   bands (ev):

     6.4386  11.0188  11.5818  11.6039  12.0432  12.3674  32.4685  36.3630
    37.5012  40.9488

          k = 0.2788 0.1394-0.1394 (   310 PWs)   bands (ev):

     7.8135  10.9224  11.4683  11.6249  12.3744  12.5560  27.2011  35.3595
    36.7307  38.9758

          k = 0.3485 0.2091-0.2091 (   307 PWs)   bands (ev):

     9.0452  11.2313  11.3759  11.5260  12.7914  13.1441  22.6026  35.1072
    35.6747  37.2018

          k =-0.2788-0.4182 0.4182 (   311 PWs)   bands (ev):

     9.4120  11.1747  11.4394  11.9961  12.8733  14.5462  19.2871  34.1998
    35.6767  36.9751

          k =-0.2091-0.3485 0.3485 (   310 PWs)   bands (ev):

     9.3647  11.2161  11.4401  11.9075  12.7183  14.1333  20.1448  33.2311
    37.1058  37.5811

          k =-0.1394-0.2788 0.2788 (   305 PWs)   bands (ev):

     8.7341  11.1642  11.3609  11.5365  12.3873  13.0868  24.0518  32.9726
    38.8860  39.3564

          k =-0.0697-0.2091 0.2091 (   311 PWs)   bands (ev):

     7.3233  10.9732  11.5061  11.6404  12.0731  12.5873  28.9003  33.4074
    40.7188  42.1655

          k = 0.0000-0.1394 0.1394 (   315 PWs)   bands (ev):

     6.0845  11.1272  11.5126  11.5222  12.0846  12.3243  34.0282  34.8081
    41.2199  42.7534

          k = 0.2788 0.0000 0.0000 (   303 PWs)   bands (ev):

     7.0061  10.8001  11.8228  11.8249  11.8249  12.4485  34.2614  34.2614
    35.5875  36.6138

          k = 0.3485 0.0697-0.0697 (   309 PWs)   bands (ev):

     8.1108  10.5994  11.5552  11.9638  12.3634  12.6022  29.5924  32.9159
    34.2785  36.1494

          k = 0.4182 0.1394-0.1394 (   316 PWs)   bands (ev):

     9.2833  10.5767  11.3258  11.9105  12.8250  13.4632  24.7718  31.8485
    32.4113  35.8361

          k =-0.2091-0.4879 0.4879 (   312 PWs)   bands (ev):

[...]

     total magnetization       =    -0.00 Bohr mag/cell
     absolute magnetization    =     0.00 Bohr mag/cell

     iteration #  8     ecut=    40.00 Ry     beta= 0.50
     Davidson diagonalization with overlap
     ethr =  1.53E-11,  avg # of iterations =  1.5

     Magnetic moment per site  (integrated on atomic sphere of radius R)
     atom   1 (R=0.412)  charge=  9.7305  magn= -0.0000

     total cpu time spent up to now is       20.1 secs

     End of self-consistent calculation

 ------ SPIN UP ------------


          k = 0.0000 0.0000 0.0000 (   331 PWs)   bands (ev):

     5.0943  11.3362  11.3362  11.3362  12.2370  12.2370  39.1268  41.3410
    41.3410  41.3410

          k = 0.0697 0.0697-0.0697 (   328 PWs)   bands (ev):

     5.4706  11.2579  11.4070  11.4070  12.2126  12.2126  35.9540  39.6648
    40.3620  40.3620

          k = 0.1394 0.1394-0.1394 (   320 PWs)   bands (ev):

     6.5430  11.1055  11.5127  11.5127  12.2375  12.2375  30.3894  39.1312
    39.1394  39.1394

          k = 0.2091 0.2091-0.2091 (   317 PWs)   bands (ev):

     8.0262  11.1991  11.4643  11.4643  12.4665  12.4665  25.3204  38.3009
    38.3509  38.3509

          k = 0.2788 0.2788-0.2788 (   323 PWs)   bands (ev):

     9.0281  11.3511  11.3511  12.3144  12.7426  12.7426  21.0672  37.5621
    37.9999  37.9999

          k =-0.3485-0.3485 0.3485 (   332 PWs)   bands (ev):

     9.2272  11.3009  11.3009  12.8593  12.8593  13.6102  18.8545  37.2779
    37.9310  37.9310

          k = 0.1394 0.0000 0.0000 (   327 PWs)   bands (ev):

     5.5950  11.1847  11.4622  11.4622  12.1016  12.2936  37.5745  38.0456
    38.0456  39.6249

          k = 0.2091 0.0697-0.0697 (   319 PWs)   bands (ev):

     6.4346  11.0137  11.5765  11.5986  12.0376  12.3616  32.4587  36.3519
    37.4909  40.9379

          k = 0.2788 0.1394-0.1394 (   318 PWs)   bands (ev):

     7.8093  10.9174  11.4631  11.6195  12.3687  12.5502  27.1922  35.3487
    36.7209  38.9641

          k = 0.3485 0.2091-0.2091 (   325 PWs)   bands (ev):

     9.0408  11.2261  11.3707  11.5206  12.7855  13.1382  22.5944  35.0964
    35.6648  37.1905

          k =-0.2788-0.4182 0.4182 (   325 PWs)   bands (ev):

     9.4076  11.1696  11.4342  11.9907  12.8674  14.5403  19.2792  34.1898
    35.6659  36.9647

          k =-0.2091-0.3485 0.3485 (   326 PWs)   bands (ev):

     9.3603  11.2110  11.4348  11.9022  12.7124  14.1272  20.1368  33.2210
    37.0945  37.5709

          k =-0.1394-0.2788 0.2788 (   320 PWs)   bands (ev):

     8.7297  11.1591  11.3557  11.5311  12.3815  13.0808  24.0434  32.9626
    38.8757  39.3443

          k =-0.0697-0.2091 0.2091 (   320 PWs)   bands (ev):

     7.3191  10.9682  11.5008  11.6351  12.0675  12.5814  28.8911  33.3973
    40.7081  42.1524

          k = 0.0000-0.1394 0.1394 (   319 PWs)   bands (ev):

     6.0806  11.1220  11.5073  11.5169  12.0791  12.3186  34.0181  34.7977
    41.2091  42.7412

          k = 0.2788 0.0000 0.0000 (   323 PWs)   bands (ev):

     7.0020  10.7951  11.8173  11.8195  11.8195  12.4427  34.2509  34.2509
    35.5774  36.6038

          k = 0.3485 0.0697-0.0697 (   322 PWs)   bands (ev):

     8.1065  10.5946  11.5499  11.9583  12.3577  12.5963  29.5831  32.9058
    34.2688  36.1386

          k = 0.4182 0.1394-0.1394 (   324 PWs)   bands (ev):

     9.2789  10.5719  11.3206  11.9050  12.8191  13.4571  24.7633  31.8389
    32.4013  35.8255

          k =-0.2091-0.4879 0.4879 (   323 PWs)   bands (ev):

     9.8002  10.7370  11.3480  11.7993  12.8892  15.4295  20.7069  29.8749
    32.8098  35.8849

          k =-0.1394-0.4182 0.4182 (   328 PWs)   bands (ev):

     9.9013  10.8378  11.3755  11.7403  12.7145  16.2245  19.7113  28.5727
    34.1371  36.4627

          k =-0.0697-0.3485 0.3485 (   319 PWs)   bands (ev):

     9.6695  10.9642  11.0540  11.7693  12.3567  14.3537  23.3232  28.0140
    36.3027  37.6600

          k = 0.0000-0.2788 0.2788 (   323 PWs)   bands (ev):

     8.5833  10.8079  11.3239  11.8691  11.9717  13.2207  27.5874  28.5636
    39.1742  39.4701

          k = 0.4182 0.0000 0.0000 (   323 PWs)   bands (ev):

     8.7378  10.3277  12.0289  12.3276  12.3276  12.6289  31.0104  31.1954
    31.1954  34.1959

          k = 0.4879 0.0697-0.0697 (   321 PWs)   bands (ev):

     9.3648  10.1815  11.9692  12.3911  12.8248  13.5781  27.4052  28.3323
    30.3562  34.7895

          k =-0.1394-0.5575 0.5575 (   326 PWs)   bands (ev):

     9.8025  10.2254  11.6958  12.2873  12.9199  15.8964  23.1405  26.1726
    30.4982  35.0108

          k =-0.0697-0.4879 0.4879 (   324 PWs)   bands (ev):

    10.1336  10.3944  11.3660  12.1631  12.7650  18.5719  19.8452  24.7513
    31.6248  35.4533

          k =-0.0000-0.4182 0.4182 (   329 PWs)   bands (ev):

    10.2761  10.6637  10.9849  12.0164  12.4929  16.3775  22.3517  24.5892
    33.6176  36.3339

          k = 0.5575 0.0000 0.0000 (   322 PWs)   bands (ev):

     9.3642   9.9606  12.7811  12.8099  12.8099  14.1334  25.4276  29.1559
    29.1559  33.4242

          k =-0.0697-0.6272 0.6272 (   322 PWs)   bands (ev):

     9.4959   9.9309  12.5611  12.7049  12.9628  16.1333  23.4099  26.2631
    28.9683  34.2477

          k = 0.0000-0.5575 0.5575 (   322 PWs)   bands (ev):

     9.7909  10.1013  11.9601  12.5234  12.8780  18.3078  22.2110  23.0853
    29.8340  34.7777

          k =-0.6969 0.0000 0.0000 (   326 PWs)   bands (ev):

     9.3689   9.8229  12.8396  13.0159  13.0159  16.2304  22.3370  28.4261
    28.4261  33.1786

          k = 0.2788 0.1394-0.0000 (   320 PWs)   bands (ev):

     7.4346  10.8201  11.5112  11.8310  12.0199  12.6008  30.8467  31.5466
    38.0497  39.7445

          k = 0.3485 0.2091-0.0697 (   321 PWs)   bands (ev):

     8.7831  10.7472  11.2743  11.8372  12.3365  13.1954  26.0813  30.5952
    35.3419  39.7481

          k =-0.2788-0.4182 0.5575 (   323 PWs)   bands (ev):

     9.6269  10.9600  11.2209  11.7244  12.6953  14.4857  21.7257  30.6503
    33.1266  39.1840

          k =-0.2091-0.3485 0.4879 (   318 PWs)   bands (ev):

     9.7687  10.9076  11.5190  11.6559  12.8132  16.0307  19.1492  31.2401
    31.8009  38.9545

          k = 0.4182 0.1394-0.0000 (   323 PWs)   bands (ev):

     9.0754  10.4193  11.4248  12.3261  12.3973  13.2353  28.3314  29.0189
    31.5482  37.8351

          k =-0.2091-0.4879 0.6272 (   324 PWs)   bands (ev):

     9.8286  10.4280  11.2356  12.2108  12.7358  14.8266  24.0488  28.5012
    29.2037  38.3884

          k =-0.1394-0.4182 0.5575 (   319 PWs)   bands (ev):

    10.1539  10.5071  11.1855  12.0493  12.8265  17.3109  20.2687  27.2971
    29.2705  38.7516

          k =-0.0697-0.3485 0.4879 (   324 PWs)   bands (ev):

    10.2561  10.6113  10.9967  12.0134  12.6626  16.5805  21.3383  26.2569
    30.6612  39.6750

          k = 0.0000-0.2788 0.4182 (   324 PWs)   bands (ev):

     9.8347  10.6719  10.9575  12.0771  12.3503  14.4652  25.0349  26.3988
    32.7241  41.1401

          k =-0.1394-0.5575 0.6969 (   324 PWs)   bands (ev):

     9.6203  10.0978  11.9561  12.6572  12.8078  15.2227  25.7451  26.6249
    27.4654  36.6949

          k =-0.0697-0.4879 0.6272 (   320 PWs)   bands (ev):

     9.8947  10.2141  11.6354  12.4333  12.9279  17.7688  22.8502  24.0801
    27.5449  37.7326

          k = 0.0000-0.4182 0.5575 (   325 PWs)   bands (ev):

    10.2303  10.4136  11.1891  12.2215  12.8108  19.3703  20.4675  23.5952
    28.7606  38.5560

          k =-0.6969 0.1394-0.0000 (   320 PWs)   bands (ev):

     9.5951   9.9763  12.3011  12.6630  13.0162  17.3843  22.5129  26.0035
    26.8476  36.3241

          k =-0.1394-0.4182 0.6969 (   325 PWs)   bands (ev):

    10.1678  10.5131  11.0031  12.2865  12.8040  17.0493  23.3135  25.0553
    26.9530  42.2324

          k =-0.0697-0.3485 0.6272 (   324 PWs)   bands (ev):

    10.2447  10.6486  10.8865  12.1843  12.9173  19.6913  20.4708  25.1153
    25.6758  42.6338

          k =-0.6969 0.2788 0.0000 (   322 PWs)   bands (ev):

    10.0504  10.4467  11.2451  12.2863  13.0166  19.7468  22.6835  23.0863
    24.7767  41.8164

 ------ SPIN DOWN ----------


          k = 0.0000 0.0000 0.0000 (   331 PWs)   bands (ev):

     5.0943  11.3362  11.3362  11.3362  12.2370  12.2370  39.1268  41.3410
    41.3410  41.3410

          k = 0.0697 0.0697-0.0697 (   328 PWs)   bands (ev):

     5.4706  11.2579  11.4070  11.4070  12.2126  12.2126  35.9540  39.6648
    40.3620  40.3620

          k = 0.1394 0.1394-0.1394 (   320 PWs)   bands (ev):

     6.5430  11.1055  11.5127  11.5127  12.2375  12.2375  30.3894  39.1312
    39.1394  39.1394

          k = 0.2091 0.2091-0.2091 (   317 PWs)   bands (ev):

     8.0262  11.1991  11.4643  11.4643  12.4665  12.4665  25.3204  38.3009
    38.3509  38.3509

          k = 0.2788 0.2788-0.2788 (   323 PWs)   bands (ev):

     9.0281  11.3511  11.3511  12.3144  12.7426  12.7426  21.0672  37.5621
    37.9999  37.9999

          k =-0.3485-0.3485 0.3485 (   332 PWs)   bands (ev):

     9.2272  11.3009  11.3009  12.8593  12.8593  13.6102  18.8545  37.2779
    37.9310  37.9310

          k = 0.1394 0.0000 0.0000 (   327 PWs)   bands (ev):

     5.5950  11.1847  11.4622  11.4622  12.1016  12.2936  37.5745  38.0456
    38.0456  39.6249

          k = 0.2091 0.0697-0.0697 (   319 PWs)   bands (ev):

     6.4346  11.0137  11.5765  11.5986  12.0376  12.3616  32.4587  36.3519
    37.4909  40.9379

          k = 0.2788 0.1394-0.1394 (   318 PWs)   bands (ev):

     7.8093  10.9174  11.4631  11.6195  12.3687  12.5502  27.1922  35.3487
    36.7209  38.9641

          k = 0.3485 0.2091-0.2091 (   325 PWs)   bands (ev):

     9.0408  11.2261  11.3707  11.5206  12.7855  13.1382  22.5944  35.0964
    35.6648  37.1905

          k =-0.2788-0.4182 0.4182 (   325 PWs)   bands (ev):

     9.4076  11.1696  11.4342  11.9907  12.8674  14.5403  19.2792  34.1898
    35.6659  36.9647

          k =-0.2091-0.3485 0.3485 (   326 PWs)   bands (ev):

     9.3603  11.2110  11.4348  11.9022  12.7124  14.1272  20.1368  33.2210
    37.0945  37.5709

          k =-0.1394-0.2788 0.2788 (   320 PWs)   bands (ev):

     8.7297  11.1591  11.3557  11.5311  12.3815  13.0808  24.0434  32.9626
    38.8757  39.3443

          k =-0.0697-0.2091 0.2091 (   320 PWs)   bands (ev):

     7.3191  10.9682  11.5008  11.6351  12.0675  12.5814  28.8911  33.3973
    40.7081  42.1524

          k = 0.0000-0.1394 0.1394 (   319 PWs)   bands (ev):

     6.0806  11.1220  11.5073  11.5169  12.0791  12.3186  34.0181  34.7977
    41.2091  42.7411

          k = 0.2788 0.0000 0.0000 (   323 PWs)   bands (ev):

     7.0020  10.7951  11.8173  11.8195  11.8195  12.4427  34.2509  34.2509
    35.5774  36.6038

          k = 0.3485 0.0697-0.0697 (   322 PWs)   bands (ev):

     8.1065  10.5946  11.5499  11.9583  12.3577  12.5963  29.5831  32.9058
    34.2688  36.1386

          k = 0.4182 0.1394-0.1394 (   324 PWs)   bands (ev):

     9.2789  10.5719  11.3206  11.9050  12.8191  13.4571  24.7633  31.8389
    32.4013  35.8255

          k =-0.2091-0.4879 0.4879 (   323 PWs)   bands (ev):

     9.8002  10.7370  11.3480  11.7993  12.8892  15.4295  20.7069  29.8749
    32.8098  35.8849

          k =-0.1394-0.4182 0.4182 (   328 PWs)   bands (ev):

     9.9013  10.8378  11.3755  11.7403  12.7145  16.2245  19.7113  28.5727
    34.1371  36.4627

          k =-0.0697-0.3485 0.3485 (   319 PWs)   bands (ev):

     9.6695  10.9642  11.0540  11.7693  12.3567  14.3537  23.3232  28.0140
    36.3027  37.6600

          k = 0.0000-0.2788 0.2788 (   323 PWs)   bands (ev):

     8.5833  10.8079  11.3239  11.8691  11.9717  13.2207  27.5874  28.5636
    39.1742  39.4701

          k = 0.4182 0.0000 0.0000 (   323 PWs)   bands (ev):

     8.7378  10.3277  12.0289  12.3276  12.3276  12.6289  31.0104  31.1954
    31.1954  34.1959

          k = 0.4879 0.0697-0.0697 (   321 PWs)   bands (ev):

     9.3648  10.1815  11.9692  12.3911  12.8248  13.5781  27.4052  28.3323
    30.3562  34.7895

          k =-0.1394-0.5575 0.5575 (   326 PWs)   bands (ev):

     9.8025  10.2254  11.6958  12.2873  12.9199  15.8964  23.1405  26.1726
    30.4982  35.0108

          k =-0.0697-0.4879 0.4879 (   324 PWs)   bands (ev):

    10.1336  10.3944  11.3660  12.1631  12.7650  18.5719  19.8452  24.7513
    31.6248  35.4533

          k =-0.0000-0.4182 0.4182 (   329 PWs)   bands (ev):

    10.2761  10.6637  10.9849  12.0164  12.4929  16.3775  22.3517  24.5892
    33.6176  36.3339

          k = 0.5575 0.0000 0.0000 (   322 PWs)   bands (ev):

     9.3642   9.9606  12.7811  12.8099  12.8099  14.1334  25.4276  29.1559
    29.1559  33.4242

          k =-0.0697-0.6272 0.6272 (   322 PWs)   bands (ev):

     9.4959   9.9309  12.5611  12.7049  12.9628  16.1333  23.4099  26.2631
    28.9683  34.2477

          k = 0.0000-0.5575 0.5575 (   322 PWs)   bands (ev):

     9.7909  10.1013  11.9601  12.5234  12.8780  18.3078  22.2110  23.0853
    29.8340  34.7777

          k =-0.6969 0.0000 0.0000 (   326 PWs)   bands (ev):

     9.3689   9.8229  12.8396  13.0159  13.0159  16.2304  22.3370  28.4261
    28.4261  33.1786

          k = 0.2788 0.1394-0.0000 (   320 PWs)   bands (ev):

     7.4346  10.8201  11.5112  11.8310  12.0199  12.6008  30.8467  31.5466
    38.0497  39.7445

          k = 0.3485 0.2091-0.0697 (   321 PWs)   bands (ev):

     8.7831  10.7472  11.2743  11.8372  12.3365  13.1954  26.0813  30.5952
    35.3419  39.7481

          k =-0.2788-0.4182 0.5575 (   323 PWs)   bands (ev):

     9.6269  10.9600  11.2209  11.7244  12.6953  14.4857  21.7257  30.6503
    33.1266  39.1840

          k =-0.2091-0.3485 0.4879 (   318 PWs)   bands (ev):

     9.7687  10.9076  11.5190  11.6559  12.8132  16.0307  19.1492  31.2401
    31.8009  38.9545

          k = 0.4182 0.1394-0.0000 (   323 PWs)   bands (ev):

     9.0754  10.4193  11.4248  12.3261  12.3973  13.2353  28.3314  29.0189
    31.5482  37.8351

          k =-0.2091-0.4879 0.6272 (   324 PWs)   bands (ev):

     9.8286  10.4280  11.2356  12.2108  12.7358  14.8266  24.0488  28.5012
    29.2037  38.3884

          k =-0.1394-0.4182 0.5575 (   319 PWs)   bands (ev):

    10.1539  10.5071  11.1855  12.0493  12.8265  17.3109  20.2687  27.2971
    29.2705  38.7516

          k =-0.0697-0.3485 0.4879 (   324 PWs)   bands (ev):

    10.2561  10.6113  10.9967  12.0134  12.6626  16.5805  21.3383  26.2569
    30.6612  39.6750

          k = 0.0000-0.2788 0.4182 (   324 PWs)   bands (ev):

     9.8347  10.6719  10.9575  12.0771  12.3503  14.4652  25.0349  26.3988
    32.7241  41.1401

          k =-0.1394-0.5575 0.6969 (   324 PWs)   bands (ev):

     9.6203  10.0978  11.9561  12.6572  12.8078  15.2227  25.7451  26.6249
    27.4654  36.6949

          k =-0.0697-0.4879 0.6272 (   320 PWs)   bands (ev):

     9.8947  10.2141  11.6354  12.4333  12.9279  17.7688  22.8502  24.0801
    27.5449  37.7326

          k = 0.0000-0.4182 0.5575 (   325 PWs)   bands (ev):

    10.2303  10.4136  11.1891  12.2215  12.8108  19.3703  20.4675  23.5952
    28.7606  38.5560

          k =-0.6969 0.1394-0.0000 (   320 PWs)   bands (ev):

     9.5951   9.9763  12.3011  12.6630  13.0162  17.3843  22.5129  26.0035
    26.8476  36.3241

          k =-0.1394-0.4182 0.6969 (   325 PWs)   bands (ev):

    10.1678  10.5131  11.0031  12.2865  12.8040  17.0493  23.3135  25.0553
    26.9530  42.2325

          k =-0.0697-0.3485 0.6272 (   324 PWs)   bands (ev):

    10.2447  10.6486  10.8865  12.1843  12.9173  19.6913  20.4708  25.1153
    25.6758  42.6338

          k =-0.6969 0.2788 0.0000 (   322 PWs)   bands (ev):

    10.0504  10.4467  11.2451  12.2863  13.0166  19.7468  22.6835  23.0863
    24.7767  41.8164

     the Fermi energy is    14.6054 ev

!    total energy              =     -87.84231941 Ry
     estimated scf accuracy    <          2.5E-12 Ry
     smearing contrib. (-TS)   =      -0.00016497 Ry
     internal energy E=F+TS    =     -87.84215444 Ry

     The total energy is F=E-TS. E is the sum of the following terms:
     one-electron contribution =      -9.87548169 Ry
     hartree contribution      =      18.76442776 Ry
     xc contribution           =     -14.06011003 Ry
     ewald contribution        =     -82.67099047 Ry

     total magnetization       =    -0.00 Bohr mag/cell
     absolute magnetization    =     0.00 Bohr mag/cell

     convergence has been achieved in   8 iterations

     Forces acting on atoms (cartesian axes, Ry/au):

     atom    1 type  1   force =     0.00000000    0.00000000    0.00000000
     The non-local contrib.  to forces
     atom    1 type  1   force =     0.00000000   -0.00000000    0.00000000
     The ionic contribution  to forces
     atom    1 type  1   force =    -0.00000000   -0.00000000   -0.00000000
     The local contribution  to forces
     atom    1 type  1   force =    -0.00000000   -0.00000000    0.00000000
     The core correction contribution to forces
     atom    1 type  1   force =     0.00000000    0.00000000    0.00000000
     The Hubbard contrib.    to forces
     atom    1 type  1   force =     0.00000000    0.00000000    0.00000000
     The SCF correction term to forces
     atom    1 type  1   force =    -0.00000000   -0.00000000    0.00000000

     Total force =     0.000000     Total SCF correction =     0.000000


     Computing stress (Cartesian axis) and pressure

          total   stress  (Ry/bohr**3)                   (kbar)     P=        0.67
   0.00000453  -0.00000000  -0.00000000            0.67       -0.00       -0.00
  -0.00000000   0.00000453  -0.00000000           -0.00        0.67       -0.00
  -0.00000000  -0.00000000   0.00000453           -0.00       -0.00        0.67


     init_run     :      0.45s CPU      0.75s WALL (       2 calls)
     electrons    :     17.06s CPU     17.95s WALL (       7 calls)
     update_pot   :      0.17s CPU      0.16s WALL (       4 calls)
     forces       :      0.32s CPU      0.29s WALL (       7 calls)
     stress       :      0.69s CPU      0.65s WALL (       7 calls)

     Called by init_run:
     wfcinit      :      0.09s CPU      0.14s WALL (       2 calls)
     potinit      :      0.17s CPU      0.16s WALL (       3 calls)
     hinit0       :      0.21s CPU      0.42s WALL (       2 calls)

     Called by electrons:
     c_bands      :     14.60s CPU     15.63s WALL (      60 calls)
     sum_band     :      2.03s CPU      1.92s WALL (      60 calls)
     v_of_rho     :      0.10s CPU      0.10s WALL (      64 calls)
     newd         :      0.13s CPU      0.12s WALL (      64 calls)
     mix_rho      :      0.06s CPU      0.06s WALL (      60 calls)

     Called by c_bands:
     init_us_2    :      0.29s CPU      0.28s WALL (   12784 calls)
     init_us_2:cp :      0.27s CPU      0.26s WALL (   12784 calls)
     cegterg      :     11.97s CPU     11.70s WALL (    5640 calls)

     Called by *egterg:
     cdiaghg      :      2.91s CPU      2.82s WALL (   15324 calls)
     h_psi        :      6.81s CPU      6.72s WALL (   16264 calls)
     s_psi        :      0.11s CPU      0.11s WALL (   16264 calls)
     g_psi        :      0.03s CPU      0.03s WALL (   10436 calls)

     Called by h_psi:
     h_psi:calbec :      0.68s CPU      0.67s WALL (   16264 calls)
     vloc_psi     :      5.92s CPU      5.84s WALL (   16264 calls)
     add_vuspsi   :      0.12s CPU      0.12s WALL (   16264 calls)

     General routines
     calbec       :      1.05s CPU      1.03s WALL (   25194 calls)
     fft          :      0.15s CPU      0.15s WALL (     720 calls)
     ffts         :      0.13s CPU      0.13s WALL (     248 calls)
     fftw         :      5.96s CPU      5.84s WALL (  329702 calls)
     interpolate  :      0.14s CPU      0.14s WALL (     128 calls)

     Parallel routines

     PWSCF        :     19.05s CPU     20.35s WALL


   This run was terminated on:  10:55:45   3Nov2023            

=------------------------------------------------------------------------------=
   JOB DONE.
=------------------------------------------------------------------------------=
