
     Program PWSCF v.7.2 starts on  2Nov2023 at 17:42:43 

     This program is part of the open-source Quantum ESPRESSO suite
     for quantum simulation of materials; please cite
         "P. Giannozzi et al., J. Phys.:Condens. Matter 21 395502 (2009);
         "P. Giannozzi et al., J. Phys.:Condens. Matter 29 465901 (2017);
         "P. Giannozzi et al., J. Chem. Phys. 152 154105 (2020);
          URL http://www.quantum-espresso.org", 
     in publications or presentations arising from this work. More details at
     http://www.quantum-espresso.org/quote

     Parallel version (MPI), running on     2 processors

     MPI processes distributed on     2 nodes
     187223 MiB available memory on the printing compute node when the environment starts

     Waiting for input...
     Reading input from standard input
Warning: card &CELL ignored
Warning: card / ignored

     Current dimensions of program PWSCF are:
     Max number of different atomic species (ntypx) = 10
     Max number of k-points (npk) =  40000
     Max angular momentum in pseudopotentials (lmaxx) =  4
     file O.pz-rrkjus.UPF: wavefunction(s)  2S renormalized
     Message from routine setup:
     using ibrav=0 with symmetry is DISCOURAGED, use correct ibrav instead

     R & G space division:  proc/nbgrp/npool/nimage =       2
     Subspace diagonalization in iterative solution of the eigenvalue problem:
     a serial algorithm will be used


     Parallelization info
     --------------------
     sticks:   dense  smooth     PW     G-vecs:    dense   smooth      PW
     Min         494     248     72                11791     4192     682
     Max         495     249     73                11792     4193     683
     Sum         989     497    145                23583     8385    1365

     Using Slab Decomposition



     bravais-lattice index     =            0
     lattice parameter (alat)  =       7.2188  a.u.
     unit-cell volume          =     376.1722 (a.u.)^3
     number of atoms/cell      =            5
     number of atomic types    =            3
     number of electrons       =        44.00
     number of Kohn-Sham states=           22
     kinetic-energy cutoff     =      30.0000  Ry
     charge density cutoff     =     240.0000  Ry
     scf convergence threshold =      1.0E-07
     mixing beta               =       0.7000
     number of iterations used =            8  plain     mixing
     Exchange-correlation= SLA  PZ   NOGX NOGC
                           (   1   1   0   0   0   0   0)

     celldm(1)=   7.218754  celldm(2)=   0.000000  celldm(3)=   0.000000
     celldm(4)=   0.000000  celldm(5)=   0.000000  celldm(6)=   0.000000

     crystal axes: (cart. coord. in units of alat)
               a(1) = (   1.000000   0.000000   0.000000 )  
               a(2) = (   0.000000   1.000000   0.000000 )  
               a(3) = (   0.000000   0.000000   1.000000 )  

     reciprocal axes: (cart. coord. in units 2 pi/alat)
               b(1) = (  1.000000  0.000000  0.000000 )  
               b(2) = (  0.000000  1.000000  0.000000 )  
               b(3) = (  0.000000  0.000000  1.000000 )  


     PseudoPot. # 1 for O  read from file:
     /home/gridsan/epan1/labutil/lab3_samples/pseudopotentials/O.pz-rrkjus.UPF
     MD5 check sum: 24fb942a68ef5d262e498166c462ef4a
     Pseudo is Ultrasoft, Zval =  6.0
     Generated by new atomic code, or converted to UPF format
     Using radial grid of 1269 points,  4 beta functions with: 
                l(1) =   0
                l(2) =   0
                l(3) =   1
                l(4) =   1
     Q(r) pseudized with 0 coefficients 


     PseudoPot. # 2 for Pb read from file:
     /home/gridsan/epan1/labutil/lab3_samples/pseudopotentials/Pb.pz-d-van.UPF
     MD5 check sum: 4e1e5920686a026ae26139ac417581ff
     Pseudo is Ultrasoft, Zval = 14.0
     Generated by new atomic code, or converted to UPF format
     Using radial grid of  899 points,  6 beta functions with: 
                l(1) =   0
                l(2) =   0
                l(3) =   1
                l(4) =   1
                l(5) =   2
                l(6) =   2
     Q(r) pseudized with  8 coefficients,  rinner =    1.000   1.000   1.000
                                                       1.000   1.000

     PseudoPot. # 3 for Ti read from file:
     /home/gridsan/epan1/labutil/lab3_samples/pseudopotentials/Ti.pz-sp-van_ak.UPF
     MD5 check sum: 545d0e6e05332b8871a8093f427cb0ca
     Pseudo is Ultrasoft, Zval = 12.0
     Generated by new atomic code, or converted to UPF format
     Using radial grid of  851 points,  6 beta functions with: 
                l(1) =   0
                l(2) =   0
                l(3) =   1
                l(4) =   1
                l(5) =   2
                l(6) =   2
     Q(r) pseudized with  8 coefficients,  rinner =    1.000   1.000   1.000
                                                       1.000   1.000

     atomic species   valence    mass     pseudopotential
        O              6.00    15.99900     O ( 1.00)
        Pb            14.00   207.20000     Pb( 1.00)
        Ti            12.00    47.86700     Ti( 1.00)

     48 Sym. Ops., with inversion, found



   Cartesian axes

     site n.     atom                  positions (alat units)
         1           Pb  tau(   1) = (   0.0000000   0.0000000   0.0000000  )
         2           Ti  tau(   2) = (   0.5000000   0.5000000   0.5000000  )
         3           O   tau(   3) = (   0.0000000   0.5000000   0.5000000  )
         4           O   tau(   4) = (   0.5000000   0.0000000   0.5000000  )
         5           O   tau(   5) = (   0.5000000   0.5000000   0.0000000  )

     number of k points=     4
                       cart. coord. in units 2pi/alat
        k(    1) = (   0.1250000   0.1250000   0.1250000), wk =   0.2500000
        k(    2) = (   0.1250000   0.1250000   0.3750000), wk =   0.7500000
        k(    3) = (   0.1250000   0.3750000   0.3750000), wk =   0.7500000
        k(    4) = (   0.3750000   0.3750000   0.3750000), wk =   0.2500000

     Dense  grid:    23583 G-vectors     FFT dimensions: (  36,  36,  36)

     Smooth grid:     8385 G-vectors     FFT dimensions: (  25,  25,  25)

     Estimated max dynamical RAM per process >      48.42 MB

     Estimated total dynamical RAM >      96.84 MB

     Initial potential from superposition of free atoms

     starting charge      42.9982, renormalised to      44.0000
     Starting wfcs are   31 randomized atomic wfcs

     total cpu time spent up to now is        1.0 secs

     Self-consistent Calculation

     iteration #  1     ecut=    30.00 Ry     beta= 0.70
     Davidson diagonalization with overlap
     ethr =  1.00E-02,  avg # of iterations =  2.0

     total cpu time spent up to now is        1.2 secs

     total energy              =    -332.62397697 Ry
     estimated scf accuracy    <       1.08918462 Ry

     iteration #  2     ecut=    30.00 Ry     beta= 0.70
     Davidson diagonalization with overlap
     ethr =  2.48E-03,  avg # of iterations =  6.8

     total cpu time spent up to now is        1.4 secs

     total energy              =    -332.49701236 Ry
     estimated scf accuracy    <       3.40066768 Ry

     iteration #  3     ecut=    30.00 Ry     beta= 0.70
     Davidson diagonalization with overlap
     ethr =  2.48E-03,  avg # of iterations =  5.5

     total cpu time spent up to now is        1.7 secs

     total energy              =    -333.15638282 Ry
     estimated scf accuracy    <       0.18349332 Ry

     iteration #  4     ecut=    30.00 Ry     beta= 0.70
     Davidson diagonalization with overlap
     ethr =  4.17E-04,  avg # of iterations =  2.8

     total cpu time spent up to now is        1.9 secs

     total energy              =    -333.15745690 Ry
     estimated scf accuracy    <       0.04202189 Ry

     iteration #  5     ecut=    30.00 Ry     beta= 0.70
     Davidson diagonalization with overlap
     ethr =  9.55E-05,  avg # of iterations =  5.5

     total cpu time spent up to now is        2.1 secs

     total energy              =    -333.17707930 Ry
     estimated scf accuracy    <       0.02034148 Ry

     iteration #  6     ecut=    30.00 Ry     beta= 0.70
     Davidson diagonalization with overlap
     ethr =  4.62E-05,  avg # of iterations =  3.0

     total cpu time spent up to now is        2.3 secs

     total energy              =    -333.17667302 Ry
     estimated scf accuracy    <       0.00553051 Ry

     iteration #  7     ecut=    30.00 Ry     beta= 0.70
     Davidson diagonalization with overlap
     ethr =  1.26E-05,  avg # of iterations =  4.2

     total cpu time spent up to now is        2.6 secs

     total energy              =    -333.17872658 Ry
     estimated scf accuracy    <       0.00053710 Ry

     iteration #  8     ecut=    30.00 Ry     beta= 0.70
     Davidson diagonalization with overlap
     ethr =  1.22E-06,  avg # of iterations =  2.2

     total cpu time spent up to now is        2.8 secs

     total energy              =    -333.17865158 Ry
     estimated scf accuracy    <       0.00036767 Ry

     iteration #  9     ecut=    30.00 Ry     beta= 0.70
     Davidson diagonalization with overlap
     ethr =  8.36E-07,  avg # of iterations =  3.0

     total cpu time spent up to now is        3.0 secs

     total energy              =    -333.17868532 Ry
     estimated scf accuracy    <       0.00003509 Ry

     iteration # 10     ecut=    30.00 Ry     beta= 0.70
     Davidson diagonalization with overlap
     ethr =  7.98E-08,  avg # of iterations =  4.8

     total cpu time spent up to now is        3.2 secs

     total energy              =    -333.17870509 Ry
     estimated scf accuracy    <       0.00001428 Ry

     iteration # 11     ecut=    30.00 Ry     beta= 0.70
     Davidson diagonalization with overlap
     ethr =  3.25E-08,  avg # of iterations =  1.8

     total cpu time spent up to now is        3.4 secs

     total energy              =    -333.17870367 Ry
     estimated scf accuracy    <       0.00000537 Ry

     iteration # 12     ecut=    30.00 Ry     beta= 0.70
     Davidson diagonalization with overlap
     ethr =  1.22E-08,  avg # of iterations =  5.0

     total cpu time spent up to now is        3.7 secs

     total energy              =    -333.17870544 Ry
     estimated scf accuracy    <       0.00000063 Ry

     iteration # 13     ecut=    30.00 Ry     beta= 0.70
     Davidson diagonalization with overlap
     ethr =  1.44E-09,  avg # of iterations =  4.2

     total cpu time spent up to now is        3.9 secs

     End of self-consistent calculation

          k = 0.1250 0.1250 0.1250 (  1051 PWs)   bands (ev):

   -43.7688 -20.4198 -20.4182 -20.4182  -5.8245  -4.6678  -4.6678  -3.1517
    -3.1517  -3.1356  -2.9627  -2.9627   5.3703   7.8882   7.8882   8.8290
     9.7765   9.7765  10.5341  10.6636  10.6636  10.8414

          k = 0.1250 0.1250 0.3750 (  1046 PWs)   bands (ev):

   -43.7671 -20.4895 -20.4159 -20.4153  -5.3781  -4.5395  -4.4530  -3.2246
    -3.1475  -3.1348  -3.0695  -2.9206   4.5589   7.4319   7.8710   8.4787
     9.1251   9.3601  10.0946  10.5968  10.8029  11.7071

          k = 0.1250 0.3750 0.3750 (  1046 PWs)   bands (ev):

   -43.7656 -20.4862 -20.4851 -20.4127  -5.1411  -4.3650  -4.2856  -3.1939
    -3.1444  -3.0889  -2.9863  -2.8309   4.1207   7.3862   7.4342   7.7261
     8.0477   9.3844  10.1217  10.1385  10.8522  11.4274

          k = 0.3750 0.3750 0.3750 (  1034 PWs)   bands (ev):

   -43.7640 -20.4820 -20.4818 -20.4818  -4.6761  -4.4873  -4.4873  -3.0883
    -3.0883  -2.7849  -2.7130  -2.7130   4.7531   6.4015   6.4015   7.3710
     7.6017   7.6017   8.7242  11.3841  11.3841  11.4530

     highest occupied level (ev):    11.7071

!    total energy              =    -333.17870550 Ry
     estimated scf accuracy    <       0.00000004 Ry

     The total energy is the sum of the following terms:
     one-electron contribution =     -70.70963540 Ry
     hartree contribution      =      64.59922329 Ry
     xc contribution           =     -49.81572711 Ry
     ewald contribution        =    -277.25256628 Ry

     convergence has been achieved in  13 iterations

     Forces acting on atoms (cartesian axes, Ry/au):

     atom    1 type  2   force =     0.00000000    0.00000000    0.00000000
     atom    2 type  3   force =     0.00000000    0.00000000    0.00000000
     atom    3 type  1   force =     0.00000000    0.00000000    0.00000000
     atom    4 type  1   force =     0.00000000    0.00000000    0.00000000
     atom    5 type  1   force =     0.00000000    0.00000000    0.00000000
     The non-local contrib.  to forces
     atom    1 type  2   force =     0.00000000    0.00000000    0.00000000
     atom    2 type  3   force =     0.00000000    0.00000000    0.00000000
     atom    3 type  1   force =     0.00000000    0.00000000    0.00000000
     atom    4 type  1   force =     0.00000000    0.00000000    0.00000000
     atom    5 type  1   force =     0.00000000    0.00000000    0.00000000
     The ionic contribution  to forces
     atom    1 type  2   force =    -0.00000000   -0.00000000   -0.00000000
     atom    2 type  3   force =     0.00000000    0.00000000    0.00000000
     atom    3 type  1   force =    -0.00000000    0.00000000    0.00000000
     atom    4 type  1   force =     0.00000000   -0.00000000    0.00000000
     atom    5 type  1   force =     0.00000000    0.00000000   -0.00000000
     The local contribution  to forces
     atom    1 type  2   force =     0.00000000    0.00000000   -0.00000000
     atom    2 type  3   force =     0.00000000    0.00000000    0.00000000
     atom    3 type  1   force =     0.00000000    0.00000000    0.00000000
     atom    4 type  1   force =     0.00000000    0.00000000    0.00000000
     atom    5 type  1   force =     0.00000000    0.00000000   -0.00000000
     The core correction contribution to forces
     atom    1 type  2   force =     0.00000000    0.00000000    0.00000000
     atom    2 type  3   force =     0.00000000    0.00000000    0.00000000
     atom    3 type  1   force =     0.00000000    0.00000000    0.00000000
     atom    4 type  1   force =     0.00000000    0.00000000    0.00000000
     atom    5 type  1   force =     0.00000000    0.00000000    0.00000000
     The Hubbard contrib.    to forces
     atom    1 type  2   force =     0.00000000    0.00000000    0.00000000
     atom    2 type  3   force =     0.00000000    0.00000000    0.00000000
     atom    3 type  1   force =     0.00000000    0.00000000    0.00000000
     atom    4 type  1   force =     0.00000000    0.00000000    0.00000000
     atom    5 type  1   force =     0.00000000    0.00000000    0.00000000
     The SCF correction term to forces
     atom    1 type  2   force =    -0.00000000    0.00000000   -0.00000000
     atom    2 type  3   force =     0.00000000    0.00000000   -0.00000000
     atom    3 type  1   force =     0.00000000    0.00000000    0.00000000
     atom    4 type  1   force =     0.00000000    0.00000000    0.00000000
     atom    5 type  1   force =     0.00000000   -0.00000000   -0.00000000

     Total force =     0.000000     Total SCF correction =     0.000000


     Computing stress (Cartesian axis) and pressure

          total   stress  (Ry/bohr**3)                   (kbar)     P=       81.99
   0.00055735   0.00000000   0.00000000           81.99        0.00        0.00
   0.00000000   0.00055735   0.00000000            0.00       81.99        0.00
   0.00000000   0.00000000   0.00055735            0.00        0.00       81.99


     init_run     :      0.66s CPU      0.65s WALL (       1 calls)
     electrons    :      3.66s CPU      2.89s WALL (       1 calls)
     forces       :      0.14s CPU      0.09s WALL (       1 calls)
     stress       :      0.90s CPU      0.75s WALL (       1 calls)

     Called by init_run:
     wfcinit      :      0.05s CPU      0.05s WALL (       1 calls)
     potinit      :      0.04s CPU      0.04s WALL (       1 calls)
     hinit0       :      0.44s CPU      0.44s WALL (       1 calls)

     Called by electrons:
     c_bands      :      1.63s CPU      1.35s WALL (      13 calls)
     sum_band     :      1.22s CPU      0.92s WALL (      13 calls)
     v_of_rho     :      0.03s CPU      0.03s WALL (      14 calls)
     newd         :      0.80s CPU      0.60s WALL (      14 calls)
     mix_rho      :      0.03s CPU      0.02s WALL (      13 calls)

     Called by c_bands:
     init_us_2    :      0.05s CPU      0.05s WALL (     116 calls)
     init_us_2:cp :      0.05s CPU      0.05s WALL (     116 calls)
     cegterg      :      1.52s CPU      1.23s WALL (      52 calls)

     Called by *egterg:
     cdiaghg      :      0.28s CPU      0.21s WALL (     255 calls)
     h_psi        :      1.04s CPU      0.87s WALL (     259 calls)
     s_psi        :      0.05s CPU      0.04s WALL (     259 calls)
     g_psi        :      0.01s CPU      0.01s WALL (     203 calls)

     Called by h_psi:
     h_psi:calbec :      0.07s CPU      0.05s WALL (     259 calls)
     vloc_psi     :      0.91s CPU      0.77s WALL (     259 calls)
     add_vuspsi   :      0.05s CPU      0.04s WALL (     259 calls)

     General routines
     calbec       :      0.09s CPU      0.07s WALL (     331 calls)
     fft          :      0.20s CPU      0.19s WALL (      87 calls)
     ffts         :      0.04s CPU      0.04s WALL (      27 calls)
     fftw         :      0.89s CPU      0.76s WALL (    7620 calls)
     interpolate  :      0.04s CPU      0.04s WALL (      14 calls)

     Parallel routines

     PWSCF        :      5.67s CPU      4.71s WALL


   This run was terminated on:  17:42:47   2Nov2023            

=------------------------------------------------------------------------------=
   JOB DONE.
=------------------------------------------------------------------------------=
