LAMMPS (29 Oct 2020)
Reading data file ...
  orthogonal box = (0.0000000 0.0000000 0.0000000) to (23.357200 23.357200 34.451500)
  1 by 1 by 1 MPI processor grid
  reading atoms ...
  512 atoms
  read_data CPU = 0.001 seconds
WARNING: No fixes defined, atoms won't move (../verlet.cpp:54)
Neighbor list info ...
  update every 1 steps, delay 10 steps, check yes
  max neighbors/atom: 2000, page size: 100000
  master list distance cutoff = 6.5
  ghost atom cutoff = 6.5
  binsize = 3.25, bins = 8 8 11
  1 neighbor lists, perpetual/occasional/extra = 1 0 0
  (1) pair lj/cut, perpetual
      attributes: half, newton on
      pair build: half/bin/atomonly/newton
      stencil: half/bin/3d/newton
      bin: standard
Setting up Verlet run ...
  Unit style    : metal
  Current step  : 0
  Time step     : 0.001
Per MPI rank memory allocation (min/avg/max) = 3.095 | 3.095 | 3.095 Mbytes
Step PotEng Lx Ly Lz Press Pxx Pyy Pzz 
       0   -1088.2552      23.3572      23.3572      34.4515    226.55583   -1058.6005   -1058.6005    2796.8684 
Loop time of 9.53674e-07 on 1 procs for 0 steps with 512 atoms

0.0% CPU use with 1 MPI tasks x no OpenMP threads

MPI task timing breakdown:
Section |  min time  |  avg time  |  max time  |%varavg| %total
---------------------------------------------------------------
Pair    | 0          | 0          | 0          |   0.0 |  0.00
Neigh   | 0          | 0          | 0          |   0.0 |  0.00
Comm    | 0          | 0          | 0          |   0.0 |  0.00
Output  | 0          | 0          | 0          |   0.0 |  0.00
Modify  | 0          | 0          | 0          |   0.0 |  0.00
Other   |            | 9.537e-07  |            |       |100.00

Nlocal:        512.000 ave         512 max         512 min
Histogram: 1 0 0 0 0 0 0 0 0 0
Nghost:        740.000 ave         740 max         740 min
Histogram: 1 0 0 0 0 0 0 0 0 0
Neighs:        11904.0 ave       11904 max       11904 min
Histogram: 1 0 0 0 0 0 0 0 0 0

Total # of neighbors = 11904
Ave neighs/atom = 23.250000
Neighbor list builds = 0
Dangerous builds = 0
Total energy (eV) = -1088.25515252022
Number of atoms = 512
Lattice constant (Angstoms) = 23.3572
Total wall time: 0:00:00
