
     Program PWSCF v.7.2 starts on 14Oct2023 at 15:41:31 

     This program is part of the open-source Quantum ESPRESSO suite
     for quantum simulation of materials; please cite
         "P. Giannozzi et al., J. Phys.:Condens. Matter 21 395502 (2009);
         "P. Giannozzi et al., J. Phys.:Condens. Matter 29 465901 (2017);
         "P. Giannozzi et al., J. Chem. Phys. 152 154105 (2020);
          URL http://www.quantum-espresso.org", 
     in publications or presentations arising from this work. More details at
     http://www.quantum-espresso.org/quote

     Parallel version (MPI), running on     1 processors

     MPI processes distributed on     1 nodes
     43111 MiB available memory on the printing compute node when the environment starts

     Waiting for input...
     Reading input from standard input
Warning: card &CELL ignored
Warning: card / ignored

     Current dimensions of program PWSCF are:
     Max number of different atomic species (ntypx) = 10
     Max number of k-points (npk) =  40000
     Max angular momentum in pseudopotentials (lmaxx) =  4
     file Ge.pz-dn-rrkjus_psl.0.2.2.UPF: wavefunction(s)  3D renormalized
     Message from routine find_sym:
     Not a group! Trying with lower acceptance parameter...
     Message from routine find_sym:
     Still not a group! symmetry disabled

     Subspace diagonalization in iterative solution of the eigenvalue problem:
     a serial algorithm will be used


     G-vector sticks info
     --------------------
     sticks:   dense  smooth     PW     G-vecs:    dense   smooth      PW
     Sum         433     433    139                 5961     5961    1067

     Using Slab Decomposition



     bravais-lattice index     =            0
     lattice parameter (alat)  =       7.2125  a.u.
     unit-cell volume          =     265.3017 (a.u.)^3
     number of atoms/cell      =            2
     number of atomic types    =            1
     number of electrons       =        28.00
     number of Kohn-Sham states=           14
     kinetic-energy cutoff     =      30.0000  Ry
     charge density cutoff     =     120.0000  Ry
     scf convergence threshold =      1.0E-07
     mixing beta               =       0.5000
     number of iterations used =            8  plain     mixing
     Exchange-correlation= LDA
                           (   1   1   0   0   0   0   0)

     celldm(1)=   7.212486  celldm(2)=   0.000000  celldm(3)=   0.000000
     celldm(4)=   0.000000  celldm(5)=   0.000000  celldm(6)=   0.000000

     crystal axes: (cart. coord. in units of alat)
               a(1) = (   0.000000   0.707107   0.707107 )  
               a(2) = (   0.707107   0.000000   0.707107 )  
               a(3) = (   0.707107   0.707107   0.000000 )  

     reciprocal axes: (cart. coord. in units 2 pi/alat)
               b(1) = ( -0.707107  0.707107  0.707107 )  
               b(2) = (  0.707107 -0.707107  0.707107 )  
               b(3) = (  0.707107  0.707107 -0.707107 )  


     PseudoPot. # 1 for Ge read from file:
     ../Ge.pz-dn-rrkjus_psl.0.2.2.UPF
     MD5 check sum: 9948ad5293734715c8cf6021b6c26e6d
     Pseudo is Ultrasoft + core correction, Zval = 14.0
     Generated using "atomic" code by A. Dal Corso  v.5.0.2 svn rev. 9415
     Using radial grid of 1207 points,  6 beta functions with: 
                l(1) =   0
                l(2) =   0
                l(3) =   1
                l(4) =   1
                l(5) =   2
                l(6) =   2
     Q(r) pseudized with 0 coefficients 


     atomic species   valence    mass     pseudopotential
        Ge            14.00    72.63000     Ge( 1.00)

     No symmetry found



   Cartesian axes

     site n.     atom                  positions (alat units)
         1           Ge  tau(   1) = (   0.0000000   0.0000000   0.0000000  )
         2           Ge  tau(   2) = (   0.3535530   0.3535530   0.3535530  )

     number of k points=    36
                       cart. coord. in units 2pi/alat
        k(    1) = (   0.0000000   0.0000000   0.0000000), wk =   0.0312500
        k(    2) = (   0.1767767   0.1767767  -0.1767767), wk =   0.0625000
        k(    3) = (  -0.3535534  -0.3535534   0.3535534), wk =   0.0312500
        k(    4) = (   0.3535534   0.0000000   0.0000000), wk =   0.0625000
        k(    5) = (  -0.1767767  -0.5303301   0.5303301), wk =   0.0625000
        k(    6) = (   0.0000000  -0.3535534   0.3535534), wk =   0.0625000
        k(    7) = (  -0.7071068   0.0000000   0.0000000), wk =   0.0312500
        k(    8) = (  -0.7071068   0.3535534   0.0000000), wk =   0.0625000
        k(    9) = (  -0.1767767  -0.1767767  -0.1767767), wk =   0.0625000
        k(   10) = (  -0.1767767   0.1767767   0.1767767), wk =   0.0625000
        k(   11) = (   0.1767767  -0.1767767   0.1767767), wk =   0.0625000
        k(   12) = (   0.3535534   0.3535534   0.3535534), wk =   0.0312500
        k(   13) = (   0.3535534  -0.3535534  -0.3535534), wk =   0.0312500
        k(   14) = (  -0.3535534   0.3535534  -0.3535534), wk =   0.0312500
        k(   15) = (   0.0000000  -0.3535534   0.0000000), wk =   0.0625000
        k(   16) = (   0.0000000   0.0000000  -0.3535534), wk =   0.0625000
        k(   17) = (   0.1767767   0.5303301   0.5303301), wk =   0.0625000
        k(   18) = (   0.1767767  -0.5303301  -0.5303301), wk =   0.0625000
        k(   19) = (  -0.1767767   0.5303301  -0.5303301), wk =   0.0625000
        k(   20) = (   0.5303301   0.1767767  -0.5303301), wk =   0.0625000
        k(   21) = (  -0.5303301   0.5303301   0.1767767), wk =   0.0625000
        k(   22) = (  -0.5303301   0.5303301  -0.1767767), wk =   0.0625000
        k(   23) = (   0.5303301   0.5303301   0.1767767), wk =   0.0625000
        k(   24) = (  -0.5303301  -0.5303301   0.1767767), wk =   0.0625000
        k(   25) = (   0.5303301  -0.1767767  -0.5303301), wk =   0.0625000
        k(   26) = (   0.5303301   0.1767767   0.5303301), wk =   0.0625000
        k(   27) = (  -0.5303301   0.1767767  -0.5303301), wk =   0.0625000
        k(   28) = (   0.0000000   0.3535534   0.3535534), wk =   0.0625000
        k(   29) = (   0.3535534   0.0000000  -0.3535534), wk =   0.0625000
        k(   30) = (  -0.3535534   0.3535534   0.0000000), wk =   0.0625000
        k(   31) = (   0.3535534   0.3535534   0.0000000), wk =   0.0625000
        k(   32) = (   0.3535534   0.0000000   0.3535534), wk =   0.0625000
        k(   33) = (   0.0000000   0.7071068   0.0000000), wk =   0.0312500
        k(   34) = (   0.0000000   0.0000000   0.7071068), wk =   0.0312500
        k(   35) = (  -0.3535534   0.7071068   0.0000000), wk =   0.0625000
        k(   36) = (   0.7071068   0.0000000  -0.3535534), wk =   0.0625000

     Dense  grid:     5961 G-vectors     FFT dimensions: (  32,  32,  32)

     Estimated max dynamical RAM per process >      30.11 MB

     Check: negative core charge=   -0.000246

     Initial potential from superposition of free atoms

     starting charge      27.9988, renormalised to      28.0000
     Starting wfcs are   18 randomized atomic wfcs

     total cpu time spent up to now is        1.4 secs

     Self-consistent Calculation

     iteration #  1     ecut=    30.00 Ry     beta= 0.50
     Davidson diagonalization with overlap
     ethr =  1.00E-02,  avg # of iterations =  2.0

     Threshold (ethr) on eigenvalues was too large:
     Diagonalizing with lowered threshold

     Davidson diagonalization with overlap
     ethr =  1.66E-04,  avg # of iterations =  2.0

     total cpu time spent up to now is        4.2 secs

     total energy              =    -421.73008339 Ry
     estimated scf accuracy    <       0.04994144 Ry

     iteration #  2     ecut=    30.00 Ry     beta= 0.50
     Davidson diagonalization with overlap
     ethr =  1.78E-04,  avg # of iterations =  1.1

     total cpu time spent up to now is        5.5 secs

     total energy              =    -421.72844040 Ry
     estimated scf accuracy    <       0.00848599 Ry

     iteration #  3     ecut=    30.00 Ry     beta= 0.50
     Davidson diagonalization with overlap
     ethr =  3.03E-05,  avg # of iterations =  2.0

     total cpu time spent up to now is        7.0 secs

     total energy              =    -421.72921647 Ry
     estimated scf accuracy    <       0.00009468 Ry

     iteration #  4     ecut=    30.00 Ry     beta= 0.50
     Davidson diagonalization with overlap
     ethr =  3.38E-07,  avg # of iterations =  3.2

     total cpu time spent up to now is        8.9 secs

     total energy              =    -421.72924473 Ry
     estimated scf accuracy    <       0.00001652 Ry

     iteration #  5     ecut=    30.00 Ry     beta= 0.50
     Davidson diagonalization with overlap
     ethr =  5.90E-08,  avg # of iterations =  2.4

     total cpu time spent up to now is       10.4 secs

     total energy              =    -421.72924680 Ry
     estimated scf accuracy    <       0.00000103 Ry

     iteration #  6     ecut=    30.00 Ry     beta= 0.50
     Davidson diagonalization with overlap
     ethr =  3.69E-09,  avg # of iterations =  2.3

     total cpu time spent up to now is       12.1 secs

     total energy              =    -421.72924722 Ry
     estimated scf accuracy    <       0.00000010 Ry

     iteration #  7     ecut=    30.00 Ry     beta= 0.50
     Davidson diagonalization with overlap
     ethr =  3.73E-10,  avg # of iterations =  2.6

     total cpu time spent up to now is       13.9 secs

     End of self-consistent calculation

          k = 0.0000 0.0000 0.0000 (   725 PWs)   bands (ev):

   -15.0064 -15.0064 -15.0064 -14.9543 -14.9543 -14.6626 -14.6626 -14.6626
   -14.6228 -14.6228  -3.7626  10.2249  10.2249  10.2249

          k = 0.1768 0.1768-0.1768 (   745 PWs)   bands (ev):

   -15.0391 -15.0391 -14.9978 -14.9178 -14.9178 -14.6951 -14.6951 -14.6809
   -14.6075 -14.6075  -2.9117   5.1898   9.1782   9.1782

          k =-0.3536-0.3536 0.3536 (   754 PWs)   bands (ev):

   -15.0430 -15.0430 -14.9892 -14.9104 -14.9104 -14.7044 -14.7044 -14.6933
   -14.6115 -14.6115  -1.2998   1.8193   8.5843   8.5843

          k = 0.3536 0.0000 0.0000 (   729 PWs)   bands (ev):

   -15.0321 -15.0321 -15.0167 -14.8987 -14.8604 -14.7808 -14.6757 -14.6192
   -14.6192 -14.6152  -2.6099   5.4540   7.8032   7.8032

          k =-0.1768-0.5303 0.5303 (   735 PWs)   bands (ev):

   -15.0753 -15.0526 -14.9590 -14.8577 -14.8314 -14.8055 -14.7343 -14.6910
   -14.5940 -14.5656  -0.8707   2.3172   5.8516   7.3923

          k = 0.0000-0.3536 0.3536 (   742 PWs)   bands (ev):

   -15.0702 -15.0583 -14.9529 -14.8967 -14.8549 -14.7539 -14.7344 -14.7062
   -14.5837 -14.5748  -1.5878   3.3081   5.6430   8.4529

          k =-0.7071 0.0000 0.0000 (   740 PWs)   bands (ev):

   -15.0614 -15.0614 -14.9445 -14.9445 -14.7932 -14.7931 -14.7099 -14.7099
   -14.5854 -14.5854   0.6869   0.6869   6.6092   6.6092

          k =-0.7071 0.3536 0.0000 (   724 PWs)   bands (ev):

   -15.0773 -15.0773 -14.8749 -14.8749 -14.8031 -14.8030 -14.7569 -14.7569
   -14.5583 -14.5583   0.8362   0.8362   5.5630   5.5631

          k =-0.1768-0.1768-0.1768 (   745 PWs)   bands (ev):

   -15.0391 -15.0391 -14.9978 -14.9178 -14.9178 -14.6951 -14.6951 -14.6809
   -14.6075 -14.6075  -2.9117   5.1898   9.1782   9.1782

          k =-0.1768 0.1768 0.1768 (   745 PWs)   bands (ev):

   -15.0391 -15.0391 -14.9978 -14.9178 -14.9178 -14.6951 -14.6951 -14.6809
   -14.6075 -14.6075  -2.9117   5.1898   9.1782   9.1782

          k = 0.1768-0.1768 0.1768 (   745 PWs)   bands (ev):

   -15.0391 -15.0391 -14.9978 -14.9178 -14.9178 -14.6951 -14.6951 -14.6809
   -14.6075 -14.6075  -2.9117   5.1898   9.1782   9.1782

          k = 0.3536 0.3536 0.3536 (   754 PWs)   bands (ev):

   -15.0430 -15.0430 -14.9892 -14.9104 -14.9104 -14.7044 -14.7044 -14.6933
   -14.6115 -14.6115  -1.2998   1.8193   8.5843   8.5843

          k = 0.3536-0.3536-0.3536 (   754 PWs)   bands (ev):

   -15.0430 -15.0430 -14.9892 -14.9104 -14.9104 -14.7044 -14.7044 -14.6933
   -14.6115 -14.6115  -1.2998   1.8193   8.5843   8.5843

          k =-0.3536 0.3536-0.3536 (   754 PWs)   bands (ev):

   -15.0430 -15.0430 -14.9892 -14.9104 -14.9104 -14.7044 -14.7044 -14.6933
   -14.6115 -14.6115  -1.2998   1.8193   8.5843   8.5843

          k = 0.0000-0.3536 0.0000 (   729 PWs)   bands (ev):

   -15.0321 -15.0321 -15.0167 -14.8987 -14.8604 -14.7808 -14.6757 -14.6192
   -14.6192 -14.6152  -2.6099   5.4540   7.8032   7.8032

          k = 0.0000 0.0000-0.3536 (   729 PWs)   bands (ev):

   -15.0321 -15.0321 -15.0167 -14.8987 -14.8604 -14.7808 -14.6757 -14.6192
   -14.6192 -14.6152  -2.6099   5.4540   7.8031   7.8032

          k = 0.1768 0.5303 0.5303 (   735 PWs)   bands (ev):

   -15.0753 -15.0526 -14.9590 -14.8577 -14.8314 -14.8055 -14.7343 -14.6910
   -14.5940 -14.5656  -0.8707   2.3172   5.8516   7.3923

          k = 0.1768-0.5303-0.5303 (   735 PWs)   bands (ev):

   -15.0753 -15.0526 -14.9590 -14.8577 -14.8314 -14.8055 -14.7343 -14.6910
   -14.5940 -14.5656  -0.8707   2.3172   5.8516   7.3923

          k =-0.1768 0.5303-0.5303 (   735 PWs)   bands (ev):

   -15.0753 -15.0526 -14.9590 -14.8577 -14.8314 -14.8055 -14.7343 -14.6910
   -14.5940 -14.5656  -0.8707   2.3172   5.8516   7.3923

          k = 0.5303 0.1768-0.5303 (   735 PWs)   bands (ev):

   -15.0753 -15.0526 -14.9590 -14.8577 -14.8314 -14.8055 -14.7343 -14.6910
   -14.5940 -14.5656  -0.8707   2.3172   5.8516   7.3923

          k =-0.5303 0.5303 0.1768 (   735 PWs)   bands (ev):

   -15.0753 -15.0526 -14.9590 -14.8577 -14.8314 -14.8055 -14.7343 -14.6910
   -14.5940 -14.5656  -0.8707   2.3172   5.8516   7.3923

          k =-0.5303 0.5303-0.1768 (   735 PWs)   bands (ev):

   -15.0753 -15.0526 -14.9590 -14.8577 -14.8314 -14.8055 -14.7343 -14.6910
   -14.5940 -14.5656  -0.8707   2.3172   5.8516   7.3923

          k = 0.5303 0.5303 0.1768 (   735 PWs)   bands (ev):

   -15.0753 -15.0526 -14.9590 -14.8577 -14.8314 -14.8055 -14.7343 -14.6910
   -14.5940 -14.5656  -0.8707   2.3172   5.8516   7.3923

          k =-0.5303-0.5303 0.1768 (   735 PWs)   bands (ev):

   -15.0753 -15.0526 -14.9590 -14.8577 -14.8314 -14.8055 -14.7343 -14.6910
   -14.5940 -14.5656  -0.8707   2.3172   5.8516   7.3923

          k = 0.5303-0.1768-0.5303 (   735 PWs)   bands (ev):

   -15.0753 -15.0526 -14.9590 -14.8577 -14.8314 -14.8055 -14.7343 -14.6910
   -14.5940 -14.5656  -0.8707   2.3172   5.8516   7.3923

          k = 0.5303 0.1768 0.5303 (   735 PWs)   bands (ev):

   -15.0753 -15.0526 -14.9590 -14.8577 -14.8314 -14.8055 -14.7343 -14.6910
   -14.5940 -14.5656  -0.8707   2.3172   5.8516   7.3923

          k =-0.5303 0.1768-0.5303 (   735 PWs)   bands (ev):

   -15.0753 -15.0526 -14.9590 -14.8577 -14.8314 -14.8055 -14.7343 -14.6910
   -14.5940 -14.5656  -0.8707   2.3172   5.8516   7.3923

          k = 0.0000 0.3536 0.3536 (   742 PWs)   bands (ev):

   -15.0702 -15.0583 -14.9529 -14.8967 -14.8549 -14.7539 -14.7344 -14.7062
   -14.5837 -14.5748  -1.5878   3.3081   5.6430   8.4529

          k = 0.3536 0.0000-0.3536 (   742 PWs)   bands (ev):

   -15.0702 -15.0583 -14.9529 -14.8967 -14.8549 -14.7539 -14.7344 -14.7062
   -14.5837 -14.5748  -1.5878   3.3081   5.6430   8.4529

          k =-0.3536 0.3536 0.0000 (   742 PWs)   bands (ev):

   -15.0702 -15.0583 -14.9529 -14.8967 -14.8549 -14.7539 -14.7344 -14.7062
   -14.5837 -14.5748  -1.5878   3.3081   5.6430   8.4529

          k = 0.3536 0.3536 0.0000 (   742 PWs)   bands (ev):

   -15.0702 -15.0583 -14.9529 -14.8967 -14.8549 -14.7539 -14.7344 -14.7062
   -14.5837 -14.5748  -1.5878   3.3081   5.6430   8.4529

          k = 0.3536 0.0000 0.3536 (   742 PWs)   bands (ev):

   -15.0702 -15.0583 -14.9529 -14.8967 -14.8549 -14.7539 -14.7344 -14.7062
   -14.5837 -14.5748  -1.5878   3.3081   5.6430   8.4529

          k = 0.0000 0.7071 0.0000 (   740 PWs)   bands (ev):

   -15.0614 -15.0614 -14.9445 -14.9445 -14.7932 -14.7931 -14.7099 -14.7099
   -14.5854 -14.5854   0.6869   0.6869   6.6092   6.6092

          k = 0.0000 0.0000 0.7071 (   740 PWs)   bands (ev):

   -15.0614 -15.0614 -14.9445 -14.9445 -14.7932 -14.7931 -14.7099 -14.7099
   -14.5854 -14.5854   0.6869   0.6869   6.6092   6.6092

          k =-0.3536 0.7071 0.0000 (   724 PWs)   bands (ev):

   -15.0773 -15.0773 -14.8749 -14.8749 -14.8031 -14.8030 -14.7569 -14.7569
   -14.5583 -14.5583   0.8361   0.8362   5.5630   5.5630

          k = 0.7071 0.0000-0.3536 (   724 PWs)   bands (ev):

   -15.0773 -15.0773 -14.8749 -14.8749 -14.8031 -14.8030 -14.7569 -14.7569
   -14.5583 -14.5583   0.8361   0.8362   5.5630   5.5630

     highest occupied level (ev):    10.2249

!    total energy              =    -421.72924720 Ry
     estimated scf accuracy    <       0.00000005 Ry

     The total energy is the sum of the following terms:
     one-electron contribution =    -259.47093793 Ry
     hartree contribution      =     156.61273721 Ry
     xc contribution           =    -111.84892147 Ry
     ewald contribution        =    -207.02212501 Ry

     convergence has been achieved in   7 iterations

     Forces acting on atoms (cartesian axes, Ry/au):

     atom    1 type  1   force =     0.00000661   -0.00000831    0.00000462
     atom    2 type  1   force =    -0.00000661    0.00000831   -0.00000462
     The non-local contrib.  to forces
     atom    1 type  1   force =     0.00001339    0.00000989    0.00000462
     atom    2 type  1   force =     0.00000493    0.00001188    0.00000077
     The ionic contribution  to forces
     atom    1 type  1   force =    -0.00001579   -0.00001579   -0.00001579
     atom    2 type  1   force =     0.00001579    0.00001579    0.00001579
     The local contribution  to forces
     atom    1 type  1   force =    -0.00000665   -0.00000175    0.00000820
     atom    2 type  1   force =    -0.00002449   -0.00003763   -0.00001466
     The core correction contribution to forces
     atom    1 type  1   force =    -0.00000053   -0.00000035   -0.00000011
     atom    2 type  1   force =    -0.00000033   -0.00000063   -0.00000010
     The Hubbard contrib.    to forces
     atom    1 type  1   force =     0.00000000    0.00000000    0.00000000
     atom    2 type  1   force =     0.00000000    0.00000000    0.00000000
     The SCF correction term to forces
     atom    1 type  1   force =     0.00004019    0.00003593    0.00000880
     atom    2 type  1   force =     0.00002150    0.00005515   -0.00000531

     Total force =     0.000016     Total SCF correction =     0.000081
     SCF correction compared to forces is large: reduce conv_thr to get better values


     Computing stress (Cartesian axis) and pressure

          total   stress  (Ry/bohr**3)                   (kbar)     P=      -67.00
  -0.00045545   0.00000001   0.00000001          -67.00        0.00        0.00
   0.00000001  -0.00045545   0.00000001            0.00      -67.00        0.00
   0.00000001   0.00000001  -0.00045545            0.00        0.00      -67.00


     init_run     :      1.51s CPU      1.25s WALL (       1 calls)
     electrons    :     18.37s CPU     12.48s WALL (       1 calls)
     forces       :      0.22s CPU      0.14s WALL (       1 calls)
     stress       :      2.72s CPU      1.82s WALL (       1 calls)

     Called by init_run:
     wfcinit      :      1.12s CPU      0.84s WALL (       1 calls)
     potinit      :      0.00s CPU      0.01s WALL (       1 calls)
     hinit0       :      0.38s CPU      0.38s WALL (       1 calls)

     Called by electrons:
     c_bands      :     15.20s CPU     10.33s WALL (       8 calls)
     sum_band     :      2.89s CPU      1.96s WALL (       8 calls)
     v_of_rho     :      0.04s CPU      0.03s WALL (       8 calls)
     newd         :      0.23s CPU      0.16s WALL (       8 calls)
     mix_rho      :      0.01s CPU      0.01s WALL (       8 calls)

     Called by c_bands:
     init_us_2    :      0.64s CPU      0.44s WALL (     684 calls)
     init_us_2:cp :      0.64s CPU      0.44s WALL (     684 calls)
     cegterg      :     13.74s CPU      9.25s WALL (     288 calls)

     Called by *egterg:
     cdiaghg      :      0.84s CPU      0.55s WALL (     884 calls)
     h_psi        :     12.54s CPU      8.57s WALL (     956 calls)
     s_psi        :      0.24s CPU      0.16s WALL (     956 calls)
     g_psi        :      0.10s CPU      0.06s WALL (     632 calls)

     Called by h_psi:
     h_psi:calbec :      0.26s CPU      0.17s WALL (     956 calls)
     vloc_psi     :     11.97s CPU      8.19s WALL (     956 calls)
     add_vuspsi   :      0.23s CPU      0.16s WALL (     956 calls)

     General routines
     calbec       :      0.38s CPU      0.26s WALL (    1424 calls)
     fft          :      0.18s CPU      0.18s WALL (      41 calls)
     ffts         :      0.01s CPU      0.01s WALL (       8 calls)
     fftw         :     11.25s CPU      7.70s WALL (   25424 calls)

     Parallel routines

     PWSCF        :     22.95s CPU     15.84s WALL


   This run was terminated on:  15:41:47  14Oct2023            

=------------------------------------------------------------------------------=
   JOB DONE.
=------------------------------------------------------------------------------=
