Header of the LAMMPS data file 

4 atoms 
1 atom types

0.0 3.8526315789473684  xlo xhi
0.0 3.8526315789473684  ylo yhi
0.0 3.8526315789473684  zlo zhi

Masses 

1  107.8682

Atoms # atomic 

1 1 0.00000 0.00000 0.00000 
2 1 0.00000 1.92632 1.92632 
3 1 1.92632 0.00000 1.92632 
4 1 1.92632 1.92632 0.00000 
