Header of the LAMMPS data file 

4000 atoms 
1 atom types

0.0 41.0  xlo xhi
0.0 41.0  ylo yhi
0.0 41.0  zlo zhi

Masses 

1  107.8682

Atoms # atomic 

1 1 0.00000 0.00000 0.00000 
2 1 0.00000 2.05000 2.05000 
3 1 2.05000 0.00000 2.05000 
4 1 2.05000 2.05000 0.00000 
5 1 0.00000 0.00000 4.10000 
6 1 0.00000 2.05000 6.15000 
7 1 2.05000 0.00000 6.15000 
8 1 2.05000 2.05000 4.10000 
9 1 0.00000 0.00000 8.20000 
10 1 0.00000 2.05000 10.25000 
11 1 2.05000 0.00000 10.25000 
12 1 2.05000 2.05000 8.20000 
13 1 0.00000 0.00000 12.30000 
14 1 0.00000 2.05000 14.35000 
15 1 2.05000 0.00000 14.35000 
16 1 2.05000 2.05000 12.30000 
17 1 0.00000 0.00000 16.40000 
18 1 0.00000 2.05000 18.45000 
19 1 2.05000 0.00000 18.45000 
20 1 2.05000 2.05000 16.40000 
21 1 0.00000 0.00000 20.50000 
22 1 0.00000 2.05000 22.55000 
23 1 2.05000 0.00000 22.55000 
24 1 2.05000 2.05000 20.50000 
25 1 0.00000 0.00000 24.60000 
26 1 0.00000 2.05000 26.65000 
27 1 2.05000 0.00000 26.65000 
28 1 2.05000 2.05000 24.60000 
29 1 0.00000 0.00000 28.70000 
30 1 0.00000 2.05000 30.75000 
31 1 2.05000 0.00000 30.75000 
32 1 2.05000 2.05000 28.70000 
33 1 0.00000 0.00000 32.80000 
34 1 0.00000 2.05000 34.85000 
35 1 2.05000 0.00000 34.85000 
36 1 2.05000 2.05000 32.80000 
37 1 0.00000 0.00000 36.90000 
38 1 0.00000 2.05000 38.95000 
39 1 2.05000 0.00000 38.95000 
40 1 2.05000 2.05000 36.90000 
41 1 0.00000 4.10000 0.00000 
42 1 0.00000 6.15000 2.05000 
43 1 2.05000 4.10000 2.05000 
44 1 2.05000 6.15000 0.00000 
45 1 0.00000 4.10000 4.10000 
46 1 0.00000 6.15000 6.15000 
47 1 2.05000 4.10000 6.15000 
48 1 2.05000 6.15000 4.10000 
49 1 0.00000 4.10000 8.20000 
50 1 0.00000 6.15000 10.25000 
51 1 2.05000 4.10000 10.25000 
52 1 2.05000 6.15000 8.20000 
53 1 0.00000 4.10000 12.30000 
54 1 0.00000 6.15000 14.35000 
55 1 2.05000 4.10000 14.35000 
56 1 2.05000 6.15000 12.30000 
57 1 0.00000 4.10000 16.40000 
58 1 0.00000 6.15000 18.45000 
59 1 2.05000 4.10000 18.45000 
60 1 2.05000 6.15000 16.40000 
61 1 0.00000 4.10000 20.50000 
62 1 0.00000 6.15000 22.55000 
63 1 2.05000 4.10000 22.55000 
64 1 2.05000 6.15000 20.50000 
65 1 0.00000 4.10000 24.60000 
66 1 0.00000 6.15000 26.65000 
67 1 2.05000 4.10000 26.65000 
68 1 2.05000 6.15000 24.60000 
69 1 0.00000 4.10000 28.70000 
70 1 0.00000 6.15000 30.75000 
71 1 2.05000 4.10000 30.75000 
72 1 2.05000 6.15000 28.70000 
73 1 0.00000 4.10000 32.80000 
74 1 0.00000 6.15000 34.85000 
75 1 2.05000 4.10000 34.85000 
76 1 2.05000 6.15000 32.80000 
77 1 0.00000 4.10000 36.90000 
78 1 0.00000 6.15000 38.95000 
79 1 2.05000 4.10000 38.95000 
80 1 2.05000 6.15000 36.90000 
81 1 0.00000 8.20000 0.00000 
82 1 0.00000 10.25000 2.05000 
83 1 2.05000 8.20000 2.05000 
84 1 2.05000 10.25000 0.00000 
85 1 0.00000 8.20000 4.10000 
86 1 0.00000 10.25000 6.15000 
87 1 2.05000 8.20000 6.15000 
88 1 2.05000 10.25000 4.10000 
89 1 0.00000 8.20000 8.20000 
90 1 0.00000 10.25000 10.25000 
91 1 2.05000 8.20000 10.25000 
92 1 2.05000 10.25000 8.20000 
93 1 0.00000 8.20000 12.30000 
94 1 0.00000 10.25000 14.35000 
95 1 2.05000 8.20000 14.35000 
96 1 2.05000 10.25000 12.30000 
97 1 0.00000 8.20000 16.40000 
98 1 0.00000 10.25000 18.45000 
99 1 2.05000 8.20000 18.45000 
100 1 2.05000 10.25000 16.40000 
101 1 0.00000 8.20000 20.50000 
102 1 0.00000 10.25000 22.55000 
103 1 2.05000 8.20000 22.55000 
104 1 2.05000 10.25000 20.50000 
105 1 0.00000 8.20000 24.60000 
106 1 0.00000 10.25000 26.65000 
107 1 2.05000 8.20000 26.65000 
108 1 2.05000 10.25000 24.60000 
109 1 0.00000 8.20000 28.70000 
110 1 0.00000 10.25000 30.75000 
111 1 2.05000 8.20000 30.75000 
112 1 2.05000 10.25000 28.70000 
113 1 0.00000 8.20000 32.80000 
114 1 0.00000 10.25000 34.85000 
115 1 2.05000 8.20000 34.85000 
116 1 2.05000 10.25000 32.80000 
117 1 0.00000 8.20000 36.90000 
118 1 0.00000 10.25000 38.95000 
119 1 2.05000 8.20000 38.95000 
120 1 2.05000 10.25000 36.90000 
121 1 0.00000 12.30000 0.00000 
122 1 0.00000 14.35000 2.05000 
123 1 2.05000 12.30000 2.05000 
124 1 2.05000 14.35000 0.00000 
125 1 0.00000 12.30000 4.10000 
126 1 0.00000 14.35000 6.15000 
127 1 2.05000 12.30000 6.15000 
128 1 2.05000 14.35000 4.10000 
129 1 0.00000 12.30000 8.20000 
130 1 0.00000 14.35000 10.25000 
131 1 2.05000 12.30000 10.25000 
132 1 2.05000 14.35000 8.20000 
133 1 0.00000 12.30000 12.30000 
134 1 0.00000 14.35000 14.35000 
135 1 2.05000 12.30000 14.35000 
136 1 2.05000 14.35000 12.30000 
137 1 0.00000 12.30000 16.40000 
138 1 0.00000 14.35000 18.45000 
139 1 2.05000 12.30000 18.45000 
140 1 2.05000 14.35000 16.40000 
141 1 0.00000 12.30000 20.50000 
142 1 0.00000 14.35000 22.55000 
143 1 2.05000 12.30000 22.55000 
144 1 2.05000 14.35000 20.50000 
145 1 0.00000 12.30000 24.60000 
146 1 0.00000 14.35000 26.65000 
147 1 2.05000 12.30000 26.65000 
148 1 2.05000 14.35000 24.60000 
149 1 0.00000 12.30000 28.70000 
150 1 0.00000 14.35000 30.75000 
151 1 2.05000 12.30000 30.75000 
152 1 2.05000 14.35000 28.70000 
153 1 0.00000 12.30000 32.80000 
154 1 0.00000 14.35000 34.85000 
155 1 2.05000 12.30000 34.85000 
156 1 2.05000 14.35000 32.80000 
157 1 0.00000 12.30000 36.90000 
158 1 0.00000 14.35000 38.95000 
159 1 2.05000 12.30000 38.95000 
160 1 2.05000 14.35000 36.90000 
161 1 0.00000 16.40000 0.00000 
162 1 0.00000 18.45000 2.05000 
163 1 2.05000 16.40000 2.05000 
164 1 2.05000 18.45000 0.00000 
165 1 0.00000 16.40000 4.10000 
166 1 0.00000 18.45000 6.15000 
167 1 2.05000 16.40000 6.15000 
168 1 2.05000 18.45000 4.10000 
169 1 0.00000 16.40000 8.20000 
170 1 0.00000 18.45000 10.25000 
171 1 2.05000 16.40000 10.25000 
172 1 2.05000 18.45000 8.20000 
173 1 0.00000 16.40000 12.30000 
174 1 0.00000 18.45000 14.35000 
175 1 2.05000 16.40000 14.35000 
176 1 2.05000 18.45000 12.30000 
177 1 0.00000 16.40000 16.40000 
178 1 0.00000 18.45000 18.45000 
179 1 2.05000 16.40000 18.45000 
180 1 2.05000 18.45000 16.40000 
181 1 0.00000 16.40000 20.50000 
182 1 0.00000 18.45000 22.55000 
183 1 2.05000 16.40000 22.55000 
184 1 2.05000 18.45000 20.50000 
185 1 0.00000 16.40000 24.60000 
186 1 0.00000 18.45000 26.65000 
187 1 2.05000 16.40000 26.65000 
188 1 2.05000 18.45000 24.60000 
189 1 0.00000 16.40000 28.70000 
190 1 0.00000 18.45000 30.75000 
191 1 2.05000 16.40000 30.75000 
192 1 2.05000 18.45000 28.70000 
193 1 0.00000 16.40000 32.80000 
194 1 0.00000 18.45000 34.85000 
195 1 2.05000 16.40000 34.85000 
196 1 2.05000 18.45000 32.80000 
197 1 0.00000 16.40000 36.90000 
198 1 0.00000 18.45000 38.95000 
199 1 2.05000 16.40000 38.95000 
200 1 2.05000 18.45000 36.90000 
201 1 0.00000 20.50000 0.00000 
202 1 0.00000 22.55000 2.05000 
203 1 2.05000 20.50000 2.05000 
204 1 2.05000 22.55000 0.00000 
205 1 0.00000 20.50000 4.10000 
206 1 0.00000 22.55000 6.15000 
207 1 2.05000 20.50000 6.15000 
208 1 2.05000 22.55000 4.10000 
209 1 0.00000 20.50000 8.20000 
210 1 0.00000 22.55000 10.25000 
211 1 2.05000 20.50000 10.25000 
212 1 2.05000 22.55000 8.20000 
213 1 0.00000 20.50000 12.30000 
214 1 0.00000 22.55000 14.35000 
215 1 2.05000 20.50000 14.35000 
216 1 2.05000 22.55000 12.30000 
217 1 0.00000 20.50000 16.40000 
218 1 0.00000 22.55000 18.45000 
219 1 2.05000 20.50000 18.45000 
220 1 2.05000 22.55000 16.40000 
221 1 0.00000 20.50000 20.50000 
222 1 0.00000 22.55000 22.55000 
223 1 2.05000 20.50000 22.55000 
224 1 2.05000 22.55000 20.50000 
225 1 0.00000 20.50000 24.60000 
226 1 0.00000 22.55000 26.65000 
227 1 2.05000 20.50000 26.65000 
228 1 2.05000 22.55000 24.60000 
229 1 0.00000 20.50000 28.70000 
230 1 0.00000 22.55000 30.75000 
231 1 2.05000 20.50000 30.75000 
232 1 2.05000 22.55000 28.70000 
233 1 0.00000 20.50000 32.80000 
234 1 0.00000 22.55000 34.85000 
235 1 2.05000 20.50000 34.85000 
236 1 2.05000 22.55000 32.80000 
237 1 0.00000 20.50000 36.90000 
238 1 0.00000 22.55000 38.95000 
239 1 2.05000 20.50000 38.95000 
240 1 2.05000 22.55000 36.90000 
241 1 0.00000 24.60000 0.00000 
242 1 0.00000 26.65000 2.05000 
243 1 2.05000 24.60000 2.05000 
244 1 2.05000 26.65000 0.00000 
245 1 0.00000 24.60000 4.10000 
246 1 0.00000 26.65000 6.15000 
247 1 2.05000 24.60000 6.15000 
248 1 2.05000 26.65000 4.10000 
249 1 0.00000 24.60000 8.20000 
250 1 0.00000 26.65000 10.25000 
251 1 2.05000 24.60000 10.25000 
252 1 2.05000 26.65000 8.20000 
253 1 0.00000 24.60000 12.30000 
254 1 0.00000 26.65000 14.35000 
255 1 2.05000 24.60000 14.35000 
256 1 2.05000 26.65000 12.30000 
257 1 0.00000 24.60000 16.40000 
258 1 0.00000 26.65000 18.45000 
259 1 2.05000 24.60000 18.45000 
260 1 2.05000 26.65000 16.40000 
261 1 0.00000 24.60000 20.50000 
262 1 0.00000 26.65000 22.55000 
263 1 2.05000 24.60000 22.55000 
264 1 2.05000 26.65000 20.50000 
265 1 0.00000 24.60000 24.60000 
266 1 0.00000 26.65000 26.65000 
267 1 2.05000 24.60000 26.65000 
268 1 2.05000 26.65000 24.60000 
269 1 0.00000 24.60000 28.70000 
270 1 0.00000 26.65000 30.75000 
271 1 2.05000 24.60000 30.75000 
272 1 2.05000 26.65000 28.70000 
273 1 0.00000 24.60000 32.80000 
274 1 0.00000 26.65000 34.85000 
275 1 2.05000 24.60000 34.85000 
276 1 2.05000 26.65000 32.80000 
277 1 0.00000 24.60000 36.90000 
278 1 0.00000 26.65000 38.95000 
279 1 2.05000 24.60000 38.95000 
280 1 2.05000 26.65000 36.90000 
281 1 0.00000 28.70000 0.00000 
282 1 0.00000 30.75000 2.05000 
283 1 2.05000 28.70000 2.05000 
284 1 2.05000 30.75000 0.00000 
285 1 0.00000 28.70000 4.10000 
286 1 0.00000 30.75000 6.15000 
287 1 2.05000 28.70000 6.15000 
288 1 2.05000 30.75000 4.10000 
289 1 0.00000 28.70000 8.20000 
290 1 0.00000 30.75000 10.25000 
291 1 2.05000 28.70000 10.25000 
292 1 2.05000 30.75000 8.20000 
293 1 0.00000 28.70000 12.30000 
294 1 0.00000 30.75000 14.35000 
295 1 2.05000 28.70000 14.35000 
296 1 2.05000 30.75000 12.30000 
297 1 0.00000 28.70000 16.40000 
298 1 0.00000 30.75000 18.45000 
299 1 2.05000 28.70000 18.45000 
300 1 2.05000 30.75000 16.40000 
301 1 0.00000 28.70000 20.50000 
302 1 0.00000 30.75000 22.55000 
303 1 2.05000 28.70000 22.55000 
304 1 2.05000 30.75000 20.50000 
305 1 0.00000 28.70000 24.60000 
306 1 0.00000 30.75000 26.65000 
307 1 2.05000 28.70000 26.65000 
308 1 2.05000 30.75000 24.60000 
309 1 0.00000 28.70000 28.70000 
310 1 0.00000 30.75000 30.75000 
311 1 2.05000 28.70000 30.75000 
312 1 2.05000 30.75000 28.70000 
313 1 0.00000 28.70000 32.80000 
314 1 0.00000 30.75000 34.85000 
315 1 2.05000 28.70000 34.85000 
316 1 2.05000 30.75000 32.80000 
317 1 0.00000 28.70000 36.90000 
318 1 0.00000 30.75000 38.95000 
319 1 2.05000 28.70000 38.95000 
320 1 2.05000 30.75000 36.90000 
321 1 0.00000 32.80000 0.00000 
322 1 0.00000 34.85000 2.05000 
323 1 2.05000 32.80000 2.05000 
324 1 2.05000 34.85000 0.00000 
325 1 0.00000 32.80000 4.10000 
326 1 0.00000 34.85000 6.15000 
327 1 2.05000 32.80000 6.15000 
328 1 2.05000 34.85000 4.10000 
329 1 0.00000 32.80000 8.20000 
330 1 0.00000 34.85000 10.25000 
331 1 2.05000 32.80000 10.25000 
332 1 2.05000 34.85000 8.20000 
333 1 0.00000 32.80000 12.30000 
334 1 0.00000 34.85000 14.35000 
335 1 2.05000 32.80000 14.35000 
336 1 2.05000 34.85000 12.30000 
337 1 0.00000 32.80000 16.40000 
338 1 0.00000 34.85000 18.45000 
339 1 2.05000 32.80000 18.45000 
340 1 2.05000 34.85000 16.40000 
341 1 0.00000 32.80000 20.50000 
342 1 0.00000 34.85000 22.55000 
343 1 2.05000 32.80000 22.55000 
344 1 2.05000 34.85000 20.50000 
345 1 0.00000 32.80000 24.60000 
346 1 0.00000 34.85000 26.65000 
347 1 2.05000 32.80000 26.65000 
348 1 2.05000 34.85000 24.60000 
349 1 0.00000 32.80000 28.70000 
350 1 0.00000 34.85000 30.75000 
351 1 2.05000 32.80000 30.75000 
352 1 2.05000 34.85000 28.70000 
353 1 0.00000 32.80000 32.80000 
354 1 0.00000 34.85000 34.85000 
355 1 2.05000 32.80000 34.85000 
356 1 2.05000 34.85000 32.80000 
357 1 0.00000 32.80000 36.90000 
358 1 0.00000 34.85000 38.95000 
359 1 2.05000 32.80000 38.95000 
360 1 2.05000 34.85000 36.90000 
361 1 0.00000 36.90000 0.00000 
362 1 0.00000 38.95000 2.05000 
363 1 2.05000 36.90000 2.05000 
364 1 2.05000 38.95000 0.00000 
365 1 0.00000 36.90000 4.10000 
366 1 0.00000 38.95000 6.15000 
367 1 2.05000 36.90000 6.15000 
368 1 2.05000 38.95000 4.10000 
369 1 0.00000 36.90000 8.20000 
370 1 0.00000 38.95000 10.25000 
371 1 2.05000 36.90000 10.25000 
372 1 2.05000 38.95000 8.20000 
373 1 0.00000 36.90000 12.30000 
374 1 0.00000 38.95000 14.35000 
375 1 2.05000 36.90000 14.35000 
376 1 2.05000 38.95000 12.30000 
377 1 0.00000 36.90000 16.40000 
378 1 0.00000 38.95000 18.45000 
379 1 2.05000 36.90000 18.45000 
380 1 2.05000 38.95000 16.40000 
381 1 0.00000 36.90000 20.50000 
382 1 0.00000 38.95000 22.55000 
383 1 2.05000 36.90000 22.55000 
384 1 2.05000 38.95000 20.50000 
385 1 0.00000 36.90000 24.60000 
386 1 0.00000 38.95000 26.65000 
387 1 2.05000 36.90000 26.65000 
388 1 2.05000 38.95000 24.60000 
389 1 0.00000 36.90000 28.70000 
390 1 0.00000 38.95000 30.75000 
391 1 2.05000 36.90000 30.75000 
392 1 2.05000 38.95000 28.70000 
393 1 0.00000 36.90000 32.80000 
394 1 0.00000 38.95000 34.85000 
395 1 2.05000 36.90000 34.85000 
396 1 2.05000 38.95000 32.80000 
397 1 0.00000 36.90000 36.90000 
398 1 0.00000 38.95000 38.95000 
399 1 2.05000 36.90000 38.95000 
400 1 2.05000 38.95000 36.90000 
401 1 4.10000 0.00000 0.00000 
402 1 4.10000 2.05000 2.05000 
403 1 6.15000 0.00000 2.05000 
404 1 6.15000 2.05000 0.00000 
405 1 4.10000 0.00000 4.10000 
406 1 4.10000 2.05000 6.15000 
407 1 6.15000 0.00000 6.15000 
408 1 6.15000 2.05000 4.10000 
409 1 4.10000 0.00000 8.20000 
410 1 4.10000 2.05000 10.25000 
411 1 6.15000 0.00000 10.25000 
412 1 6.15000 2.05000 8.20000 
413 1 4.10000 0.00000 12.30000 
414 1 4.10000 2.05000 14.35000 
415 1 6.15000 0.00000 14.35000 
416 1 6.15000 2.05000 12.30000 
417 1 4.10000 0.00000 16.40000 
418 1 4.10000 2.05000 18.45000 
419 1 6.15000 0.00000 18.45000 
420 1 6.15000 2.05000 16.40000 
421 1 4.10000 0.00000 20.50000 
422 1 4.10000 2.05000 22.55000 
423 1 6.15000 0.00000 22.55000 
424 1 6.15000 2.05000 20.50000 
425 1 4.10000 0.00000 24.60000 
426 1 4.10000 2.05000 26.65000 
427 1 6.15000 0.00000 26.65000 
428 1 6.15000 2.05000 24.60000 
429 1 4.10000 0.00000 28.70000 
430 1 4.10000 2.05000 30.75000 
431 1 6.15000 0.00000 30.75000 
432 1 6.15000 2.05000 28.70000 
433 1 4.10000 0.00000 32.80000 
434 1 4.10000 2.05000 34.85000 
435 1 6.15000 0.00000 34.85000 
436 1 6.15000 2.05000 32.80000 
437 1 4.10000 0.00000 36.90000 
438 1 4.10000 2.05000 38.95000 
439 1 6.15000 0.00000 38.95000 
440 1 6.15000 2.05000 36.90000 
441 1 4.10000 4.10000 0.00000 
442 1 4.10000 6.15000 2.05000 
443 1 6.15000 4.10000 2.05000 
444 1 6.15000 6.15000 0.00000 
445 1 4.10000 4.10000 4.10000 
446 1 4.10000 6.15000 6.15000 
447 1 6.15000 4.10000 6.15000 
448 1 6.15000 6.15000 4.10000 
449 1 4.10000 4.10000 8.20000 
450 1 4.10000 6.15000 10.25000 
451 1 6.15000 4.10000 10.25000 
452 1 6.15000 6.15000 8.20000 
453 1 4.10000 4.10000 12.30000 
454 1 4.10000 6.15000 14.35000 
455 1 6.15000 4.10000 14.35000 
456 1 6.15000 6.15000 12.30000 
457 1 4.10000 4.10000 16.40000 
458 1 4.10000 6.15000 18.45000 
459 1 6.15000 4.10000 18.45000 
460 1 6.15000 6.15000 16.40000 
461 1 4.10000 4.10000 20.50000 
462 1 4.10000 6.15000 22.55000 
463 1 6.15000 4.10000 22.55000 
464 1 6.15000 6.15000 20.50000 
465 1 4.10000 4.10000 24.60000 
466 1 4.10000 6.15000 26.65000 
467 1 6.15000 4.10000 26.65000 
468 1 6.15000 6.15000 24.60000 
469 1 4.10000 4.10000 28.70000 
470 1 4.10000 6.15000 30.75000 
471 1 6.15000 4.10000 30.75000 
472 1 6.15000 6.15000 28.70000 
473 1 4.10000 4.10000 32.80000 
474 1 4.10000 6.15000 34.85000 
475 1 6.15000 4.10000 34.85000 
476 1 6.15000 6.15000 32.80000 
477 1 4.10000 4.10000 36.90000 
478 1 4.10000 6.15000 38.95000 
479 1 6.15000 4.10000 38.95000 
480 1 6.15000 6.15000 36.90000 
481 1 4.10000 8.20000 0.00000 
482 1 4.10000 10.25000 2.05000 
483 1 6.15000 8.20000 2.05000 
484 1 6.15000 10.25000 0.00000 
485 1 4.10000 8.20000 4.10000 
486 1 4.10000 10.25000 6.15000 
487 1 6.15000 8.20000 6.15000 
488 1 6.15000 10.25000 4.10000 
489 1 4.10000 8.20000 8.20000 
490 1 4.10000 10.25000 10.25000 
491 1 6.15000 8.20000 10.25000 
492 1 6.15000 10.25000 8.20000 
493 1 4.10000 8.20000 12.30000 
494 1 4.10000 10.25000 14.35000 
495 1 6.15000 8.20000 14.35000 
496 1 6.15000 10.25000 12.30000 
497 1 4.10000 8.20000 16.40000 
498 1 4.10000 10.25000 18.45000 
499 1 6.15000 8.20000 18.45000 
500 1 6.15000 10.25000 16.40000 
501 1 4.10000 8.20000 20.50000 
502 1 4.10000 10.25000 22.55000 
503 1 6.15000 8.20000 22.55000 
504 1 6.15000 10.25000 20.50000 
505 1 4.10000 8.20000 24.60000 
506 1 4.10000 10.25000 26.65000 
507 1 6.15000 8.20000 26.65000 
508 1 6.15000 10.25000 24.60000 
509 1 4.10000 8.20000 28.70000 
510 1 4.10000 10.25000 30.75000 
511 1 6.15000 8.20000 30.75000 
512 1 6.15000 10.25000 28.70000 
513 1 4.10000 8.20000 32.80000 
514 1 4.10000 10.25000 34.85000 
515 1 6.15000 8.20000 34.85000 
516 1 6.15000 10.25000 32.80000 
517 1 4.10000 8.20000 36.90000 
518 1 4.10000 10.25000 38.95000 
519 1 6.15000 8.20000 38.95000 
520 1 6.15000 10.25000 36.90000 
521 1 4.10000 12.30000 0.00000 
522 1 4.10000 14.35000 2.05000 
523 1 6.15000 12.30000 2.05000 
524 1 6.15000 14.35000 0.00000 
525 1 4.10000 12.30000 4.10000 
526 1 4.10000 14.35000 6.15000 
527 1 6.15000 12.30000 6.15000 
528 1 6.15000 14.35000 4.10000 
529 1 4.10000 12.30000 8.20000 
530 1 4.10000 14.35000 10.25000 
531 1 6.15000 12.30000 10.25000 
532 1 6.15000 14.35000 8.20000 
533 1 4.10000 12.30000 12.30000 
534 1 4.10000 14.35000 14.35000 
535 1 6.15000 12.30000 14.35000 
536 1 6.15000 14.35000 12.30000 
537 1 4.10000 12.30000 16.40000 
538 1 4.10000 14.35000 18.45000 
539 1 6.15000 12.30000 18.45000 
540 1 6.15000 14.35000 16.40000 
541 1 4.10000 12.30000 20.50000 
542 1 4.10000 14.35000 22.55000 
543 1 6.15000 12.30000 22.55000 
544 1 6.15000 14.35000 20.50000 
545 1 4.10000 12.30000 24.60000 
546 1 4.10000 14.35000 26.65000 
547 1 6.15000 12.30000 26.65000 
548 1 6.15000 14.35000 24.60000 
549 1 4.10000 12.30000 28.70000 
550 1 4.10000 14.35000 30.75000 
551 1 6.15000 12.30000 30.75000 
552 1 6.15000 14.35000 28.70000 
553 1 4.10000 12.30000 32.80000 
554 1 4.10000 14.35000 34.85000 
555 1 6.15000 12.30000 34.85000 
556 1 6.15000 14.35000 32.80000 
557 1 4.10000 12.30000 36.90000 
558 1 4.10000 14.35000 38.95000 
559 1 6.15000 12.30000 38.95000 
560 1 6.15000 14.35000 36.90000 
561 1 4.10000 16.40000 0.00000 
562 1 4.10000 18.45000 2.05000 
563 1 6.15000 16.40000 2.05000 
564 1 6.15000 18.45000 0.00000 
565 1 4.10000 16.40000 4.10000 
566 1 4.10000 18.45000 6.15000 
567 1 6.15000 16.40000 6.15000 
568 1 6.15000 18.45000 4.10000 
569 1 4.10000 16.40000 8.20000 
570 1 4.10000 18.45000 10.25000 
571 1 6.15000 16.40000 10.25000 
572 1 6.15000 18.45000 8.20000 
573 1 4.10000 16.40000 12.30000 
574 1 4.10000 18.45000 14.35000 
575 1 6.15000 16.40000 14.35000 
576 1 6.15000 18.45000 12.30000 
577 1 4.10000 16.40000 16.40000 
578 1 4.10000 18.45000 18.45000 
579 1 6.15000 16.40000 18.45000 
580 1 6.15000 18.45000 16.40000 
581 1 4.10000 16.40000 20.50000 
582 1 4.10000 18.45000 22.55000 
583 1 6.15000 16.40000 22.55000 
584 1 6.15000 18.45000 20.50000 
585 1 4.10000 16.40000 24.60000 
586 1 4.10000 18.45000 26.65000 
587 1 6.15000 16.40000 26.65000 
588 1 6.15000 18.45000 24.60000 
589 1 4.10000 16.40000 28.70000 
590 1 4.10000 18.45000 30.75000 
591 1 6.15000 16.40000 30.75000 
592 1 6.15000 18.45000 28.70000 
593 1 4.10000 16.40000 32.80000 
594 1 4.10000 18.45000 34.85000 
595 1 6.15000 16.40000 34.85000 
596 1 6.15000 18.45000 32.80000 
597 1 4.10000 16.40000 36.90000 
598 1 4.10000 18.45000 38.95000 
599 1 6.15000 16.40000 38.95000 
600 1 6.15000 18.45000 36.90000 
601 1 4.10000 20.50000 0.00000 
602 1 4.10000 22.55000 2.05000 
603 1 6.15000 20.50000 2.05000 
604 1 6.15000 22.55000 0.00000 
605 1 4.10000 20.50000 4.10000 
606 1 4.10000 22.55000 6.15000 
607 1 6.15000 20.50000 6.15000 
608 1 6.15000 22.55000 4.10000 
609 1 4.10000 20.50000 8.20000 
610 1 4.10000 22.55000 10.25000 
611 1 6.15000 20.50000 10.25000 
612 1 6.15000 22.55000 8.20000 
613 1 4.10000 20.50000 12.30000 
614 1 4.10000 22.55000 14.35000 
615 1 6.15000 20.50000 14.35000 
616 1 6.15000 22.55000 12.30000 
617 1 4.10000 20.50000 16.40000 
618 1 4.10000 22.55000 18.45000 
619 1 6.15000 20.50000 18.45000 
620 1 6.15000 22.55000 16.40000 
621 1 4.10000 20.50000 20.50000 
622 1 4.10000 22.55000 22.55000 
623 1 6.15000 20.50000 22.55000 
624 1 6.15000 22.55000 20.50000 
625 1 4.10000 20.50000 24.60000 
626 1 4.10000 22.55000 26.65000 
627 1 6.15000 20.50000 26.65000 
628 1 6.15000 22.55000 24.60000 
629 1 4.10000 20.50000 28.70000 
630 1 4.10000 22.55000 30.75000 
631 1 6.15000 20.50000 30.75000 
632 1 6.15000 22.55000 28.70000 
633 1 4.10000 20.50000 32.80000 
634 1 4.10000 22.55000 34.85000 
635 1 6.15000 20.50000 34.85000 
636 1 6.15000 22.55000 32.80000 
637 1 4.10000 20.50000 36.90000 
638 1 4.10000 22.55000 38.95000 
639 1 6.15000 20.50000 38.95000 
640 1 6.15000 22.55000 36.90000 
641 1 4.10000 24.60000 0.00000 
642 1 4.10000 26.65000 2.05000 
643 1 6.15000 24.60000 2.05000 
644 1 6.15000 26.65000 0.00000 
645 1 4.10000 24.60000 4.10000 
646 1 4.10000 26.65000 6.15000 
647 1 6.15000 24.60000 6.15000 
648 1 6.15000 26.65000 4.10000 
649 1 4.10000 24.60000 8.20000 
650 1 4.10000 26.65000 10.25000 
651 1 6.15000 24.60000 10.25000 
652 1 6.15000 26.65000 8.20000 
653 1 4.10000 24.60000 12.30000 
654 1 4.10000 26.65000 14.35000 
655 1 6.15000 24.60000 14.35000 
656 1 6.15000 26.65000 12.30000 
657 1 4.10000 24.60000 16.40000 
658 1 4.10000 26.65000 18.45000 
659 1 6.15000 24.60000 18.45000 
660 1 6.15000 26.65000 16.40000 
661 1 4.10000 24.60000 20.50000 
662 1 4.10000 26.65000 22.55000 
663 1 6.15000 24.60000 22.55000 
664 1 6.15000 26.65000 20.50000 
665 1 4.10000 24.60000 24.60000 
666 1 4.10000 26.65000 26.65000 
667 1 6.15000 24.60000 26.65000 
668 1 6.15000 26.65000 24.60000 
669 1 4.10000 24.60000 28.70000 
670 1 4.10000 26.65000 30.75000 
671 1 6.15000 24.60000 30.75000 
672 1 6.15000 26.65000 28.70000 
673 1 4.10000 24.60000 32.80000 
674 1 4.10000 26.65000 34.85000 
675 1 6.15000 24.60000 34.85000 
676 1 6.15000 26.65000 32.80000 
677 1 4.10000 24.60000 36.90000 
678 1 4.10000 26.65000 38.95000 
679 1 6.15000 24.60000 38.95000 
680 1 6.15000 26.65000 36.90000 
681 1 4.10000 28.70000 0.00000 
682 1 4.10000 30.75000 2.05000 
683 1 6.15000 28.70000 2.05000 
684 1 6.15000 30.75000 0.00000 
685 1 4.10000 28.70000 4.10000 
686 1 4.10000 30.75000 6.15000 
687 1 6.15000 28.70000 6.15000 
688 1 6.15000 30.75000 4.10000 
689 1 4.10000 28.70000 8.20000 
690 1 4.10000 30.75000 10.25000 
691 1 6.15000 28.70000 10.25000 
692 1 6.15000 30.75000 8.20000 
693 1 4.10000 28.70000 12.30000 
694 1 4.10000 30.75000 14.35000 
695 1 6.15000 28.70000 14.35000 
696 1 6.15000 30.75000 12.30000 
697 1 4.10000 28.70000 16.40000 
698 1 4.10000 30.75000 18.45000 
699 1 6.15000 28.70000 18.45000 
700 1 6.15000 30.75000 16.40000 
701 1 4.10000 28.70000 20.50000 
702 1 4.10000 30.75000 22.55000 
703 1 6.15000 28.70000 22.55000 
704 1 6.15000 30.75000 20.50000 
705 1 4.10000 28.70000 24.60000 
706 1 4.10000 30.75000 26.65000 
707 1 6.15000 28.70000 26.65000 
708 1 6.15000 30.75000 24.60000 
709 1 4.10000 28.70000 28.70000 
710 1 4.10000 30.75000 30.75000 
711 1 6.15000 28.70000 30.75000 
712 1 6.15000 30.75000 28.70000 
713 1 4.10000 28.70000 32.80000 
714 1 4.10000 30.75000 34.85000 
715 1 6.15000 28.70000 34.85000 
716 1 6.15000 30.75000 32.80000 
717 1 4.10000 28.70000 36.90000 
718 1 4.10000 30.75000 38.95000 
719 1 6.15000 28.70000 38.95000 
720 1 6.15000 30.75000 36.90000 
721 1 4.10000 32.80000 0.00000 
722 1 4.10000 34.85000 2.05000 
723 1 6.15000 32.80000 2.05000 
724 1 6.15000 34.85000 0.00000 
725 1 4.10000 32.80000 4.10000 
726 1 4.10000 34.85000 6.15000 
727 1 6.15000 32.80000 6.15000 
728 1 6.15000 34.85000 4.10000 
729 1 4.10000 32.80000 8.20000 
730 1 4.10000 34.85000 10.25000 
731 1 6.15000 32.80000 10.25000 
732 1 6.15000 34.85000 8.20000 
733 1 4.10000 32.80000 12.30000 
734 1 4.10000 34.85000 14.35000 
735 1 6.15000 32.80000 14.35000 
736 1 6.15000 34.85000 12.30000 
737 1 4.10000 32.80000 16.40000 
738 1 4.10000 34.85000 18.45000 
739 1 6.15000 32.80000 18.45000 
740 1 6.15000 34.85000 16.40000 
741 1 4.10000 32.80000 20.50000 
742 1 4.10000 34.85000 22.55000 
743 1 6.15000 32.80000 22.55000 
744 1 6.15000 34.85000 20.50000 
745 1 4.10000 32.80000 24.60000 
746 1 4.10000 34.85000 26.65000 
747 1 6.15000 32.80000 26.65000 
748 1 6.15000 34.85000 24.60000 
749 1 4.10000 32.80000 28.70000 
750 1 4.10000 34.85000 30.75000 
751 1 6.15000 32.80000 30.75000 
752 1 6.15000 34.85000 28.70000 
753 1 4.10000 32.80000 32.80000 
754 1 4.10000 34.85000 34.85000 
755 1 6.15000 32.80000 34.85000 
756 1 6.15000 34.85000 32.80000 
757 1 4.10000 32.80000 36.90000 
758 1 4.10000 34.85000 38.95000 
759 1 6.15000 32.80000 38.95000 
760 1 6.15000 34.85000 36.90000 
761 1 4.10000 36.90000 0.00000 
762 1 4.10000 38.95000 2.05000 
763 1 6.15000 36.90000 2.05000 
764 1 6.15000 38.95000 0.00000 
765 1 4.10000 36.90000 4.10000 
766 1 4.10000 38.95000 6.15000 
767 1 6.15000 36.90000 6.15000 
768 1 6.15000 38.95000 4.10000 
769 1 4.10000 36.90000 8.20000 
770 1 4.10000 38.95000 10.25000 
771 1 6.15000 36.90000 10.25000 
772 1 6.15000 38.95000 8.20000 
773 1 4.10000 36.90000 12.30000 
774 1 4.10000 38.95000 14.35000 
775 1 6.15000 36.90000 14.35000 
776 1 6.15000 38.95000 12.30000 
777 1 4.10000 36.90000 16.40000 
778 1 4.10000 38.95000 18.45000 
779 1 6.15000 36.90000 18.45000 
780 1 6.15000 38.95000 16.40000 
781 1 4.10000 36.90000 20.50000 
782 1 4.10000 38.95000 22.55000 
783 1 6.15000 36.90000 22.55000 
784 1 6.15000 38.95000 20.50000 
785 1 4.10000 36.90000 24.60000 
786 1 4.10000 38.95000 26.65000 
787 1 6.15000 36.90000 26.65000 
788 1 6.15000 38.95000 24.60000 
789 1 4.10000 36.90000 28.70000 
790 1 4.10000 38.95000 30.75000 
791 1 6.15000 36.90000 30.75000 
792 1 6.15000 38.95000 28.70000 
793 1 4.10000 36.90000 32.80000 
794 1 4.10000 38.95000 34.85000 
795 1 6.15000 36.90000 34.85000 
796 1 6.15000 38.95000 32.80000 
797 1 4.10000 36.90000 36.90000 
798 1 4.10000 38.95000 38.95000 
799 1 6.15000 36.90000 38.95000 
800 1 6.15000 38.95000 36.90000 
801 1 8.20000 0.00000 0.00000 
802 1 8.20000 2.05000 2.05000 
803 1 10.25000 0.00000 2.05000 
804 1 10.25000 2.05000 0.00000 
805 1 8.20000 0.00000 4.10000 
806 1 8.20000 2.05000 6.15000 
807 1 10.25000 0.00000 6.15000 
808 1 10.25000 2.05000 4.10000 
809 1 8.20000 0.00000 8.20000 
810 1 8.20000 2.05000 10.25000 
811 1 10.25000 0.00000 10.25000 
812 1 10.25000 2.05000 8.20000 
813 1 8.20000 0.00000 12.30000 
814 1 8.20000 2.05000 14.35000 
815 1 10.25000 0.00000 14.35000 
816 1 10.25000 2.05000 12.30000 
817 1 8.20000 0.00000 16.40000 
818 1 8.20000 2.05000 18.45000 
819 1 10.25000 0.00000 18.45000 
820 1 10.25000 2.05000 16.40000 
821 1 8.20000 0.00000 20.50000 
822 1 8.20000 2.05000 22.55000 
823 1 10.25000 0.00000 22.55000 
824 1 10.25000 2.05000 20.50000 
825 1 8.20000 0.00000 24.60000 
826 1 8.20000 2.05000 26.65000 
827 1 10.25000 0.00000 26.65000 
828 1 10.25000 2.05000 24.60000 
829 1 8.20000 0.00000 28.70000 
830 1 8.20000 2.05000 30.75000 
831 1 10.25000 0.00000 30.75000 
832 1 10.25000 2.05000 28.70000 
833 1 8.20000 0.00000 32.80000 
834 1 8.20000 2.05000 34.85000 
835 1 10.25000 0.00000 34.85000 
836 1 10.25000 2.05000 32.80000 
837 1 8.20000 0.00000 36.90000 
838 1 8.20000 2.05000 38.95000 
839 1 10.25000 0.00000 38.95000 
840 1 10.25000 2.05000 36.90000 
841 1 8.20000 4.10000 0.00000 
842 1 8.20000 6.15000 2.05000 
843 1 10.25000 4.10000 2.05000 
844 1 10.25000 6.15000 0.00000 
845 1 8.20000 4.10000 4.10000 
846 1 8.20000 6.15000 6.15000 
847 1 10.25000 4.10000 6.15000 
848 1 10.25000 6.15000 4.10000 
849 1 8.20000 4.10000 8.20000 
850 1 8.20000 6.15000 10.25000 
851 1 10.25000 4.10000 10.25000 
852 1 10.25000 6.15000 8.20000 
853 1 8.20000 4.10000 12.30000 
854 1 8.20000 6.15000 14.35000 
855 1 10.25000 4.10000 14.35000 
856 1 10.25000 6.15000 12.30000 
857 1 8.20000 4.10000 16.40000 
858 1 8.20000 6.15000 18.45000 
859 1 10.25000 4.10000 18.45000 
860 1 10.25000 6.15000 16.40000 
861 1 8.20000 4.10000 20.50000 
862 1 8.20000 6.15000 22.55000 
863 1 10.25000 4.10000 22.55000 
864 1 10.25000 6.15000 20.50000 
865 1 8.20000 4.10000 24.60000 
866 1 8.20000 6.15000 26.65000 
867 1 10.25000 4.10000 26.65000 
868 1 10.25000 6.15000 24.60000 
869 1 8.20000 4.10000 28.70000 
870 1 8.20000 6.15000 30.75000 
871 1 10.25000 4.10000 30.75000 
872 1 10.25000 6.15000 28.70000 
873 1 8.20000 4.10000 32.80000 
874 1 8.20000 6.15000 34.85000 
875 1 10.25000 4.10000 34.85000 
876 1 10.25000 6.15000 32.80000 
877 1 8.20000 4.10000 36.90000 
878 1 8.20000 6.15000 38.95000 
879 1 10.25000 4.10000 38.95000 
880 1 10.25000 6.15000 36.90000 
881 1 8.20000 8.20000 0.00000 
882 1 8.20000 10.25000 2.05000 
883 1 10.25000 8.20000 2.05000 
884 1 10.25000 10.25000 0.00000 
885 1 8.20000 8.20000 4.10000 
886 1 8.20000 10.25000 6.15000 
887 1 10.25000 8.20000 6.15000 
888 1 10.25000 10.25000 4.10000 
889 1 8.20000 8.20000 8.20000 
890 1 8.20000 10.25000 10.25000 
891 1 10.25000 8.20000 10.25000 
892 1 10.25000 10.25000 8.20000 
893 1 8.20000 8.20000 12.30000 
894 1 8.20000 10.25000 14.35000 
895 1 10.25000 8.20000 14.35000 
896 1 10.25000 10.25000 12.30000 
897 1 8.20000 8.20000 16.40000 
898 1 8.20000 10.25000 18.45000 
899 1 10.25000 8.20000 18.45000 
900 1 10.25000 10.25000 16.40000 
901 1 8.20000 8.20000 20.50000 
902 1 8.20000 10.25000 22.55000 
903 1 10.25000 8.20000 22.55000 
904 1 10.25000 10.25000 20.50000 
905 1 8.20000 8.20000 24.60000 
906 1 8.20000 10.25000 26.65000 
907 1 10.25000 8.20000 26.65000 
908 1 10.25000 10.25000 24.60000 
909 1 8.20000 8.20000 28.70000 
910 1 8.20000 10.25000 30.75000 
911 1 10.25000 8.20000 30.75000 
912 1 10.25000 10.25000 28.70000 
913 1 8.20000 8.20000 32.80000 
914 1 8.20000 10.25000 34.85000 
915 1 10.25000 8.20000 34.85000 
916 1 10.25000 10.25000 32.80000 
917 1 8.20000 8.20000 36.90000 
918 1 8.20000 10.25000 38.95000 
919 1 10.25000 8.20000 38.95000 
920 1 10.25000 10.25000 36.90000 
921 1 8.20000 12.30000 0.00000 
922 1 8.20000 14.35000 2.05000 