LAMMPS (29 Oct 2020)
Reading data file ...
  orthogonal box = (0.0000000 0.0000000 0.0000000) to (41.000000 41.000000 41.000000)
  1 by 1 by 1 MPI processor grid
  reading atoms ...
  4000 atoms
  read_data CPU = 0.006 seconds
Reading eam potential file /home/gridsan/epan1/3320_atomistic_shared/lammps/potentials/Ag_u3.eam with DATE: 2007-06-11
Neighbor list info ...
  update every 1 steps, delay 10 steps, check yes
  max neighbors/atom: 2000, page size: 100000
  master list distance cutoff = 7.55
  ghost atom cutoff = 7.55
  binsize = 3.775, bins = 11 11 11
  2 neighbor lists, perpetual/occasional/extra = 1 1 0
  (1) pair eam, perpetual
      attributes: half, newton on
      pair build: half/bin/atomonly/newton
      stencil: half/bin/3d/newton
      bin: standard
  (2) compute rdf, occasional, copy from (1)
      attributes: half, newton on
      pair build: copy
      stencil: none
      bin: none
Setting up Verlet run ...
  Unit style    : metal
  Current step  : 0
  Time step     : 0.0025
Per MPI rank memory allocation (min/avg/max) = 4.344 | 4.344 | 4.344 Mbytes
Step PotEng KinEng TotEng Temp Press Density c_msdall[4] 
       0    -11398.82    1333.6312   -10065.188         2580    13203.116    10.395806            0 
     100   -10615.929    785.65718   -9830.2715    1519.9071    77151.808    10.395806   0.16841018 
     200   -10409.118    980.99121   -9428.1273     1897.794     97787.88    10.395806   0.20632265 
     300   -10168.462    1175.2437   -8993.2179    2273.5887    121453.85    10.395806   0.25615219 
     400    -9984.695    1329.2269   -8655.4681    2571.4796    138260.34    10.395806   0.32567504 
     500   -9916.5668     1353.167   -8563.3998    2617.7934    145170.25    10.395806   0.37303338 
     600   -9992.3901    1320.8772   -8671.5129    2555.3266    138004.54    10.395806   0.37782817 
     700   -9970.8395     1306.791   -8664.0485    2528.0757    139671.76    10.395806   0.38104877 
     800   -9929.5416    1360.7989   -8568.7427    2632.5577    143963.29    10.395806   0.38574662 
     900   -9959.1281    1337.0429   -8622.0852    2586.6002    141007.37    10.395806   0.37857439 
    1000   -9984.7662    1327.1091   -8657.6571    2567.3826     139040.3    10.395806   0.37047857 
    1100   -9956.9871    1319.5239   -8637.4632    2552.7086    141092.45    10.395806   0.39327237 
    1200   -9967.0357    1372.3436   -8594.6921    2654.8918    141081.77    10.395806   0.42243158 
    1300   -9940.1893    1323.2685   -8616.9209    2559.9526    142489.04    10.395806   0.47590202 
    1400   -9922.5504    1322.2019   -8600.3485    2557.8893    144231.31    10.395806   0.48701811 
    1500   -9919.0603    1332.2981   -8586.7623     2577.421    144266.73    10.395806   0.52213548 
    1600   -9895.6835    1315.8819   -8579.8016    2545.6628    145926.77    10.395806   0.55938164 
    1700   -9873.7094    1324.2039   -8549.5055    2561.7622    147945.52    10.395806   0.62719026 
    1800   -9837.7754    1324.3685   -8513.4069    2562.0806    151290.57    10.395806   0.71011491 
    1900   -9820.3918    1307.4314   -8512.9604    2529.3146    152927.27    10.395806   0.84708194 
    2000   -9803.5574     1337.455   -8466.1024    2587.3974    154268.87    10.395806    1.0029837 
    2100   -9759.2363    1333.8635   -8425.3729    2580.4494     158006.5    10.395806    1.2149997 
    2200   -9710.7517    1316.1228   -8394.6289    2546.1288    161690.76    10.395806    1.4808434 
    2300   -9649.4463    1323.5107   -8325.9356    2560.4212    166989.31    10.395806    1.7762697 
    2400   -9634.1217    1330.7611   -8303.3605    2574.4477    168695.47    10.395806    2.1013171 
    2500   -9602.3641    1303.7567   -8298.6074    2522.2057    170379.31    10.395806    2.5192714 
    2600   -9606.1507    1330.9732   -8275.1775    2574.8579    170811.79    10.395806    3.1105599 
    2700   -9590.4508    1358.2642   -8232.1866    2627.6542    172624.72    10.395806    3.7100002 
    2800   -9606.1589    1326.6486   -8279.5102    2566.4918    170853.97    10.395806    4.2001307 
    2900   -9553.9226    1331.2061   -8222.7166    2575.3084    175452.63    10.395806     4.782482 
    3000   -9543.4905    1348.6958   -8194.7947    2609.1434     177062.9    10.395806    5.4770633 
    3100   -9568.7898    1318.9218    -8249.868    2551.5437     174330.4    10.395806    6.2362393 
    3200   -9546.8157    1346.8582   -8199.9575    2605.5885    176246.75    10.395806    6.9181322 
    3300   -9541.2272    1329.5478   -8211.6793    2572.1005    176646.48    10.395806    7.6663189 
    3400   -9542.8014    1324.9366   -8217.8649    2563.1797       176172    10.395806    8.3633159 
    3500   -9528.4662    1336.8649   -8191.6013    2586.2558    177061.66    10.395806    9.0226343 
    3600   -9535.5262    1346.4916   -8189.0346    2604.8793    177372.25    10.395806    9.7931884 
    3700   -9536.9644     1333.891   -8203.0734    2580.5026     176844.1    10.395806    10.624135 
    3800   -9552.9185    1317.0576   -8235.8609    2547.9372    174714.49    10.395806    11.484911 
    3900   -9518.7053    1335.7597   -8182.9456    2584.1177    179209.92    10.395806    12.293347 
    4000    -9544.156     1323.903   -8220.2531    2561.1801    175954.47    10.395806    12.861903 
    4100   -9586.9388    1364.2354   -8222.7034    2639.2058    173623.08    10.395806    13.646254 
    4200   -9545.7912    1331.3154   -8214.4758      2575.52    176691.41    10.395806    14.414896 
    4300   -9534.8833    1321.1385   -8213.7448    2555.8319    176897.17    10.395806    15.047392 
    4400   -9562.8463    1327.3666   -8235.4797    2567.8806    175224.25    10.395806    15.705977 
    4500   -9531.1922     1335.241   -8195.9513    2583.1142    177198.98    10.395806    16.436268 
    4600   -9515.5673    1328.0137   -8187.5536    2569.1326    178419.89    10.395806    17.263315 
    4700   -9572.3057    1328.2139   -8244.0918    2569.5199    174185.79    10.395806    18.035452 
    4800   -9542.4942     1328.698   -8213.7962    2570.4564    175796.76    10.395806    18.795883 
    4900   -9544.1951    1335.3333   -8208.8618    2583.2928    176072.64    10.395806    19.482697 
    5000   -9571.6319    1307.5017   -8264.1302    2529.4507    174036.93    10.395806    20.383962 
    5100   -9547.5492    1345.3783   -8202.1709    2602.7255     176744.4    10.395806    21.153381 
    5200   -9518.7857    1320.8444   -8197.9413     2555.263    178562.94    10.395806    21.863948 
    5300   -9518.2631    1354.1958   -8164.0673    2619.7836    179039.98    10.395806    22.734837 
    5400   -9556.5876    1328.5259   -8228.0617    2570.1234    175952.24    10.395806    23.465739 
    5500    -9555.503    1339.6584   -8215.8446      2591.66    175803.92    10.395806    24.223057 
    5600   -9523.1264     1357.001   -8166.1254    2625.2105    178056.97    10.395806    24.958612 
    5700   -9540.3944    1329.7822   -8210.6122    2572.5539    176967.22    10.395806    25.630721 
    5800   -9540.8886    1327.7026    -8213.186    2568.5308    176522.24    10.395806     26.29564 
    5900   -9552.6987    1304.2295   -8248.4692    2523.1204    175283.38    10.395806    26.971466 
    6000   -9583.1952    1324.5898   -8258.6054    2562.5088    172616.52    10.395806    27.846032 
    6100   -9549.0615    1349.4363   -8199.6252    2610.5759    176203.65    10.395806    28.509699 
    6200   -9568.2209     1338.598   -8229.6229    2589.6085    175001.08    10.395806    29.318931 
    6300   -9575.6454    1376.2117   -8199.4337    2662.3748    174175.99    10.395806    29.864793 
    6400   -9535.8207    1343.1535   -8192.6672    2598.4216    176953.22    10.395806    30.651529 
    6500   -9590.0194    1339.2416   -8250.7779    2590.8536    173184.49    10.395806    31.252181 
    6600   -9603.8487    1362.6483   -8241.2005    2636.1355    172059.38    10.395806     31.99532 
    6700   -9561.4307    1321.0194   -8240.4114    2555.6016     174995.4    10.395806    32.795617 
    6800   -9522.0232     1347.806   -8174.2171    2607.4222     178086.2    10.395806    33.502681 
    6900   -9532.6986    1337.7156    -8194.983    2587.9015    177772.03    10.