LAMMPS (29 Oct 2020)
Reading data file ...
  orthogonal box = (0.0000000 0.0000000 0.0000000) to (4.0900000 4.0900000 4.0900000)
  1 by 1 by 1 MPI processor grid
  reading atoms ...
  3 atoms
  read_data CPU = 0.000 seconds
Reading eam potential file /home/gridsan/epan1/3320_atomistic_shared/lammps/potentials/Ag_u3.eam with DATE: 2007-06-11
WARNING: No fixes defined, atoms won't move (../verlet.cpp:54)
Neighbor list info ...
  update every 1 steps, delay 10 steps, check yes
  max neighbors/atom: 2000, page size: 100000
  master list distance cutoff = 7.55
  ghost atom cutoff = 7.55
  binsize = 3.775, bins = 2 2 2
  1 neighbor lists, perpetual/occasional/extra = 1 0 0
  (1) pair eam, perpetual
      attributes: half, newton on
      pair build: half/bin/atomonly/newton
      stencil: half/bin/3d/newton
      bin: standard
Setting up Verlet run ...
  Unit style    : metal
  Current step  : 0
  Time step     : 0.001
Per MPI rank memory allocation (min/avg/max) = 3.208 | 3.208 | 3.208 Mbytes
Step PotEng Lx Ly Lz Press Pxx Pyy Pzz 
       0    -7.514095         4.09         4.09         4.09   -42179.514   -42179.514   -42179.514   -42179.514 
Loop time of 0 on 1 procs for 0 steps with 3 atoms

0.0% CPU use with 1 MPI tasks x no OpenMP threads

MPI task timing breakdown:
Section |  min time  |  avg time  |  max time  |%varavg| %total
---------------------------------------------------------------
Pair    | 0          | 0          | 0          |   0.0 |  0.00
Neigh   | 0          | 0          | 0          |   0.0 |  0.00
Comm    | 0          | 0          | 0          |   0.0 |  0.00
Output  | 0          | 0          | 0          |   0.0 |  0.00
Modify  | 0          | 0          | 0          |   0.0 |  0.00
Other   |            | 0          |            |       |  0.00

Nlocal:        3.00000 ave           3 max           3 min
Histogram: 1 0 0 0 0 0 0 0 0 0
Nghost:        297.000 ave         297 max         297 min
Histogram: 1 0 0 0 0 0 0 0 0 0
Neighs:        99.0000 ave          99 max          99 min
Histogram: 1 0 0 0 0 0 0 0 0 0

Total # of neighbors = 99
Ave neighs/atom = 33.000000
Neighbor list builds = 0
Dangerous builds = 0
WARNING: Using 'neigh_modify every 1 delay 0 check yes' setting during minimization (../min.cpp:187)
Setting up cg style minimization ...
  Unit style    : metal
  Current step  : 0
WARNING: Energy due to 1 extra global DOFs will be included in minimizer energies
Per MPI rank memory allocation (min/avg/max) = 4.333 | 4.333 | 4.333 Mbytes
Step PotEng Lx Ly Lz Press Pxx Pyy Pzz 
       0    -7.514095         4.09         4.09         4.09   -42179.514   -42179.514   -42179.514   -42179.514 
      25   -7.5800861    3.9946025    3.9946025    3.9946025 -0.0054852804 -0.0054852804 -0.0054852804 -0.0054852804 
Loop time of 0.000326157 on 1 procs for 25 steps with 3 atoms

100.3% CPU use with 1 MPI tasks x no OpenMP threads

Minimization stats:
  Stopping criterion = energy tolerance
  Energy initial, next-to-last, final = 
     -7.51409502047313  -7.58008606299938   -7.5800860632165
  Force two-norm initial, final = 5.4035901 6.7031692e-07
  Force max component initial, final = 5.4035901 6.7031692e-07
  Final line search alpha, max atom move = 1.0000000 6.7031692e-07
  Iterations, force evaluations = 25 27

MPI task timing breakdown:
Section |  min time  |  avg time  |  max time  |%varavg| %total
---------------------------------------------------------------
Pair    | 0.00014019 | 0.00014019 | 0.00014019 |   0.0 | 42.98
Neigh   | 0          | 0          | 0          |   0.0 |  0.00
Comm    | 4.3392e-05 | 4.3392e-05 | 4.3392e-05 |   0.0 | 13.30
Output  | 0          | 0          | 0          |   0.0 |  0.00
Modify  | 0          | 0          | 0          |   0.0 |  0.00
Other   |            | 0.0001426  |            |       | 43.71

Nlocal:        3.00000 ave           3 max           3 min
Histogram: 1 0 0 0 0 0 0 0 0 0
Nghost:        297.000 ave         297 max         297 min
Histogram: 1 0 0 0 0 0 0 0 0 0
Neighs:        99.0000 ave          99 max          99 min
Histogram: 1 0 0 0 0 0 0 0 0 0

Total # of neighbors = 99
Ave neighs/atom = 33.000000
Neighbor list builds = 0
Dangerous builds = 0
Total energy (eV) = -7.5800860632165
Number of atoms = 3
Lattice constant (Angstoms) = 3.99460252905929
Total wall time: 0:00:00
