
     Program PWSCF v.7.2 starts on  3Nov2023 at 11:10:10 

     This program is part of the open-source Quantum ESPRESSO suite
     for quantum simulation of materials; please cite
         "P. Giannozzi et al., J. Phys.:Condens. Matter 21 395502 (2009);
         "P. Giannozzi et al., J. Phys.:Condens. Matter 29 465901 (2017);
         "P. Giannozzi et al., J. Chem. Phys. 152 154105 (2020);
          URL http://www.quantum-espresso.org", 
     in publications or presentations arising from this work. More details at
     http://www.quantum-espresso.org/quote

     Parallel version (MPI), running on     8 processors

     MPI processes distributed on     8 nodes
     185418 MiB available memory on the printing compute node when the environment starts

     Waiting for input...
     Reading input from standard input

     Current dimensions of program PWSCF are:
     Max number of different atomic species (ntypx) = 10
     Max number of k-points (npk) =  40000
     Max angular momentum in pseudopotentials (lmaxx) =  4
     Message from routine setup:
     using ibrav=0 with symmetry is DISCOURAGED, use correct ibrav instead

     R & G space division:  proc/nbgrp/npool/nimage =       8
     Subspace diagonalization in iterative solution of the eigenvalue problem:
     a serial algorithm will be used


     Parallelization info
     --------------------
     sticks:   dense  smooth     PW     G-vecs:    dense   smooth      PW
     Min          79      39     13                 1301      461      90
     Max          80      40     14                 1303      463      91
     Sum         637     313    109                10417     3695     725

     Using Slab Decomposition



     bravais-lattice index     =            0
     lattice parameter (alat)  =       5.3450  a.u.
     unit-cell volume          =     107.9734 (a.u.)^3
     number of atoms/cell      =            1
     number of atomic types    =            1
     number of electrons       =        11.00
     number of Kohn-Sham states=           10
     kinetic-energy cutoff     =      40.0000  Ry
     charge density cutoff     =     320.0000  Ry
     scf convergence threshold =      1.0E-07
     mixing beta               =       0.5000
     number of iterations used =            8  plain     mixing
     energy convergence thresh.=      1.0E-04
     force convergence thresh. =      1.0E-03
     press convergence thresh. =      5.0E-01
     Exchange-correlation=  SLA  PZ   NOGX NOGC
                           (   1   1   0   0   0   0   0)
     nstep                     =           50


     celldm(1)=   5.344953  celldm(2)=   0.000000  celldm(3)=   0.000000
     celldm(4)=   0.000000  celldm(5)=   0.000000  celldm(6)=   0.000000

     crystal axes: (cart. coord. in units of alat)
               a(1) = (   0.000000   0.707107   0.707107 )  
               a(2) = (   0.707107   0.000000   0.707107 )  
               a(3) = (   0.707107   0.707107   0.000000 )  

     reciprocal axes: (cart. coord. in units 2 pi/alat)
               b(1) = ( -0.707107  0.707107  0.707107 )  
               b(2) = (  0.707107 -0.707107  0.707107 )  
               b(3) = (  0.707107  0.707107 -0.707107 )  


     PseudoPot. # 1 for Au read from file:
     /home/gridsan/epan1/labutil/lab3_samples/pseudopotentials/Au.pz-d-rrkjus.UPF
     MD5 check sum: 424ffd4ac9c90487cbadcd287136c95b
     Pseudo is Ultrasoft, Zval = 11.0
     Generated by new atomic code, or converted to UPF format
     Using radial grid of 1279 points,  3 beta functions with: 
                l(1) =   2
                l(2) =   2
                l(3) =   1
     Q(r) pseudized with 0 coefficients 


     atomic species   valence    mass     pseudopotential
        Au            11.00   196.96657     Au( 1.00)

     Starting magnetic structure 
     atomic species   magnetization
        Au           0.700

     48 Sym. Ops., with inversion, found



   Cartesian axes

     site n.     atom                  positions (alat units)
         1           Au  tau(   1) = (   0.0000000   0.0000000   0.0000000  )

     number of k points=   104  Methfessel-Paxton smearing, width (Ry)=  0.0200

     Number of k-points >= 100: set verbosity='high' to print them.

     Dense  grid:    10417 G-vectors     FFT dimensions: (  32,  32,  32)

     Smooth grid:     3695 G-vectors     FFT dimensions: (  24,  24,  24)

     Estimated max dynamical RAM per process >       6.46 MB

     Estimated total dynamical RAM >      51.65 MB
     Generating pointlists ...
     new r_m :   0.4125 (alat units)  2.2048 (a.u.) for type    1

     Initial potential from superposition of free atoms

     starting charge      10.9999, renormalised to      11.0000
     Starting wfcs are    9 randomized atomic wfcs +    1 random wfcs

     total cpu time spent up to now is        0.6 secs

     Self-consistent Calculation

     iteration #  1     ecut=    40.00 Ry     beta= 0.50
     Davidson diagonalization with overlap
     ethr =  1.00E-02,  avg # of iterations =  5.4

     total cpu time spent up to now is        1.9 secs

     total energy              =     -66.49120693 Ry
     estimated scf accuracy    <       0.46077618 Ry

     total magnetization       =     1.26 Bohr mag/cell
     absolute magnetization    =     1.31 Bohr mag/cell

     iteration #  2     ecut=    40.00 Ry     beta= 0.50
     Davidson diagonalization with overlap
     ethr =  4.19E-03,  avg # of iterations =  1.4

     total cpu time spent up to now is        2.6 secs

     total energy              =     -66.76851603 Ry
     estimated scf accuracy    <       0.14225972 Ry

     total magnetization       =     0.42 Bohr mag/cell
     absolute magnetization    =     0.53 Bohr mag/cell

     iteration #  3     ecut=    40.00 Ry     beta= 0.50
     Davidson diagonalization with overlap
     ethr =  1.29E-03,  avg # of iterations =  1.1

     total cpu time spent up to now is        3.4 secs

     total energy              =     -66.85844138 Ry
     estimated scf accuracy    <       0.04673853 Ry

     total magnetization       =     0.21 Bohr mag/cell
     absolute magnetization    =     0.34 Bohr mag/cell

     iteration #  4     ecut=    40.00 Ry     beta= 0.50
     Davidson diagonalization with overlap
     ethr =  4.25E-04,  avg # of iterations =  1.6

     total cpu time spent up to now is        4.2 secs

     total energy              =     -66.87147908 Ry
     estimated scf accuracy    <       0.00419700 Ry

     total magnetization       =    -0.03 Bohr mag/cell
     absolute magnetization    =     0.03 Bohr mag/cell

     iteration #  5     ecut=    40.00 Ry     beta= 0.50
     Davidson diagonalization with overlap
     ethr =  3.82E-05,  avg # of iterations =  2.2

     total cpu time spent up to now is        5.1 secs

     total energy              =     -66.87272430 Ry
     estimated scf accuracy    <       0.00019650 Ry

     total magnetization       =    -0.00 Bohr mag/cell
     absolute magnetization    =     0.02 Bohr mag/cell

     iteration #  6     ecut=    40.00 Ry     beta= 0.50
     Davidson diagonalization with overlap
     ethr =  1.79E-06,  avg # of iterations =  2.4

     total cpu time spent up to now is        6.0 secs

     total energy              =     -66.87278842 Ry
     estimated scf accuracy    <       0.00001879 Ry

     total magnetization       =     0.01 Bohr mag/cell
     absolute magnetization    =     0.01 Bohr mag/cell

     iteration #  7     ecut=    40.00 Ry     beta= 0.50
     Davidson diagonalization with overlap
     ethr =  1.71E-07,  avg # of iterations =  1.5

     total cpu time spent up to now is        6.8 secs

     total energy              =     -66.87279634 Ry
     estimated scf accuracy    <       0.00000058 Ry

     total magnetization       =    -0.00 Bohr mag/cell
     absolute magnetization    =     0.00 Bohr mag/cell

     iteration #  8     ecut=    40.00 Ry     beta= 0.50
     Davidson diagonalization with overlap
     ethr =  5.28E-09,  avg # of iterations =  2.0

     total cpu time spent up to now is        7.6 secs

     total energy              =     -66.87279657 Ry
     estimated scf accuracy    <       0.00000012 Ry

     total magnetization       =    -0.00 Bohr mag/cell
     absolute magnetization    =     0.00 Bohr mag/cell

     iteration #  9     ecut=    40.00 Ry     beta= 0.50
     Davidson diagonalization with overlap
     ethr =  1.11E-09,  avg # of iterations =  1.5

     Magnetic moment per site  (integrated on atomic sphere of radius R)
     atom   1 (R=0.413)  charge=  9.2963  magn= -0.0000

     total cpu time spent up to now is        8.4 secs

     End of self-consistent calculation

     Number of k-points >= 100: set verbosity='high' to print the bands.

     the Fermi energy is    17.0479 ev

!    total energy              =     -66.87279660 Ry
     estimated scf accuracy    <          5.2E-10 Ry
     smearing contrib. (-TS)   =       0.00000558 Ry
     internal energy E=F+TS    =     -66.87280218 Ry

     The total energy is F=E-TS. E is the sum of the following terms:
     one-electron contribution =      10.18357034 Ry
     hartree contribution      =       6.83045034 Ry
     xc contribution           =     -10.49413599 Ry
     ewald contribution        =     -73.39268687 Ry

     total magnetization       =    -0.00 Bohr mag/cell
     absolute magnetization    =     0.00 Bohr mag/cell

     convergence has been achieved in   9 iterations

     Forces acting on atoms (cartesian axes, Ry/au):

     atom    1 type  1   force =     0.00000000    0.00000000    0.00000000
     The non-local contrib.  to forces
     atom    1 type  1   force =     0.00000000    0.00000000   -0.00000000
     The ionic contribution  to forces
     atom    1 type  1   force =    -0.00000000   -0.00000000   -0.00000000
     The local contribution  to forces
     atom    1 type  1   force =     0.00000000    0.00000000    0.00000000
     The core correction contribution to forces
     atom    1 type  1   force =     0.00000000    0.00000000    0.00000000
     The Hubbard contrib.    to forces
     atom    1 type  1   force =     0.00000000    0.00000000    0.00000000
     The SCF correction term to forces
     atom    1 type  1   force =     0.00000000    0.00000000    0.00000000

     Total force =     0.000000     Total SCF correction =     0.000000


     Computing stress (Cartesian axis) and pressure

          total   stress  (Ry/bohr**3)                   (kbar)     P=       75.39
   0.00051250   0.00000000   0.00000000           75.39        0.00        0.00
   0.00000000   0.00051250   0.00000000            0.00       75.39        0.00
   0.00000000   0.00000000   0.00051250            0.00        0.00       75.39


     BFGS Geometry Optimization
     Energy error            =      0.0E+00 Ry
     Gradient error          =      0.0E+00 Ry/Bohr
     Cell gradient error     =      7.5E+01 kbar

     number of scf cycles    =   1
     number of bfgs steps    =   0

     enthalpy           new  =     -66.8727965966 Ry

     new trust radius        =       0.0266270901 bohr
     new conv_thr            =       0.0000001000 Ry

     new unit-cell volume =    112.17699 a.u.^3 (    16.62292 Ang^3 )
     density =     19.67589 g/cm^3

CELL_PARAMETERS (angstrom)
   0.000000000   2.025625091   2.025625091
   2.025625091   0.000000000   2.025625091
   2.025625091   2.025625091   0.000000000

ATOMIC_POSITIONS (angstrom)
Au            0.0000000000        0.0000000000        0.0000000000



     Writing config-only to output data dir /home/gridsan/epan1/labutil/lab3_samples/problem3/Lab3/Au_a_4.0_ecut_40_nk_14/pwscf.save/
     NEW-OLD atomic charge density approx. for the potential
     extrapolated charge   11.41220, renormalised to   11.00000
     Generating pointlists ...

     total cpu time spent up to now is        8.8 secs

     Self-consistent Calculation

     iteration #  1     ecut=    40.00 Ry     beta= 0.50
     Davidson diagonalization with overlap
     ethr =  1.00E-06,  avg # of iterations =  3.5

     total cpu time spent up to now is       10.7 secs

     total energy              =     -66.84603809 Ry
     estimated scf accuracy    <       0.02344353 Ry

     total magnetization       =    -0.00 Bohr mag/cell
     absolute magnetization    =     0.00 Bohr mag/cell

     iteration #  2     ecut=    40.00 Ry     beta= 0.50
     Davidson diagonalization with overlap
     ethr =  2.13E-04,  avg # of iterations =  2.0

     total cpu time spent up to now is       11.7 secs

     total energy              =     -66.87434297 Ry
     estimated scf accuracy    <       0.02843535 Ry

     total magnetization       =    -0.00 Bohr mag/cell
     absolute magnetization    =     0.00 Bohr mag/cell

     iteration #  3     ecut=    40.00 Ry     beta= 0.50
     Davidson diagonalization with overlap
     ethr =  2.13E-04,  avg # of iterations =  1.0

     total cpu time spent up to now is       12.5 secs

     total energy              =     -66.87369142 Ry
     estimated scf accuracy    <       0.00622307 Ry

     total magnetization       =    -0.00 Bohr mag/cell
     absolute magnetization    =     0.00 Bohr mag/cell

     iteration #  4     ecut=    40.00 Ry     beta= 0.50
     Davidson diagonalization with overlap
     ethr =  5.66E-05,  avg # of iterations =  1.0

     total cpu time spent up to now is       13.2 secs

     total energy              =     -66.87405879 Ry
     estimated scf accuracy    <       0.00107167 Ry

     total magnetization       =    -0.00 Bohr mag/cell
     absolute magnetization    =     0.00 Bohr mag/cell

     iteration #  5     ecut=    40.00 Ry     beta= 0.50
     Davidson diagonalization with overlap
     ethr =  9.74E-06,  avg # of iterations =  1.0

     total cpu time spent up to now is       14.0 secs

     total energy              =     -66.87510242 Ry
     estimated scf accuracy    <       0.00091684 Ry

     total magnetization       =    -0.00 Bohr mag/cell
     absolute magnetization    =     0.00 Bohr mag/cell

     iteration #  6     ecut=    40.00 Ry     beta= 0.50
     Davidson diagonalization with overlap
     ethr =  8.33E-06,  avg # of iterations =  2.0

     total cpu time spent up to now is       14.9 secs

     total energy              =     -66.87423802 Ry
     estimated scf accuracy    <       0.00467098 Ry

     total magnetization       =    -0.00 Bohr mag/cell
     absolute magnetization    =     0.00 Bohr mag/cell

     iteration #  7     ecut=    40.00 Ry     beta= 0.50
     Davidson diagonalization with overlap
     ethr =  8.33E-06,  avg # of iterations =  1.6

     total cpu time spent up to now is       15.7 secs

     total energy              =     -66.87334805 Ry
     estimated scf accuracy    <       0.00189446 Ry

     total magnetization       =    -0.00 Bohr mag/cell
     absolute magnetization    =     0.00 Bohr mag/cell

     iteration #  8     ecut=    40.00 Ry     beta= 0.50
     Davidson diagonalization with overlap
     ethr =  8.33E-06,  avg # of iterations =  2.0

     total cpu time spent up to now is       16.7 secs

     total energy              =     -66.87374815 Ry
     estimated scf accuracy    <       0.00003533 Ry

     total magnetization       =     0.00 Bohr mag/cell
     absolute magnetization    =     0.00 Bohr mag/cell

     iteration #  9     ecut=    40.00 Ry     beta= 0.50
     Davidson diagonalization with overlap
     ethr =  3.21E-07,  avg # of iterations =  1.0

     total cpu time spent up to now is       17.5 secs

     total energy              =     -66.87374429 Ry
     estimated scf accuracy    <       0.00001837 Ry

     total magnetization       =     0.00 Bohr mag/cell
     absolute magnetization    =     0.00 Bohr mag/cell

     iteration # 10     ecut=    40.00 Ry     beta= 0.50
     Davidson diagonalization with overlap
     ethr =  1.67E-07,  avg # of iterations =  1.0

     total cpu time spent up to now is       18.2 secs

     total energy              =     -66.87374295 Ry
     estimated scf accuracy    <       0.00000411 Ry

     total magnetization       =     0.00 Bohr mag/cell
     absolute magnetization    =     0.00 Bohr mag/cell

     iteration # 11     ecut=    40.00 Ry     beta= 0.50
     Davidson diagonalization with overlap
     ethr =  3.74E-08,  avg # of iterations =  1.0

     total cpu time spent up to now is       19.0 secs

     total energy              =     -66.87374368 Ry
     estimated scf accuracy    <       0.00000036 Ry

     total magnetization       =    -0.00 Bohr mag/cell
     absolute magnetization    =     0.00 Bohr mag/cell

     iteration # 12     ecut=    40.00 Ry     beta= 0.50
     Davidson diagonalization with overlap
     ethr =  3.25E-09,  avg # of iterations =  2.0

     total cpu time spent up to now is       19.9 secs

     total energy              =     -66.87374292 Ry
     estimated scf accuracy    <       0.00000204 Ry

     total magnetization       =     0.00 Bohr mag/cell
     absolute magnetization    =     0.00 Bohr mag/cell

     iteration # 13     ecut=    40.00 Ry     beta= 0.50
     Davidson diagonalization with overlap
     ethr =  3.25E-09,  avg # of iterations =  2.0

     total cpu time spent up to now is       22.1 secs

     total energy              =     -66.87374310 Ry
     estimated scf accuracy    <       0.00000010 Ry

     total magnetization       =    -0.00 Bohr mag/cell
     absolute magnetization    =     0.00 Bohr mag/cell

     iteration # 14     ecut=    40.00 Ry     beta= 0.50
     Davidson diagonalization with overlap
     ethr =  9.54E-10,  avg # of iterations =  1.0

     Magnetic moment per site  (integrated on atomic sphere of radius R)
     atom   1 (R=0.413)  charge=  9.2466  magn= -0.0000

     total cpu time spent up to now is       23.0 secs

     End of self-consistent calculation

     Number of k-points >= 100: set verbosity='high' to print the bands.

     the Fermi energy is    16.0951 ev

!    total energy              =     -66.87374311 Ry
     estimated scf accuracy    <          3.3E-09 Ry
     smearing contrib. (-TS)   =       0.00000025 Ry
     internal energy E=F+TS    =     -66.87374336 Ry

     The total energy is F=E-TS. E is the sum of the following terms:
     one-electron contribution =       8.88950466 Ry
     hartree contribution      =       7.16057507 Ry
     xc contribution           =     -10.45958753 Ry
     ewald contribution        =     -72.46423556 Ry

     total magnetization       =    -0.00 Bohr mag/cell
     absolute magnetization    =     0.00 Bohr mag/cell

     convergence has been achieved in  14 iterations

     Forces acting on atoms (cartesian axes, Ry/au):

     atom    1 type  1   force =     0.00000000    0.00000000    0.00000000
     The non-local contrib.  to forces
     atom    1 type  1   force =     0.00000000    0.00000000   -0.00000000
     The ionic contribution  to forces
     atom    1 type  1   force =    -0.00000000   -0.00000000   -0.00000000
     The local contribution  to forces
     atom    1 type  1   force =     0.00000000    0.00000000    0.00000000
     The core correction contribution to forces
     atom    1 type  1   force =     0.00000000    0.00000000    0.00000000
     The Hubbard contrib.    to forces
     atom    1 type  1   force =     0.00000000    0.00000000    0.00000000
     The SCF correction term to forces
     atom    1 type  1   force =     0.00000000    0.00000000    0.00000000

     Total force =     0.000000     Total SCF correction =     0.000000


     Computing stress (Cartesian axis) and pressure

          total   stress  (Ry/bohr**3)                   (kbar)     P=       -6.21
  -0.00004223  -0.00000000   0.00000000           -6.21       -0.00        0.00
  -0.00000000  -0.00004223  -0.00000000           -0.00       -6.21       -0.00
  -0.00000000  -0.00000000  -0.00004223           -0.00       -0.00       -6.21

     Energy error            =      9.5E-04 Ry
     Gradient error          =      0.0E+00 Ry/Bohr
     Cell gradient error     =      6.2E+00 kbar

     number of scf cycles    =   2
     number of bfgs steps    =   1

     enthalpy           old  =     -66.8727965966 Ry
     enthalpy           new  =     -66.8737431093 Ry

     CASE: enthalpy          _new < enthalpy          _old

     new trust radius        =       0.0020885009 bohr
     new conv_thr            =       0.0000000010 Ry

     new unit-cell volume =    111.84552 a.u.^3 (    16.57380 Ang^3 )
     density =     19.73420 g/cm^3

CELL_PARAMETERS (angstrom)
   0.000000000   2.023627936   2.023627936
   2.023627936   0.000000000   2.023627936
   2.023627936   2.023627936   0.000000000

ATOMIC_POSITIONS (angstrom)
Au            0.0000000000        0.0000000000        0.0000000000



     Writing config-only to output data dir /home/gridsan/epan1/labutil/lab3_samples/problem3/Lab3/Au_a_4.0_ecut_40_nk_14/pwscf.save/
     NEW-OLD atomic charge density approx. for the potential
     extrapolated charge   10.96740, renormalised to   11.00000
     Generating pointlists ...

     total cpu time spent up to now is       23.9 secs

     Self-consistent Calculation

     iteration #  1     ecut=    40.00 Ry     beta= 0.50
     Davidson diagonalization with overlap
     ethr =  1.00E-06,  avg # of iterations =  2.0

     total cpu time spent up to now is       24.9 secs

     total energy              =     -66.87357416 Ry
     estimated scf accuracy    <       0.00015593 Ry

     total magnetization       =     0.00 Bohr mag/cell
     absolute magnetization    =     0.00 Bohr mag/cell

     iteration #  2     ecut=    40.00 Ry     beta= 0.50
     Davidson diagonalization with overlap
     ethr =  1.42E-06,  avg # of iterations =  2.0

     total cpu time spent up to now is       25.9 secs

     total energy              =     -66.87375219 Ry
     estimated scf accuracy    <       0.00017082 Ry

     total magnetization       =    -0.00 Bohr mag/cell
     absolute magnetization    =     0.00 Bohr mag/cell

     iteration #  3     ecut=    40.00 Ry     beta= 0.50
     Davidson diagonalization with overlap
     ethr =  1.42E-06,  avg # of iterations =  1.0

     total cpu time spent up to now is       26.6 secs

     total energy              =     -66.87375100 Ry
     estimated scf accuracy    <       0.00003549 Ry

     total magnetization       =     0.00 Bohr mag/cell
     absolute magnetization    =     0.00 Bohr mag/cell

     iteration #  4     ecut=    40.00 Ry     beta= 0.50
     Davidson diagonalization with overlap
     ethr =  3.23E-07,  avg # of iterations =  1.0

     total cpu time spent up to now is       27.4 secs

     total energy              =     -66.87375167 Ry
     estimated scf accuracy    <       0.00000891 Ry

     total magnetization       =    -0.00 Bohr mag/cell
     absolute magnetization    =     0.00 Bohr mag/cell

     iteration #  5     ecut=    40.00 Ry     beta= 0.50
     Davidson diagonalization with overlap
     ethr =  8.10E-08,  avg # of iterations =  1.0

     total cpu time spent up to now is       28.1 secs

     total energy              =     -66.87374893 Ry
     estimated scf accuracy    <       0.00000590 Ry

     total magnetization       =    -0.00 Bohr mag/cell
     absolute magnetization    =     0.00 Bohr mag/cell

     iteration #  6     ecut=    40.00 Ry     beta= 0.50
     Davidson diagonalization with overlap
     ethr =  5.37E-08,  avg # of iterations =  1.2

     total cpu time spent up to now is       28.9 secs

     total energy              =     -66.87374966 Ry
     estimated scf accuracy    <       0.00000019 Ry

     total magnetization       =    -0.00 Bohr mag/cell
     absolute magnetization    =     0.00 Bohr mag/cell

     iteration #  7     ecut=    40.00 Ry     beta= 0.50
     Davidson diagonalization with overlap
     ethr =  1.72E-09,  avg # of iterations =  1.1

     total cpu time spent up to now is       29.7 secs

     total energy              =     -66.87374965 Ry
     estimated scf accuracy    <       0.00000006 Ry

     total magnetization       =    -0.00 Bohr mag/cell
     absolute magnetization    =     0.00 Bohr mag/cell

     iteration #  8     ecut=    40.00 Ry     beta= 0.50
     Davidson diagonalization with overlap
     ethr =  5.05E-10,  avg # of iterations =  2.0

     Magnetic moment per site  (integrated on atomic sphere of radius R)
     atom   1 (R=0.413)  charge=  9.2503  magn= -0.0000

     total cpu time spent up to now is       30.6 secs

     End of self-consistent calculation

     Number of k-points >= 100: set verbosity='high' to print the bands.

     the Fermi energy is    16.1672 ev

!    total energy              =     -66.87374966 Ry
     estimated scf accuracy    <          4.9E-10 Ry
     smearing contrib. (-TS)   =       0.00000135 Ry
     internal energy E=F+TS    =     -66.87375101 Ry

     The total energy is F=E-TS. E is the sum of the following terms:
     one-electron contribution =       8.98939909 Ry
     hartree contribution      =       7.13480611 Ry
     xc contribution           =     -10.46220438 Ry
     ewald contribution        =     -72.53575183 Ry

     total magnetization       =    -0.00 Bohr mag/cell
     absolute magnetization    =     0.00 Bohr mag/cell

     convergence has been achieved in   8 iterations

     Forces acting on atoms (cartesian axes, Ry/au):

     atom    1 type  1   force =     0.00000000    0.00000000    0.00000000
     The non-local contrib.  to forces
     atom    1 type  1   force =     0.00000000    0.00000000   -0.00000000
     The ionic contribution  to forces
     atom    1 type  1   force =    -0.00000000   -0.00000000   -0.00000000
     The local contribution  to forces
     atom    1 type  1   force =     0.00000000    0.00000000    0.00000000
     The core correction contribution to forces
     atom    1 type  1   force =     0.00000000    0.00000000    0.00000000
     The Hubbard contrib.    to forces
     atom    1 type  1   force =     0.00000000    0.00000000    0.00000000
     The SCF correction term to forces
     atom    1 type  1   force =     0.00000000    0.00000000    0.00000000

     Total force =     0.000000     Total SCF correction =     0.000000


     Computing stress (Cartesian axis) and pressure

          total   stress  (Ry/bohr**3)                   (kbar)     P=       -0.13
  -0.00000085   0.00000000   0.00000000           -0.13        0.00        0.00
   0.00000000  -0.00000085   0.00000000            0.00       -0.13        0.00
   0.00000000   0.00000000  -0.00000085            0.00        0.00       -0.13

     Energy error            =      6.6E-06 Ry
     Gradient error          =      0.0E+00 Ry/Bohr
     Cell gradient error     =      1.3E-01 kbar
Begin final coordinates
     new unit-cell volume =    111.84552 a.u.^3 (    16.57380 Ang^3 )
     density =     19.73420 g/cm^3

CELL_PARAMETERS (angstrom)
   0.000000000   2.023627936   2.023627936
   2.023627936   0.000000000   2.023627936
   2.023627936   2.023627936   0.000000000

ATOMIC_POSITIONS (angstrom)
Au            0.0000000000        0.0000000000        0.0000000000
End final coordinates



     Writing config-only to output data dir /home/gridsan/epan1/labutil/lab3_samples/problem3/Lab3/Au_a_4.0_ecut_40_nk_14/pwscf.save/

     lsda relaxation :  a final configuration with zero
                        absolute magnetization has been found

     the program is checking if it is really the minimum energy structure
     by performing a new scf iteration without any "electronic" history

     Initial potential from superposition of free atoms

     starting charge      10.9999, renormalised to      11.0000

     total cpu time spent up to now is       30.9 secs

     Self-consistent Calculation

     iteration #  1     ecut=    40.00 Ry     beta= 0.50
     Davidson diagonalization with overlap
     ethr =  1.00E-06,  avg # of iterations =  3.8

     total cpu time spent up to now is       32.2 secs

     total energy              =     -66.48318448 Ry
     estimated scf accuracy    <       0.46864035 Ry

     total magnetization       =     1.30 Bohr mag/cell
     absolute magnetization    =     1.35 Bohr mag/cell

     iteration #  2     ecut=    40.00 Ry     beta= 0.50
     Davidson diagonalization with overlap
     ethr =  4.26E-03,  avg # of iterations =  1.5

     total cpu time spent up to now is       33.1 secs

     total energy              =     -66.76431900 Ry
     estimated scf accuracy    <       0.14963017 Ry

     total magnetization       =     0.42 Bohr mag/cell
     absolute magnetization    =     0.53 Bohr mag/cell

     iteration #  3     ecut=    40.00 Ry     beta= 0.50
     Davidson diagonalization with overlap
     ethr =  1.36E-03,  avg # of iterations =  1.0

     total cpu time spent up to now is       33.8 secs

     total energy              =     -66.85794304 Ry
     estimated scf accuracy    <       0.04925793 Ry

     total magnetization       =     0.22 Bohr mag/cell
     absolute magnetization    =     0.36 Bohr mag/cell

     iteration #  4     ecut=    40.00 Ry     beta= 0.50
     Davidson diagonalization with overlap
     ethr =  4.48E-04,  avg # of iterations =  1.5

     total cpu time spent up to now is       34.7 secs

     total energy              =     -66.87221439 Ry
     estimated scf accuracy    <       0.00516134 Ry

     total magnetization       =    -0.03 Bohr mag/cell
     absolute magnetization    =     0.04 Bohr mag/cell

     iteration #  5     ecut=    40.00 Ry     beta= 0.50
     Davidson diagonalization with overlap
     ethr =  4.69E-05,  avg # of iterations =  2.0

     total cpu time spent up to now is       35.5 secs

     total energy              =     -66.87367276 Ry
     estimated scf accuracy    <       0.00017335 Ry

     total magnetization       =    -0.00 Bohr mag/cell
     absolute magnetization    =     0.03 Bohr mag/cell

     iteration #  6     ecut=    40.00 Ry     beta= 0.50
     Davidson diagonalization with overlap
     ethr =  1.58E-06,  avg # of iterations =  1.8

     total cpu time spent up to now is       36.4 secs

     total energy              =     -66.87373896 Ry
     estimated scf accuracy    <       0.00002558 Ry

     total magnetization       =     0.01 Bohr mag/cell
     absolute magnetization    =     0.01 Bohr mag/cell

     iteration #  7     ecut=    40.00 Ry     beta= 0.50
     Davidson diagonalization with overlap
     ethr =  2.33E-07,  avg # of iterations =  1.5

     total cpu time spent up to now is       37.3 secs

     total energy              =     -66.87374941 Ry
     estimated scf accuracy    <       0.00000048 Ry

     total magnetization       =    -0.00 Bohr mag/cell
     absolute magnetization    =     0.00 Bohr mag/cell

     iteration #  8     ecut=    40.00 Ry     beta= 0.50
     Davidson diagonalization with overlap
     ethr =  4.34E-09,  avg # of iterations =  1.6

     total cpu time spent up to now is       38.1 secs

     total energy              =     -66.87374963 Ry
     estimated scf accuracy    <       0.00000012 Ry

     total magnetization       =    -0.00 Bohr mag/cell
     absolute magnetization    =     0.00 Bohr mag/cell

     iteration #  9     ecut=    40.00 Ry     beta= 0.50
     Davidson diagonalization with overlap
     ethr =  1.07E-09,  avg # of iterations =  1.5

     Magnetic moment per site  (integrated on atomic sphere of radius R)
     atom   1 (R=0.413)  charge=  9.2503  magn= -0.0000

     total cpu time spent up to now is       39.0 secs

     End of self-consistent calculation

     Number of k-points >= 100: set verbosity='high' to print the bands.

     the Fermi energy is    16.1671 ev

!    total energy              =     -66.87374966 Ry
     estimated scf accuracy    <          6.9E-10 Ry
     smearing contrib. (-TS)   =       0.00000135 Ry
     internal energy E=F+TS    =     -66.87375101 Ry

     The total energy is F=E-TS. E is the sum of the following terms:
     one-electron contribution =       8.98932836 Ry
     hartree contribution      =       7.13489852 Ry
     xc contribution           =     -10.46222606 Ry
     ewald contribution        =     -72.53575183 Ry

     total magnetization       =    -0.00 Bohr mag/cell
     absolute magnetization    =     0.00 Bohr mag/cell

     convergence has been achieved in   9 iterations

     Forces acting on atoms (cartesian axes, Ry/au):

     atom    1 type  1   force =     0.00000000    0.00000000    0.00000000
     The non-local contrib.  to forces
     atom    1 type  1   force =    -0.00000000   -0.00000000    0.00000000
     The ionic contribution  to forces
     atom    1 type  1   force =    -0.00000000   -0.00000000   -0.00000000
     The local contribution  to forces
     atom    1 type  1   force =     0.00000000    0.00000000    0.00000000
     The core correction contribution to forces
     atom    1 type  1   force =     0.00000000    0.00000000    0.00000000
     The Hubbard contrib.    to forces
     atom    1 type  1   force =     0.00000000    0.00000000    0.00000000
     The SCF correction term to forces
     atom    1 type  1   force =     0.00000000    0.00000000    0.00000000

     Total force =     0.000000     Total SCF correction =     0.000000


     Computing stress (Cartesian axis) and pressure

          total   stress  (Ry/bohr**3)                   (kbar)     P=        0.15
   0.00000105  -0.00000000  -0.00000000            0.15       -0.00       -0.00
  -0.00000000   0.00000105  -0.00000000           -0.00        0.15       -0.00
  -0.00000000  -0.00000000   0.00000105           -0.00       -0.00        0.15

     Energy error            =      6.6E-06 Ry
     Gradient error          =      0.0E+00 Ry/Bohr
     Cell gradient error     =      1.5E-01 kbar

     bfgs converged in   3 scf cycles and   2 bfgs steps
     (criteria: energy <  1.0E-04 Ry, force <  1.0E-03 Ry/Bohr, cell <  5.0E-01 kbar)

     End of BFGS Geometry Optimization

     Final enthalpy           =     -66.8737496594 Ry

     File /home/gridsan/epan1/labutil/lab3_samples/problem3/Lab3/Au_a_4.0_ecut_40_nk_14/pwscf.bfgs deleted, as requested
Begin final coordinates
     new unit-cell volume =    111.84552 a.u.^3 (    16.57380 Ang^3 )
     density =     19.73420 g/cm^3

CELL_PARAMETERS (angstrom)
   0.000000000   2.023627936   2.023627936
   2.023627936   0.000000000   2.023627936
   2.023627936   2.023627936   0.000000000

ATOMIC_POSITIONS (angstrom)
Au            0.0000000000        0.0000000000        0.0000000000
End final coordinates



     Writing config-only to output data dir /home/gridsan/epan1/labutil/lab3_samples/problem3/Lab3/Au_a_4.0_ecut_40_nk_14/pwscf.save/

     Final scf calculation at the relaxed structure.
     The G-vectors are recalculated for the final unit cell
     Results may differ from those at the preceding step.

     Parallelization info
     --------------------
     sticks:   dense  smooth     PW     G-vecs:    dense   smooth      PW
     Min          81      39     13                 1355      479      92
     Max          82      40     14                 1358      484      95
     Sum         649     313    109                10849     3839     749

     Using Slab Decomposition



     bravais-lattice index     =            0
     lattice parameter (alat)  =       5.3450  a.u.
     unit-cell volume          =     111.8455 (a.u.)^3
     number of atoms/cell      =            1
     number of atomic types    =            1
     number of electrons       =        11.00
     number of Kohn-Sham states=           10
     kinetic-energy cutoff     =      40.0000  Ry
     charge density cutoff     =     320.0000  Ry
     scf convergence threshold =      1.0E-09
     mixing beta               =       0.5000
     number of iterations used =            8  plain     mixing
     press convergence thresh. =      5.0E-01
     Exchange-correlation=  SLA  PZ   NOGX NOGC
                           (   1   1   0   0   0   0   0)

     celldm(1)=   5.344953  celldm(2)=   0.000000  celldm(3)=   0.000000
     celldm(4)=   0.000000  celldm(5)=   0.000000  celldm(6)=   0.000000

     crystal axes: (cart. coord. in units of alat)
               a(1) = (   0.000000   0.715461   0.715461 )  
               a(2) = (   0.715461   0.000000   0.715461 )  
               a(3) = (   0.715461   0.715461   0.000000 )  

     reciprocal axes: (cart. coord. in units 2 pi/alat)
               b(1) = ( -0.698851  0.698851  0.698851 )  
               b(2) = (  0.698851 -0.698851  0.698851 )  
               b(3) = (  0.698851  0.698851 -0.698851 )  


     PseudoPot. # 1 for Au read from file:
     /home/gridsan/epan1/labutil/lab3_samples/pseudopotentials/Au.pz-d-rrkjus.UPF
     MD5 check sum: 424ffd4ac9c90487cbadcd287136c95b
     Pseudo is Ultrasoft, Zval = 11.0
     Generated by new atomic code, or converted to UPF format
     Using radial grid of 1279 points,  3 beta functions with: 
                l(1) =   2
                l(2) =   2
                l(3) =   1
     Q(r) pseudized with 0 coefficients 


     atomic species   valence    mass     pseudopotential
        Au            11.00   196.96657     Au( 1.00)

     Starting magnetic structure 
     atomic species   magnetization
        Au          -0.000

     48 Sym. Ops., with inversion, found



   Cartesian axes

     site n.     atom                  positions (alat units)
         1           Au  tau(   1) = (   0.0000000   0.0000000   0.0000000  )

     number of k points=   104  Methfessel-Paxton smearing, width (Ry)=  0.0200

     Number of k-points >= 100: set verbosity='high' to print them.

     Dense  grid:    10849 G-vectors     FFT dimensions: (  32,  32,  32)

     Smooth grid:     3839 G-vectors     FFT dimensions: (  24,  24,  24)

     Estimated max dynamical RAM per process >       6.67 MB

     Estimated total dynamical RAM >      53.33 MB
     Generating pointlists ...

     Initial potential from superposition of free atoms

     starting charge      10.9999, renormalised to      11.0000
     Starting wfcs are    9 randomized atomic wfcs +    1 random wfcs

     total cpu time spent up to now is       40.4 secs

     Self-consistent Calculation

     iteration #  1     ecut=    40.00 Ry     beta= 0.50
     Davidson diagonalization with overlap
     c_bands:  1 eigenvalues not converged
     c_bands:  1 eigenvalues not converged
     c_bands:  1 eigenvalues not converged
     c_bands:  1 eigenvalues not converged
     ethr =  1.00E-06,  avg # of iterations = 12.0

     total cpu time spent up to now is       42.9 secs

     total energy              =     -66.85512238 Ry
     estimated scf accuracy    <       0.07811466 Ry

     total magnetization       =    -0.00 Bohr mag/cell
     absolute magnetization    =     0.00 Bohr mag/cell

     iteration #  2     ecut=    40.00 Ry     beta= 0.50
     Davidson diagonalization with overlap
     ethr =  7.10E-04,  avg # of iterations =  2.0

     total cpu time spent up to now is       43.8 secs

     total energy              =     -66.87348504 Ry
     estimated scf accuracy    <       0.00187035 Ry

     total magnetization       =    -0.00 Bohr mag/cell
     absolute magnetization    =     0.00 Bohr mag/cell

     iteration #  3     ecut=    40.00 Ry     beta= 0.50
     Davidson diagonalization with overlap
     ethr =  1.70E-05,  avg # of iterations =  1.6

     total cpu time spent up to now is       44.7 secs

     total energy              =     -66.87377707 Ry
     estimated scf accuracy    <       0.00012188 Ry

     total magnetization       =    -0.00 Bohr mag/cell
     absolute magnetization    =     0.00 Bohr mag/cell

     iteration #  4     ecut=    40.00 Ry     beta= 0.50
     Davidson diagonalization with overlap
     ethr =  1.11E-06,  avg # of iterations =  1.5

     total cpu time spent up to now is       45.5 secs

     total energy              =     -66.87377863 Ry
     estimated scf accuracy    <       0.00000245 Ry

     total magnetization       =    -0.00 Bohr mag/cell
     absolute magnetization    =     0.00 Bohr mag/cell

     iteration #  5     ecut=    40.00 Ry     beta= 0.50
     Davidson diagonalization with overlap
     ethr =  2.23E-08,  avg # of iterations =  1.1

     total cpu time spent up to now is       46.3 secs

     total energy              =     -66.87377899 Ry
     estimated scf accuracy    <       0.00000006 Ry

     total magnetization       =    -0.00 Bohr mag/cell
     absolute magnetization    =     0.00 Bohr mag/cell

     iteration #  6     ecut=    40.00 Ry     beta= 0.50
     Davidson diagonalization with overlap
     ethr =  5.39E-10,  avg # of iterations =  1.2

     Magnetic moment per site  (integrated on atomic sphere of radius R)
     atom   1 (R=0.413)  charge=  9.2503  magn= -0.0000

     total cpu time spent up to now is       47.0 secs

     End of self-consistent calculation

     Number of k-points >= 100: set verbosity='high' to print the bands.

     the Fermi energy is    16.1670 ev

!    total energy              =     -66.87377899 Ry
     estimated scf accuracy    <          5.6E-10 Ry
     smearing contrib. (-TS)   =       0.00000137 Ry
     internal energy E=F+TS    =     -66.87378036 Ry

     The total energy is F=E-TS. E is the sum of the following terms:
     one-electron contribution =       8.98936210 Ry
     hartree contribution      =       7.13479523 Ry
     xc contribution           =     -10.46218585 Ry
     ewald contribution        =     -72.53575183 Ry

     total magnetization       =    -0.00 Bohr mag/cell
     absolute magnetization    =     0.00 Bohr mag/cell

     convergence has been achieved in   6 iterations

     Forces acting on atoms (cartesian axes, Ry/au):

     atom    1 type  1   force =     0.00000000    0.00000000    0.00000000
     The non-local contrib.  to forces
     atom    1 type  1   force =     0.00000000    0.00000000    0.00000000
     The ionic contribution  to forces
     atom    1 type  1   force =    -0.00000000   -0.00000000   -0.00000000
     The local contribution  to forces
     atom    1 type  1   force =     0.00000000    0.00000000    0.00000000
     The core correction contribution to forces
     atom    1 type  1   force =     0.00000000    0.00000000    0.00000000
     The Hubbard contrib.    to forces
     atom    1 type  1   force =     0.00000000    0.00000000    0.00000000
     The SCF correction term to forces
     atom    1 type  1   force =     0.00000000    0.00000000    0.00000000

     Total force =     0.000000     Total SCF correction =     0.000000


     Computing stress (Cartesian axis) and pressure

          total   stress  (Ry/bohr**3)                   (kbar)     P=       -0.02
  -0.00000014  -0.00000000  -0.00000000           -0.02       -0.00       -0.00
  -0.00000000  -0.00000014  -0.00000000           -0.00       -0.02       -0.00
   0.00000000  -0.00000000  -0.00000014            0.00       -0.00       -0.02


     init_run     :      0.90s CPU      1.42s WALL (       2 calls)
     electrons    :     42.21s CPU     43.46s WALL (       5 calls)
     update_pot   :      0.16s CPU      0.17s WALL (       2 calls)
     forces       :      0.35s CPU      0.43s WALL (       5 calls)
     stress       :      1.08s CPU      1.13s WALL (       5 calls)

     Called by init_run:
     wfcinit      :      0.35s CPU      0.54s WALL (       2 calls)
     potinit      :      0.19s CPU      0.19s WALL (       3 calls)
     hinit0       :      0.35s CPU      0.39s WALL (       2 calls)

     Called by electrons:
     c_bands      :     36.53s CPU     37.46s WALL (      46 calls)
     sum_band     :      5.28s CPU      5.18s WALL (      46 calls)
     v_of_rho     :      0.12s CPU      0.16s WALL (      51 calls)
     newd         :      0.17s CPU      0.18s WALL (      51 calls)
     mix_rho      :      0.06s CPU      0.15s WALL (      46 calls)

     Called by c_bands:
     init_us_2    :      0.67s CPU      0.67s WALL (   21632 calls)
     init_us_2:cp :      0.63s CPU      0.63s WALL (   21632 calls)
     cegterg      :     31.14s CPU     29.41s WALL (    9568 calls)

     Called by *egterg:
     cdiaghg      :      5.37s CPU      5.03s WALL (   27265 calls)
     h_psi        :     21.38s CPU     20.24s WALL (   28305 calls)
     s_psi        :      0.24s CPU      0.23s WALL (   28305 calls)
     g_psi        :      0.08s CPU      0.08s WALL (   18321 calls)

     Called by h_psi:
     h_psi:calbec :      1.35s CPU      1.28s WALL (   28305 calls)
     vloc_psi     :     19.59s CPU     18.54s WALL (   28305 calls)
     add_vuspsi   :      0.26s CPU      0.24s WALL (   28305 calls)

     General routines
     calbec       :      1.97s CPU      1.89s WALL (   43073 calls)
     fft          :      0.15s CPU      0.15s WALL (     567 calls)
     ffts         :      0.15s CPU      0.15s WALL (     194 calls)
     fftw         :     20.70s CPU     19.48s WALL (  563380 calls)
     interpolate  :      0.13s CPU      0.13s WALL (     102 calls)

     Parallel routines

     PWSCF        :     45.03s CPU     47.35s WALL


   This run was terminated on:  11:10:57   3Nov2023            

=------------------------------------------------------------------------------=
   JOB DONE.
=------------------------------------------------------------------------------=
