
     Program PWSCF v.7.2 starts on 10Oct2023 at 16:39:31 

     This program is part of the open-source Quantum ESPRESSO suite
     for quantum simulation of materials; please cite
         "P. Giannozzi et al., J. Phys.:Condens. Matter 21 395502 (2009);
         "P. Giannozzi et al., J. Phys.:Condens. Matter 29 465901 (2017);
         "P. Giannozzi et al., J. Chem. Phys. 152 154105 (2020);
          URL http://www.quantum-espresso.org", 
     in publications or presentations arising from this work. More details at
     http://www.quantum-espresso.org/quote

     Parallel version (MPI), running on     1 processors

     MPI processes distributed on     1 nodes
     31752 MiB available memory on the printing compute node when the environment starts

     Waiting for input...
     Reading input from standard input
Warning: card &CELL ignored
Warning: card / ignored

     Current dimensions of program PWSCF are:
     Max number of different atomic species (ntypx) = 10
     Max number of k-points (npk) =  40000
     Max angular momentum in pseudopotentials (lmaxx) =  4
     file Ge.pz-dn-rrkjus_psl.0.2.2.UPF: wavefunction(s)  3D renormalized
     Message from routine setup:
     using ibrav=0 with symmetry is DISCOURAGED, use correct ibrav instead

     Subspace diagonalization in iterative solution of the eigenvalue problem:
     a serial algorithm will be used


     G-vector sticks info
     --------------------
     sticks:   dense  smooth     PW     G-vecs:    dense   smooth      PW
     Sum         925     925    265                18499    18499    2837

     Using Slab Decomposition



     bravais-lattice index     =            0
     lattice parameter (alat)  =       6.6812  a.u.
     unit-cell volume          =     210.8855 (a.u.)^3
     number of atoms/cell      =            2
     number of atomic types    =            1
     number of electrons       =        28.00
     number of Kohn-Sham states=           14
     kinetic-energy cutoff     =      75.0000  Ry
     charge density cutoff     =     300.0000  Ry
     scf convergence threshold =      1.0E-07
     mixing beta               =       0.5000
     number of iterations used =            8  plain     mixing
     Exchange-correlation= LDA
                           (   1   1   0   0   0   0   0)

     celldm(1)=   6.681191  celldm(2)=   0.000000  celldm(3)=   0.000000
     celldm(4)=   0.000000  celldm(5)=   0.000000  celldm(6)=   0.000000

     crystal axes: (cart. coord. in units of alat)
               a(1) = (   0.000000   0.707107   0.707107 )  
               a(2) = (   0.707107   0.000000   0.707107 )  
               a(3) = (   0.707107   0.707107   0.000000 )  

     reciprocal axes: (cart. coord. in units 2 pi/alat)
               b(1) = ( -0.707107  0.707107  0.707107 )  
               b(2) = (  0.707107 -0.707107  0.707107 )  
               b(3) = (  0.707107  0.707107 -0.707107 )  


     PseudoPot. # 1 for Ge read from file:
     ../Ge.pz-dn-rrkjus_psl.0.2.2.UPF
     MD5 check sum: 9948ad5293734715c8cf6021b6c26e6d
     Pseudo is Ultrasoft + core correction, Zval = 14.0
     Generated using "atomic" code by A. Dal Corso  v.5.0.2 svn rev. 9415
     Using radial grid of 1207 points,  6 beta functions with: 
                l(1) =   0
                l(2) =   0
                l(3) =   1
                l(4) =   1
                l(5) =   2
                l(6) =   2
     Q(r) pseudized with 0 coefficients 


     atomic species   valence    mass     pseudopotential
        Ge            14.00    72.63000     Ge( 1.00)

     48 Sym. Ops., with inversion, found (24 have fractional translation)



   Cartesian axes

     site n.     atom                  positions (alat units)
         1           Ge  tau(   1) = (   0.0000000   0.0000000   0.0000000  )
         2           Ge  tau(   2) = (   0.3535534   0.3535534   0.3535534  )

     number of k points=     4
                       cart. coord. in units 2pi/alat
        k(    1) = (   0.0000000   0.0000000   0.0000000), wk =   0.0740741
        k(    2) = (   0.2357023   0.2357023  -0.2357023), wk =   0.5925926
        k(    3) = (   0.4714045   0.0000000   0.0000000), wk =   0.4444444
        k(    4) = (  -0.0000000  -0.4714045   0.4714045), wk =   0.8888889

     Dense  grid:    18499 G-vectors     FFT dimensions: (  40,  40,  40)

     Estimated max dynamical RAM per process >      73.95 MB

     Check: negative core charge=   -0.000007

     Initial potential from superposition of free atoms

     starting charge      27.9988, renormalised to      28.0000
     Starting wfcs are   18 randomized atomic wfcs

     total cpu time spent up to now is        1.2 secs

     Self-consistent Calculation

     iteration #  1     ecut=    75.00 Ry     beta= 0.50
     Davidson diagonalization with overlap
     ethr =  1.00E-02,  avg # of iterations =  2.0

     Threshold (ethr) on eigenvalues was too large:
     Diagonalizing with lowered threshold

     Davidson diagonalization with overlap
     ethr =  2.57E-04,  avg # of iterations =  1.8

     total cpu time spent up to now is        2.3 secs

     total energy              =    -421.60456565 Ry
     estimated scf accuracy    <       0.07375549 Ry

     iteration #  2     ecut=    75.00 Ry     beta= 0.50
     Davidson diagonalization with overlap
     ethr =  2.63E-04,  avg # of iterations =  1.5

     total cpu time spent up to now is        2.9 secs

     total energy              =    -421.60170975 Ry
     estimated scf accuracy    <       0.01228694 Ry

     iteration #  3     ecut=    75.00 Ry     beta= 0.50
     Davidson diagonalization with overlap
     ethr =  4.39E-05,  avg # of iterations =  2.0

     total cpu time spent up to now is        3.6 secs

     total energy              =    -421.60285588 Ry
     estimated scf accuracy    <       0.00013734 Ry

     iteration #  4     ecut=    75.00 Ry     beta= 0.50
     Davidson diagonalization with overlap
     ethr =  4.90E-07,  avg # of iterations =  3.0

     total cpu time spent up to now is        4.6 secs

     total energy              =    -421.60289083 Ry
     estimated scf accuracy    <       0.00001661 Ry

     iteration #  5     ecut=    75.00 Ry     beta= 0.50
     Davidson diagonalization with overlap
     ethr =  5.93E-08,  avg # of iterations =  2.5

     total cpu time spent up to now is        5.6 secs

     total energy              =    -421.60289388 Ry
     estimated scf accuracy    <       0.00000063 Ry

     iteration #  6     ecut=    75.00 Ry     beta= 0.50
     Davidson diagonalization with overlap
     ethr =  2.24E-09,  avg # of iterations =  3.5

     total cpu time spent up to now is        7.1 secs

     total energy              =    -421.60289401 Ry
     estimated scf accuracy    <       0.00000043 Ry

     iteration #  7     ecut=    75.00 Ry     beta= 0.50
     Davidson diagonalization with overlap
     ethr =  1.52E-09,  avg # of iterations =  1.0

     total cpu time spent up to now is        8.1 secs

     total energy              =    -421.60289395 Ry
     estimated scf accuracy    <       0.00000012 Ry

     iteration #  8     ecut=    75.00 Ry     beta= 0.50
     Davidson diagonalization with overlap
     ethr =  4.44E-10,  avg # of iterations =  2.0

     total cpu time spent up to now is        9.0 secs

     End of self-consistent calculation

          k = 0.0000 0.0000 0.0000 (  2277 PWs)   bands (ev):

   -11.6637 -11.6637 -11.6637 -11.5931 -11.5931 -11.0721 -11.0721 -11.0721
   -10.9877 -10.9877  -2.0660  14.2663  14.2663  14.2663

          k = 0.2357 0.2357-0.2357 (  2331 PWs)   bands (ev):

   -11.7165 -11.7165 -11.6358 -11.4990 -11.4990 -11.1192 -11.1192 -11.1131
   -10.9520 -10.9520  -0.2247   6.5052  12.4730  12.4730

          k = 0.4714 0.0000 0.0000 (  2297 PWs)   bands (ev):

   -11.7188 -11.7188 -11.6813 -11.4343 -11.3922 -11.3176 -11.1317 -11.0057
   -10.9521 -10.9521   0.4468   7.3035  10.2282  10.2282

          k =-0.0000-0.4714 0.4714 (  2315 PWs)   bands (ev):

   -11.7903 -11.7453 -11.5518 -11.3631 -11.3380 -11.3213 -11.2554 -11.1447
   -10.9078 -10.8718   2.3583   4.8251   7.3099  10.6984

     highest occupied level (ev):    14.2663

!    total energy              =    -421.60289398 Ry
     estimated scf accuracy    <          5.6E-09 Ry

     The total energy is the sum of the following terms:
     one-electron contribution =    -232.89486714 Ry
     hartree contribution      =     147.02756960 Ry
     xc contribution           =    -112.25084850 Ry
     ewald contribution        =    -223.48474795 Ry

     convergence has been achieved in   8 iterations

     Forces acting on atoms (cartesian axes, Ry/au):

     atom    1 type  1   force =     0.00000000    0.00000000   -0.00000000
     atom    2 type  1   force =    -0.00000000   -0.00000000    0.00000000
     The non-local contrib.  to forces
     atom    1 type  1   force =    -0.00000000   -0.00000000    0.00000000
     atom    2 type  1   force =     0.00000000    0.00000000   -0.00000000
     The ionic contribution  to forces
     atom    1 type  1   force =     0.00000000    0.00000000    0.00000000
     atom    2 type  1   force =    -0.00000000   -0.00000000   -0.00000000
     The local contribution  to forces
     atom    1 type  1   force =    -0.00000000   -0.00000000    0.00000000
     atom    2 type  1   force =    -0.00000000   -0.00000000   -0.00000000
     The core correction contribution to forces
     atom    1 type  1   force =    -0.00000000   -0.00000000   -0.00000000
     atom    2 type  1   force =    -0.00000000   -0.00000000   -0.00000000
     The Hubbard contrib.    to forces
     atom    1 type  1   force =     0.00000000    0.00000000    0.00000000
     atom    2 type  1   force =     0.00000000    0.00000000    0.00000000
     The SCF correction term to forces
     atom    1 type  1   force =    -0.00000000    0.00000000   -0.00000000
     atom    2 type  1   force =     0.00000000    0.00000000    0.00000000

     Total force =     0.000000     Total SCF correction =     0.000000


     Computing stress (Cartesian axis) and pressure

          total   stress  (Ry/bohr**3)                   (kbar)     P=      609.14
   0.00414087   0.00000000   0.00000000          609.14        0.00        0.00
   0.00000000   0.00414087   0.00000000            0.00      609.14        0.00
   0.00000000   0.00000000   0.00414087            0.00        0.00      609.14


     init_run     :      1.16s CPU      1.04s WALL (       1 calls)
     electrons    :      7.89s CPU      7.88s WALL (       1 calls)
     forces       :      0.18s CPU      0.25s WALL (       1 calls)
     stress       :      1.53s CPU      2.09s WALL (       1 calls)

     Called by init_run:
     wfcinit      :      0.56s CPU      0.42s WALL (       1 calls)
     potinit      :      0.01s CPU      0.01s WALL (       1 calls)
     hinit0       :      0.55s CPU      0.56s WALL (       1 calls)

     Called by electrons:
     c_bands      :      5.33s CPU      4.97s WALL (       9 calls)
     sum_band     :      1.88s CPU      2.08s WALL (       9 calls)
     v_of_rho     :      0.09s CPU      0.07s WALL (       9 calls)
     newd         :      0.55s CPU      0.72s WALL (       9 calls)
     mix_rho      :      0.05s CPU      0.07s WALL (       9 calls)

     Called by c_bands:
     init_us_2    :      0.16s CPU      0.12s WALL (      84 calls)
     init_us_2:cp :      0.16s CPU      0.12s WALL (      84 calls)
     cegterg      :      4.93s CPU      4.64s WALL (      36 calls)

     Called by *egterg:
     cdiaghg      :      0.08s CPU      0.13s WALL (     109 calls)
     h_psi        :      4.86s CPU      4.49s WALL (     117 calls)
     s_psi        :      0.09s CPU      0.08s WALL (     117 calls)
     g_psi        :      0.03s CPU      0.02s WALL (      77 calls)

     Called by h_psi:
     h_psi:calbec :      0.29s CPU      0.42s WALL (     117 calls)
     vloc_psi     :      4.47s CPU      3.97s WALL (     117 calls)
     add_vuspsi   :      0.08s CPU      0.08s WALL (     117 calls)

     General routines
     calbec       :      0.39s CPU      0.61s WALL (     173 calls)
     fft          :      0.30s CPU      0.30s WALL (      45 calls)
     ffts         :      0.02s CPU      0.01s WALL (       9 calls)
     fftw         :      4.53s CPU      3.97s WALL (    3160 calls)

     Parallel routines

     PWSCF        :     10.84s CPU     11.43s WALL


   This run was terminated on:  16:39:42  10Oct2023            

=------------------------------------------------------------------------------=
   JOB DONE.
=------------------------------------------------------------------------------=
