
     Program PWSCF v.7.2 starts on  2Nov2023 at 17:58:28 

     This program is part of the open-source Quantum ESPRESSO suite
     for quantum simulation of materials; please cite
         "P. Giannozzi et al., J. Phys.:Condens. Matter 21 395502 (2009);
         "P. Giannozzi et al., J. Phys.:Condens. Matter 29 465901 (2017);
         "P. Giannozzi et al., J. Chem. Phys. 152 154105 (2020);
          URL http://www.quantum-espresso.org", 
     in publications or presentations arising from this work. More details at
     http://www.quantum-espresso.org/quote

     Parallel version (MPI), running on     2 processors

     MPI processes distributed on     2 nodes
     187058 MiB available memory on the printing compute node when the environment starts

     Waiting for input...
     Reading input from standard input
Warning: card &CELL ignored
Warning: card / ignored

     Current dimensions of program PWSCF are:
     Max number of different atomic species (ntypx) = 10
     Max number of k-points (npk) =  40000
     Max angular momentum in pseudopotentials (lmaxx) =  4
     file O.pz-rrkjus.UPF: wavefunction(s)  2S renormalized
     Message from routine setup:
     using ibrav=0 with symmetry is DISCOURAGED, use correct ibrav instead

     R & G space division:  proc/nbgrp/npool/nimage =       2
     Subspace diagonalization in iterative solution of the eigenvalue problem:
     a serial algorithm will be used


     Parallelization info
     --------------------
     sticks:   dense  smooth     PW     G-vecs:    dense   smooth      PW
     Min         516     254     74                12418     4366     709
     Max         517     255     75                12419     4367     710
     Sum        1033     509    149                24837     8733    1419

     Using Slab Decomposition



     bravais-lattice index     =            0
     lattice parameter (alat)  =       7.3321  a.u.
     unit-cell volume          =     394.1775 (a.u.)^3
     number of atoms/cell      =            5
     number of atomic types    =            3
     number of electrons       =        44.00
     number of Kohn-Sham states=           22
     kinetic-energy cutoff     =      30.0000  Ry
     charge density cutoff     =     240.0000  Ry
     scf convergence threshold =      1.0E-07
     mixing beta               =       0.7000
     number of iterations used =            8  plain     mixing
     energy convergence thresh.=      1.0E-04
     force convergence thresh. =      1.0E-03
     Exchange-correlation= SLA  PZ   NOGX NOGC
                           (   1   1   0   0   0   0   0)
     nstep                     =           50


     celldm(1)=   7.332137  celldm(2)=   0.000000  celldm(3)=   0.000000
     celldm(4)=   0.000000  celldm(5)=   0.000000  celldm(6)=   0.000000

     crystal axes: (cart. coord. in units of alat)
               a(1) = (   1.000000   0.000000   0.000000 )  
               a(2) = (   0.000000   1.000000   0.000000 )  
               a(3) = (   0.000000   0.000000   1.000000 )  

     reciprocal axes: (cart. coord. in units 2 pi/alat)
               b(1) = (  1.000000  0.000000  0.000000 )  
               b(2) = (  0.000000  1.000000  0.000000 )  
               b(3) = (  0.000000  0.000000  1.000000 )  


     PseudoPot. # 1 for O  read from file:
     /home/gridsan/epan1/labutil/lab3_samples/pseudopotentials/O.pz-rrkjus.UPF
     MD5 check sum: 24fb942a68ef5d262e498166c462ef4a
     Pseudo is Ultrasoft, Zval =  6.0
     Generated by new atomic code, or converted to UPF format
     Using radial grid of 1269 points,  4 beta functions with: 
                l(1) =   0
                l(2) =   0
                l(3) =   1
                l(4) =   1
     Q(r) pseudized with 0 coefficients 


     PseudoPot. # 2 for Pb read from file:
     /home/gridsan/epan1/labutil/lab3_samples/pseudopotentials/Pb.pz-d-van.UPF
     MD5 check sum: 4e1e5920686a026ae26139ac417581ff
     Pseudo is Ultrasoft, Zval = 14.0
     Generated by new atomic code, or converted to UPF format
     Using radial grid of  899 points,  6 beta functions with: 
                l(1) =   0
                l(2) =   0
                l(3) =   1
                l(4) =   1
                l(5) =   2
                l(6) =   2
     Q(r) pseudized with  8 coefficients,  rinner =    1.000   1.000   1.000
                                                       1.000   1.000

     PseudoPot. # 3 for Ti read from file:
     /home/gridsan/epan1/labutil/lab3_samples/pseudopotentials/Ti.pz-sp-van_ak.UPF
     MD5 check sum: 545d0e6e05332b8871a8093f427cb0ca
     Pseudo is Ultrasoft, Zval = 12.0
     Generated by new atomic code, or converted to UPF format
     Using radial grid of  851 points,  6 beta functions with: 
                l(1) =   0
                l(2) =   0
                l(3) =   1
                l(4) =   1
                l(5) =   2
                l(6) =   2
     Q(r) pseudized with  8 coefficients,  rinner =    1.000   1.000   1.000
                                                       1.000   1.000

     atomic species   valence    mass     pseudopotential
        O              6.00    15.99900     O ( 1.00)
        Pb            14.00   207.20000     Pb( 1.00)
        Ti            12.00    47.86700     Ti( 1.00)

      8 Sym. Ops. (no inversion) found



   Cartesian axes

     site n.     atom                  positions (alat units)
         1           Pb  tau(   1) = (   0.0000000   0.0000000   0.0000000  )
         2           Ti  tau(   2) = (   0.5000000   0.5000000   0.4315799  )
         3           O   tau(   3) = (   0.0000000   0.5000000   0.5000000  )
         4           O   tau(   4) = (   0.5000000   0.0000000   0.5000000  )
         5           O   tau(   5) = (   0.5000000   0.5000000   0.0000000  )

     number of k points=     6
                       cart. coord. in units 2pi/alat
        k(    1) = (   0.1250000   0.1250000   0.1250000), wk =   0.2500000
        k(    2) = (   0.1250000   0.1250000   0.3750000), wk =   0.2500000
        k(    3) = (   0.1250000   0.3750000   0.3750000), wk =   0.5000000
        k(    4) = (   0.3750000   0.3750000   0.3750000), wk =   0.2500000
        k(    5) = (   0.3750000  -0.1250000   0.1250000), wk =   0.5000000
        k(    6) = (   0.3750000  -0.3750000   0.1250000), wk =   0.2500000

     Dense  grid:    24837 G-vectors     FFT dimensions: (  40,  40,  40)

     Smooth grid:     8733 G-vectors     FFT dimensions: (  25,  25,  25)

     Estimated max dynamical RAM per process >      51.66 MB

     Estimated total dynamical RAM >     103.32 MB

     Initial potential from superposition of free atoms

     starting charge      42.9982, renormalised to      44.0000
     Starting wfcs are   31 randomized atomic wfcs

     total cpu time spent up to now is        1.0 secs

     Self-consistent Calculation

     iteration #  1     ecut=    30.00 Ry     beta= 0.70
     Davidson diagonalization with overlap
     ethr =  1.00E-02,  avg # of iterations =  2.0

     total cpu time spent up to now is        1.3 secs

     total energy              =    -332.62822102 Ry
     estimated scf accuracy    <       1.06658932 Ry

     iteration #  2     ecut=    30.00 Ry     beta= 0.70
     Davidson diagonalization with overlap
     ethr =  2.42E-03,  avg # of iterations =  5.8

     total cpu time spent up to now is        1.7 secs

     total energy              =    -332.47814328 Ry
     estimated scf accuracy    <       3.25982221 Ry

     iteration #  3     ecut=    30.00 Ry     beta= 0.70
     Davidson diagonalization with overlap
     ethr =  2.42E-03,  avg # of iterations =  5.3

     total cpu time spent up to now is        2.0 secs

     total energy              =    -333.13604617 Ry
     estimated scf accuracy    <       0.20917429 Ry

     iteration #  4     ecut=    30.00 Ry     beta= 0.70
     Davidson diagonalization with overlap
     ethr =  4.75E-04,  avg # of iterations =  2.7

     total cpu time spent up to now is        2.3 secs

     total energy              =    -333.13370469 Ry
     estimated scf accuracy    <       0.05190649 Ry

     iteration #  5     ecut=    30.00 Ry     beta= 0.70
     Davidson diagonalization with overlap
     ethr =  1.18E-04,  avg # of iterations =  4.8

     total cpu time spent up to now is        2.6 secs

     total energy              =    -333.15822596 Ry
     estimated scf accuracy    <       0.03356556 Ry

     iteration #  6     ecut=    30.00 Ry     beta= 0.70
     Davidson diagonalization with overlap
     ethr =  7.63E-05,  avg # of iterations =  2.0

     total cpu time spent up to now is        2.9 secs

     total energy              =    -333.15735838 Ry
     estimated scf accuracy    <       0.01123069 Ry

     iteration #  7     ecut=    30.00 Ry     beta= 0.70
     Davidson diagonalization with overlap
     ethr =  2.55E-05,  avg # of iterations =  4.2

     total cpu time spent up to now is        3.2 secs

     total energy              =    -333.16071828 Ry
     estimated scf accuracy    <       0.00018261 Ry

     iteration #  8     ecut=    30.00 Ry     beta= 0.70
     Davidson diagonalization with overlap
     ethr =  4.15E-07,  avg # of iterations =  4.3

     total cpu time spent up to now is        3.6 secs

     total energy              =    -333.16074180 Ry
     estimated scf accuracy    <       0.00020797 Ry

     iteration #  9     ecut=    30.00 Ry     beta= 0.70
     Davidson diagonalization with overlap
     ethr =  4.15E-07,  avg # of iterations =  2.5

     total cpu time spent up to now is        3.8 secs

     total energy              =    -333.16071649 Ry
     estimated scf accuracy    <       0.00009136 Ry

     iteration # 10     ecut=    30.00 Ry     beta= 0.70
     Davidson diagonalization with overlap
     ethr =  2.08E-07,  avg # of iterations =  4.3

     total cpu time spent up to now is        4.1 secs

     total energy              =    -333.16074471 Ry
     estimated scf accuracy    <       0.00000617 Ry

     iteration # 11     ecut=    30.00 Ry     beta= 0.70
     Davidson diagonalization with overlap
     ethr =  1.40E-08,  avg # of iterations =  3.5

     total cpu time spent up to now is        4.4 secs

     total energy              =    -333.16074436 Ry
     estimated scf accuracy    <       0.00000563 Ry

     iteration # 12     ecut=    30.00 Ry     beta= 0.70
     Davidson diagonalization with overlap
     ethr =  1.28E-08,  avg # of iterations =  2.0

     total cpu time spent up to now is        4.7 secs

     total energy              =    -333.16074408 Ry
     estimated scf accuracy    <       0.00000225 Ry

     iteration # 13     ecut=    30.00 Ry     beta= 0.70
     Davidson diagonalization with overlap
     ethr =  5.10E-09,  avg # of iterations =  4.3

     total cpu time spent up to now is        5.0 secs

     End of self-consistent calculation

          k = 0.1250 0.1250 0.1250 (  1096 PWs)   bands (ev):

   -44.3895 -21.3096 -20.9722 -20.9714  -6.3683  -5.3474  -5.1575  -4.1228
    -4.0889  -4.0770  -3.9101  -3.8792   4.5012   7.1475   7.3208   8.0179
     8.5977   8.7414   9.3828   9.7166  10.0760  10.1606

          k = 0.1250 0.1250 0.3750 (  1095 PWs)   bands (ev):

   -44.3882 -21.3680 -20.9697 -20.9687  -5.8473  -5.2854  -5.0140  -4.1705
    -4.1189  -4.0668  -3.9788  -3.8876   3.6706   6.7263   6.8639   7.7452
     8.3444   8.5180   9.4618   9.7249  10.2756  10.9518

          k = 0.1250 0.3750 0.3750 (  1093 PWs)   bands (ev):

   -44.3869 -21.3645 -21.0245 -20.9673  -5.6426  -5.2043  -4.9126  -4.1458
    -4.1049  -4.0348  -3.9374  -3.7382   3.3894   6.4310   7.0081   7.1537
     7.5780   8.7334   9.0878   9.5844   9.8790  10.5793

          k = 0.3750 0.3750 0.3750 (  1082 PWs)   bands (ev):

   -44.3856 -21.3617 -21.0219 -21.0217  -5.4605  -5.1860  -5.1038  -4.0639
    -4.0305  -3.7961  -3.6683  -3.6262   4.0331   5.7169   5.9545   6.6072
     7.2674   7.4214   7.9016  10.3605  10.4447  10.8223

          k = 0.3750-0.1250 0.1250 (  1095 PWs)   bands (ev):

   -44.3882 -21.3070 -21.0281 -20.9695  -6.0229  -5.1722  -5.0302  -4.1587
    -4.1030  -4.0776  -4.0053  -3.8648   3.7759   6.9655   7.3278   7.7486
     8.3359   8.7389   9.1280   9.6722   9.8124  10.7517

          k = 0.3750-0.3750 0.1250 (  1093 PWs)   bands (ev):

   -44.3870 -21.3050 -21.0252 -21.0244  -5.9271  -4.9641  -4.8817  -4.1151
    -4.0893  -4.0107  -3.9274  -3.8522   3.4915   6.8086   6.8129   7.0189
     7.4441   8.6655   9.4679   9.5288   9.9510  10.8126

     highest occupied level (ev):    10.9518

!    total energy              =    -333.16074440 Ry
     estimated scf accuracy    <       0.00000008 Ry

     The total energy is the sum of the following terms:
     one-electron contribution =     -79.01037796 Ry
     hartree contribution      =      67.45888930 Ry
     xc contribution           =     -49.71377860 Ry
     ewald contribution        =    -271.89547714 Ry

     convergence has been achieved in  13 iterations

     Forces acting on atoms (cartesian axes, Ry/au):

     atom    1 type  2   force =     0.00000000    0.00000000   -0.03020480
     atom    2 type  3   force =     0.00000000    0.00000000    0.15243266
     atom    3 type  1   force =     0.00000000    0.00000000   -0.00733068
     atom    4 type  1   force =     0.00000000    0.00000000   -0.00733068
     atom    5 type  1   force =     0.00000000    0.00000000   -0.10756650
     The non-local contrib.  to forces
     atom    1 type  2   force =     0.00000000    0.00000000    0.01556287
     atom    2 type  3   force =     0.00000000    0.00000000   -0.07800979
     atom    3 type  1   force =     0.00000000    0.00000000   -0.18509508
     atom    4 type  1   force =     0.00000000    0.00000000   -0.18509508
     atom    5 type  1   force =     0.00000000    0.00000000    0.47499935
     The ionic contribution  to forces
     atom    1 type  2   force =     0.00000000    0.00000000   -1.74173847
     atom    2 type  3   force =    -0.00000000   -0.00000000    4.43576017
     atom    3 type  1   force =     0.00000000   -0.00000000    1.90513752
     atom    4 type  1   force =    -0.00000000    0.00000000    1.90513752
     atom    5 type  1   force =    -0.00000000   -0.00000000   -6.50429673
     The local contribution  to forces
     atom    1 type  2   force =     0.00000000    0.00000000    1.69605954
     atom    2 type  3   force =    -0.00000000   -0.00000000   -4.20530153
     atom    3 type  1   force =     0.00000000   -0.00000000   -1.72743698
     atom    4 type  1   force =    -0.00000000    0.00000000   -1.72743698
     atom    5 type  1   force =    -0.00000000   -0.00000000    5.92199295
     The core correction contribution to forces
     atom    1 type  2   force =     0.00000000    0.00000000    0.00000000
     atom    2 type  3   force =     0.00000000    0.00000000    0.00000000
     atom    3 type  1   force =     0.00000000    0.00000000    0.00000000
     atom    4 type  1   force =     0.00000000    0.00000000    0.00000000
     atom    5 type  1   force =     0.00000000    0.00000000    0.00000000
     The Hubbard contrib.    to forces
     atom    1 type  2   force =     0.00000000    0.00000000    0.00000000
     atom    2 type  3   force =     0.00000000    0.00000000    0.00000000
     atom    3 type  1   force =     0.00000000    0.00000000    0.00000000
     atom    4 type  1   force =     0.00000000    0.00000000    0.00000000
     atom    5 type  1   force =     0.00000000    0.00000000    0.00000000
     The SCF correction term to forces
     atom    1 type  2   force =    -0.00000000   -0.00000000   -0.00000000
     atom    2 type  3   force =    -0.00000000   -0.00000000   -0.00000000
     atom    3 type  1   force =     0.00000000   -0.00000000    0.00006704
     atom    4 type  1   force =    -0.00000000   -0.00000000    0.00006704
     atom    5 type  1   force =    -0.00000000   -0.00000000   -0.00025890

     Total force =     0.108065     Total SCF correction =     0.000276


     Computing stress (Cartesian axis) and pressure

          total   stress  (Ry/bohr**3)                   (kbar)     P=       32.64
  -0.00006808   0.00000000   0.00000000          -10.02        0.00        0.00
   0.00000000  -0.00006808   0.00000000            0.00      -10.02        0.00
   0.00000000   0.00000000   0.00080175            0.00        0.00      117.94


     BFGS Geometry Optimization
     Energy error            =      0.0E+00 Ry
     Gradient error          =      1.1E-01 Ry/Bohr

     number of scf cycles    =   1
     number of bfgs steps    =   0

     energy             new  =    -333.1607444018 Ry

     new trust radius        =       0.1075665014 bohr
     new conv_thr            =       0.0000001000 Ry


ATOMIC_POSITIONS (angstrom)
Pb            0.0000000000        0.0000000000        0.0000000000    0   0   0
Ti            1.9400000000        1.9400000000        1.6745300000    0   0   0
O             0.0000000000        1.9400000000        1.9361207708
O             1.9400000000        0.0000000000        1.9361207708
O             1.9400000000        1.9400000000       -0.0569217412



     Writing config-only to output data dir /home/gridsan/epan1/labutil/lab3_samples/problem2/Lab3/PbTiO3_a_3.88_ecut_30_nk_4_displ_-0.06842105263157895/pwscf.save/
     NEW-OLD atomic charge density approx. for the potential

     total cpu time spent up to now is        6.1 secs

     Self-consistent Calculation

     iteration #  1     ecut=    30.00 Ry     beta= 0.70
     Davidson diagonalization with overlap
     ethr =  1.00E-06,  avg # of iterations =  9.0

     total cpu time spent up to now is        6.6 secs

     total energy              =    -333.16701188 Ry
     estimated scf accuracy    <       0.00374972 Ry

     iteration #  2     ecut=    30.00 Ry     beta= 0.70
     Davidson diagonalization with overlap
     ethr =  8.52E-06,  avg # of iterations =  5.7

     total cpu time spent up to now is        7.0 secs

     total energy              =    -333.16670895 Ry
     estimated scf accuracy    <       0.00982684 Ry

     iteration #  3     ecut=    30.00 Ry     beta= 0.70
     Davidson diagonalization with overlap
     ethr =  8.52E-06,  avg # of iterations =  4.5

     total cpu time spent up to now is        7.3 secs

     total energy              =    -333.16857175 Ry
     estimated scf accuracy    <       0.00019248 Ry

     iteration #  4     ecut=    30.00 Ry     beta= 0.70
     Davidson diagonalization with overlap
     ethr =  4.37E-07,  avg # of iterations =  3.0

     total cpu time spent up to now is        7.6 secs

     total energy              =    -333.16860557 Ry
     estimated scf accuracy    <       0.00004733 Ry

     iteration #  5     ecut=    30.00 Ry     beta= 0.70
     Davidson diagonalization with overlap
     ethr =  1.08E-07,  avg # of iterations =  3.3

     total cpu time spent up to now is        7.9 secs

     total energy              =    -333.16861212 Ry
     estimated scf accuracy    <       0.00000593 Ry

     iteration #  6     ecut=    30.00 Ry     beta= 0.70
     Davidson diagonalization with overlap
     ethr =  1.35E-08,  avg # of iterations =  4.7

     total cpu time spent up to now is        8.2 secs

     total energy              =    -333.16861460 Ry
     estimated scf accuracy    <       0.00000093 Ry

     iteration #  7     ecut=    30.00 Ry     beta= 0.70
     Davidson diagonalization with overlap
     ethr =  2.11E-09,  avg # of iterations =  4.0

     total cpu time spent up to now is        8.6 secs

     total energy              =    -333.16861468 Ry
     estimated scf accuracy    <       0.00000032 Ry

     iteration #  8     ecut=    30.00 Ry     beta= 0.70
     Davidson diagonalization with overlap
     ethr =  7.30E-10,  avg # of iterations =  4.2

     total cpu time spent up to now is        8.9 secs

     End of self-consistent calculation

          k = 0.1250 0.1250 0.1250 (  1096 PWs)   bands (ev):

   -44.5191 -21.3045 -21.1107 -21.1099  -6.3796  -5.3353  -5.1851  -4.0914
    -4.0660  -4.0548  -3.8866  -3.8639   4.5295   7.1884   7.2935   8.0021
     8.7292   8.9140   9.4454   9.7129  10.1156  10.1199

          k = 0.1250 0.1250 0.3750 (  1095 PWs)   bands (ev):

   -44.5178 -21.3628 -21.1083 -21.1074  -5.8800  -5.2529  -5.0479  -4.1423
    -4.0874  -4.0461  -3.9630  -3.8634   3.7327   6.7340   6.9628   7.7231
     8.4714   8.5290   9.4451   9.7430  10.2349  10.9451

          k = 0.1250 0.3750 0.3750 (  1093 PWs)   bands (ev):

   -44.5165 -21.3594 -21.1622 -21.1060  -5.6703  -5.1684  -4.9430  -4.1170
    -4.0745  -4.0126  -3.9172  -3.7280   3.4328   6.5021   7.0303   7.1157
     7.5573   8.7231   9.2015   9.5672   9.9463  10.5871

          k = 0.3750 0.3750 0.3750 (  1082 PWs)   bands (ev):

   -44.5152 -21.3567 -21.1597 -21.1595  -5.4341  -5.1997  -5.1266  -4.0337
    -4.0085  -3.7597  -3.6585  -3.6221   4.0656   5.7988   5.9616   6.5896
     7.2511   7.3606   7.9497  10.4415  10.5185  10.7866

          k = 0.3750-0.1250 0.1250 (  1095 PWs)   bands (ev):

   -44.5178 -21.3020 -21.1658 -21.1081  -6.0184  -5.1757  -5.0596  -4.1331
    -4.0747  -4.0548  -3.9824  -3.8478   3.8072   6.9412   7.3634   7.7740
     8.3608   8.7915   9.1695   9.7371   9.8528  10.7719

          k = 0.3750-0.3750 0.1250 (  1093 PWs)   bands (ev):

   -44.5166 -21.3000 -21.1629 -21.1621  -5.8971  -4.9928  -4.9132  -4.0939
    -4.0633  -3.9929  -3.9102  -3.8170   3.4993   6.8195   6.8842   7.0980
     7.4593   8.6627   9.5054   9.5101   9.9449  10.7823

     highest occupied level (ev):    10.9451

!    total energy              =    -333.16861473 Ry
     estimated scf accuracy    <       0.00000002 Ry

     The total energy is the sum of the following terms:
     one-electron contribution =     -77.87001501 Ry
     hartree contribution      =      66.85658126 Ry
     xc contribution           =     -49.67180636 Ry
     ewald contribution        =    -272.48337462 Ry

     convergence has been achieved in   8 iterations

     Forces acting on atoms (cartesian axes, Ry/au):

     atom    1 type  2   force =     0.00000000    0.00000000   -0.03076548
     atom    2 type  3   force =     0.00000000    0.00000000    0.09879661
     atom    3 type  1   force =     0.00000000    0.00000000   -0.01457655
     atom    4 type  1   force =     0.00000000    0.00000000   -0.01457655
     atom    5 type  1   force =     0.00000000    0.00000000   -0.03887802
     The non-local contrib.  to forces
     atom    1 type  2   force =     0.00000000    0.00000000    0.01819379
     atom    2 type  3   force =     0.00000000    0.00000000   -0.05362444
     atom    3 type  1   force =     0.00000000    0.00000000   -0.20677307
     atom    4 type  1   force =     0.00000000    0.00000000   -0.20677307
     atom    5 type  1   force =     0.00000000    0.00000000    0.43148914
     The ionic contribution  to forces
     atom    1 type  2   force =     0.00000000    0.00000000   -1.58997628
     atom    2 type  3   force =    -0.00000000   -0.00000000    3.02366997
     atom    3 type  1   force =     0.00000000   -0.00000000    1.75035497
     atom    4 type  1   force =    -0.00000000    0.00000000    1.75035497
     atom    5 type  1   force =    -0.00000000   -0.00000000   -4.93440363
     The local contribution  to forces
     atom    1 type  2   force =    -0.00000000   -0.00000000    1.54101062
     atom    2 type  3   force =    -0.00000000   -0.00000000   -2.87121593
     atom    3 type  1   force =     0.00000000   -0.00000000   -1.55812784
     atom    4 type  1   force =    -0.00000000    0.00000000   -1.55812784
     atom    5 type  1   force =    -0.00000000   -0.00000000    4.46410996
     The core correction contribution to forces
     atom    1 type  2   force =     0.00000000    0.00000000    0.00000000
     atom    2 type  3   force =     0.00000000    0.00000000    0.00000000
     atom    3 type  1   force =     0.00000000    0.00000000    0.00000000
     atom    4 type  1   force =     0.00000000    0.00000000    0.00000000
     atom    5 type  1   force =     0.00000000    0.00000000    0.00000000
     The Hubbard contrib.    to forces
     atom    1 type  2   force =     0.00000000    0.00000000    0.00000000
     atom    2 type  3   force =     0.00000000    0.00000000    0.00000000
     atom    3 type  1   force =     0.00000000    0.00000000    0.00000000
     atom    4 type  1   force =     0.00000000    0.00000000    0.00000000
     atom    5 type  1   force =     0.00000000    0.00000000    0.00000000
     The SCF correction term to forces
     atom    1 type  2   force =     0.00000000   -0.00000000    0.00000000
     atom    2 type  3   force =     0.00000000    0.00000000   -0.00000000
     atom    3 type  1   force =     0.00000000   -0.00000000   -0.00000729
     atom    4 type  1   force =    -0.00000000   -0.00000000   -0.00000729
     atom    5 type  1   force =    -0.00000000   -0.00000000   -0.00005017

     Total force =     0.044005     Total SCF correction =     0.000051


     Computing stress (Cartesian axis) and pressure

          total   stress  (Ry/bohr**3)                   (kbar)     P=        4.57
  -0.00012587   0.00000000   0.00000000          -18.52        0.00        0.00
   0.00000000  -0.00012587   0.00000000            0.00      -18.52        0.00
   0.00000000   0.00000000   0.00034492            0.00        0.00       50.74

     Energy error            =      7.9E-03 Ry
     Gradient error          =      3.9E-02 Ry/Bohr

     number of scf cycles    =   2
     number of bfgs steps    =   1

     energy             old  =    -333.1607444018 Ry
     energy             new  =    -333.1686147314 Ry

     CASE: energy            _new < energy            _old

     new trust radius        =       0.0690221278 bohr
     new conv_thr            =       0.0000000389 Ry


ATOMIC_POSITIONS (angstrom)
Pb            0.0000000000        0.0000000000        0.0000000000    0   0   0
Ti            1.9400000000        1.9400000000        1.6745300000    0   0   0
O             0.0000000000        1.9400000000        1.9235104139
O             1.9400000000        0.0000000000        1.9235104139
O             1.9400000000        1.9400000000       -0.0934466783



     Writing config-only to output data dir /home/gridsan/epan1/labutil/lab3_samples/problem2/Lab3/PbTiO3_a_3.88_ecut_30_nk_4_displ_-0.06842105263157895/pwscf.save/
     NEW-OLD atomic charge density approx. for the potential

     total cpu time spent up to now is       10.0 secs

     Self-consistent Calculation

     iteration #  1     ecut=    30.00 Ry     beta= 0.70
     Davidson diagonalization with overlap
     ethr =  1.00E-06,  avg # of iterations =  8.7

     total cpu time spent up to now is       10.4 secs

     total energy              =    -333.17046550 Ry
     estimated scf accuracy    <       0.00127601 Ry

     iteration #  2     ecut=    30.00 Ry     beta= 0.70
     Davidson diagonalization with overlap
     ethr =  2.90E-06,  avg # of iterations =  5.7

     total cpu time spent up to now is       10.8 secs

     total energy              =    -333.17033899 Ry
     estimated scf accuracy    <       0.00282911 Ry

     iteration #  3     ecut=    30.00 Ry     beta= 0.70
     Davidson diagonalization with overlap
     ethr =  2.90E-06,  avg # of iterations =  4.5

     total cpu time spent up to now is       11.2 secs

     total energy              =    -333.17091842 Ry
     estimated scf accuracy    <       0.00009460 Ry

     iteration #  4     ecut=    30.00 Ry     beta= 0.70
     Davidson diagonalization with overlap
     ethr =  2.15E-07,  avg # of iterations =  2.3

     total cpu time spent up to now is       11.5 secs

     total energy              =    -333.17092767 Ry
     estimated scf accuracy    <       0.00002262 Ry

     iteration #  5     ecut=    30.00 Ry     beta= 0.70
     Davidson diagonalization with overlap
     ethr =  5.14E-08,  avg # of iterations =  4.2

     total cpu time spent up to now is       11.9 secs

     total energy              =    -333.17093228 Ry
     estimated scf accuracy    <       0.00000101 Ry

     iteration #  6     ecut=    30.00 Ry     beta= 0.70
     Davidson diagonalization with overlap
     ethr =  2.30E-09,  avg # of iterations =  5.5

     total cpu time spent up to now is       12.2 secs

     total energy              =    -333.17093292 Ry
     estimated scf accuracy    <       0.00000068 Ry

     iteration #  7     ecut=    30.00 Ry     beta= 0.70
     Davidson diagonalization with overlap
     ethr =  1.55E-09,  avg # of iterations =  2.7

     total cpu time spent up to now is       12.5 secs

     total energy              =    -333.17093293 Ry
     estimated scf accuracy    <       0.00000018 Ry

     iteration #  8     ecut=    30.00 Ry     beta= 0.70
     Davidson diagonalization with overlap
     ethr =  4.16E-10,  avg # of iterations =  4.3

     total cpu time spent up to now is       12.8 secs

     total energy              =    -333.17093299 Ry
     estimated scf accuracy    <       0.00000005 Ry

     iteration #  9     ecut=    30.00 Ry     beta= 0.70
     Davidson diagonalization with overlap
     ethr =  1.04E-10,  avg # of iterations =  2.7

     total cpu time spent up to now is       13.1 secs

     End of self-consistent calculation

          k = 0.1250 0.1250 0.1250 (  1096 PWs)   bands (ev):

   -44.5910 -21.3125 -21.1867 -21.1859  -6.3820  -5.3259  -5.2082  -4.0751
    -4.0544  -4.0436  -3.8747  -3.8565   4.5436   7.2037   7.2746   8.0004
     8.8139   8.9960   9.5053   9.7239  10.0894  10.1367

          k = 0.1250 0.1250 0.3750 (  1095 PWs)   bands (ev):

   -44.5897 -21.3705 -21.1843 -21.1834  -5.9011  -5.2259  -5.0752  -4.1273
    -4.0708  -4.0358  -3.9550  -3.8508   3.7687   6.7403   7.0231   7.7135
     8.5246   8.5391   9.4349   9.7648  10.2051  10.9339

          k = 0.1250 0.3750 0.3750 (  1093 PWs)   bands (ev):

   -44.5885 -21.3670 -21.2380 -21.1820  -5.6897  -5.1388  -4.9619  -4.1021
    -4.0588  -4.0007  -3.9062  -3.7237   3.4551   6.5477   7.0184   7.1016
     7.5343   8.7084   9.2661   9.5469   9.9843  10.5999

          k = 0.3750 0.3750 0.3750 (  1082 PWs)   bands (ev):

   -44.5872 -21.3644 -21.2355 -21.2353  -5.4134  -5.2043  -5.1421  -4.0180
    -3.9975  -3.7396  -3.6527  -3.6201   4.0787   5.8379   5.9555   6.5900
     7.2238   7.3054   7.9711  10.4927  10.5636  10.7617

          k = 0.3750-0.1250 0.1250 (  1095 PWs)   bands (ev):

   -44.5898 -21.3100 -21.2415 -21.1841  -6.0097  -5.1777  -5.0796  -4.1202
    -4.0601  -4.0433  -3.9689  -3.8388   3.8235   6.9166   7.3692   7.7762
     8.3694   8.8079   9.2031   9.7836   9.8867  10.7848

          k = 0.3750-0.3750 0.1250 (  1093 PWs)   bands (ev):

   -44.5885 -21.3081 -21.2387 -21.2379  -5.8689  -5.0109  -4.9341  -4.0834
    -4.0500  -3.9834  -3.9006  -3.7973   3.4999   6.8105   6.8991   7.1368
     7.4698   8.6577   9.5000   9.5144   9.9484  10.7609

     highest occupied level (ev):    10.9339

!    total energy              =    -333.17093299 Ry
     estimated scf accuracy    <          5.2E-09 Ry

     The total energy is the sum of the following terms:
     one-electron contribution =     -77.42434721 Ry
     hartree contribution      =      66.61633807 Ry
     xc contribution           =     -49.65268139 Ry
     ewald contribution        =    -272.71024245 Ry

     convergence has been achieved in   9 iterations

     Forces acting on atoms (cartesian axes, Ry/au):

     atom    1 type  2   force =     0.00000000    0.00000000   -0.03031403
     atom    2 type  3   force =     0.00000000    0.00000000    0.07324694
     atom    3 type  1   force =     0.00000000    0.00000000   -0.01800006
     atom    4 type  1   force =     0.00000000    0.00000000   -0.01800006
     atom    5 type  1   force =     0.00000000    0.00000000   -0.00693278
     The non-local contrib.  to forces
     atom    1 type  2   force =     0.00000000    0.00000000    0.02726941
     atom    2 type  3   force =     0.00000000    0.00000000   -0.04262266
     atom    3 type  1   force =     0.00000000    0.00000000   -0.21618370
     atom    4 type  1   force =     0.00000000    0.00000000   -0.21618370
     atom    5 type  1   force =     0.00000000    0.00000000    0.39344505
     The ionic contribution  to forces
     atom    1 type  2   force =     0.00000000    0.00000000   -1.63241602
     atom    2 type  3   force =    -0.00000000   -0.00000000    2.27930466
     atom    3 type  1   force =     0.00000000   -0.00000000    1.68324407
     atom    4 type  1   force =    -0.00000000    0.00000000    1.68324407
     atom    5 type  1   force =    -0.00000000   -0.00000000   -4.01337677
     The local contribution  to forces
     atom    1 type  2   force =     0.00000000   -0.00000000    1.57481360
     atom    2 type  3   force =    -0.00000000   -0.00000000   -2.16336229
     atom    3 type  1   force =     0.00000000   -0.00000000   -1.48501413
     atom    4 type  1   force =    -0.00000000    0.00000000   -1.48501413
     atom    5 type  1   force =    -0.00000000   -0.00000000    3.61298336
     The core correction contribution to forces
     atom    1 type  2   force =     0.00000000    0.00000000    0.00000000
     atom    2 type  3   force =     0.00000000    0.00000000    0.00000000
     atom    3 type  1   force =     0.00000000    0.00000000    0.00000000
     atom    4 type  1   force =     0.00000000    0.00000000    0.00000000
     atom    5 type  1   force =     0.00000000    0.00000000    0.00000000
     The Hubbard contrib.    to forces
     atom    1 type  2   force =     0.00000000    0.00000000    0.00000000
     atom    2 type  3   force =     0.00000000    0.00000000    0.00000000
     atom    3 type  1   force =     0.00000000    0.00000000    0.00000000
     atom    4 type  1   force =     0.00000000    0.00000000    0.00000000
     atom    5 type  1   force =     0.00000000    0.00000000    0.00000000
     The SCF correction term to forces
     atom    1 type  2   force =     0.00000000    0.00000000    0.00000000
     atom    2 type  3   force =     0.00000000   -0.00000000   -0.00000000
     atom    3 type  1   force =    -0.00000000    0.00000000   -0.00002538
     atom    4 type  1   force =     0.00000000    0.00000000   -0.00002538
     atom    5 type  1   force =    -0.00000000    0.00000000    0.00003652

     Total force =     0.026383     Total SCF correction =     0.000051


     Computing stress (Cartesian axis) and pressure

          total   stress  (Ry/bohr**3)                   (kbar)     P=       -7.58
  -0.00014267   0.00000000   0.00000000          -20.99        0.00        0.00
   0.00000000  -0.00014267   0.00000000            0.00      -20.99        0.00
   0.00000000   0.00000000   0.00013076            0.00        0.00       19.24

     Energy error            =      2.3E-03 Ry
     Gradient error          =      1.8E-02 Ry/Bohr

     number of scf cycles    =   3
     number of bfgs steps    =   2

     energy             old  =    -333.1686147314 Ry
     energy             new  =    -333.1709329909 Ry

     CASE: energy            _new < energy            _old

     new trust radius        =       0.0505047126 bohr
     new conv_thr            =       0.0000000180 Ry


ATOMIC_POSITIONS (angstrom)
Pb            0.0000000000        0.0000000000        0.0000000000    0   0   0
Ti            1.9400000000        1.9400000000        1.6745300000    0   0   0
O             0.0000000000        1.9400000000        1.9021035970
O             1.9400000000        0.0000000000        1.9021035970
O             1.9400000000        1.9400000000       -0.1201726213



     Writing config-only to output data dir /home/gridsan/epan1/labutil/lab3_samples/problem2/Lab3/PbTiO3_a_3.88_ecut_30_nk_4_displ_-0.06842105263157895/pwscf.save/
     NEW-OLD atomic charge density approx. for the potential

     total cpu time spent up to now is       14.5 secs

     Self-consistent Calculation

     iteration #  1     ecut=    30.00 Ry     beta= 0.70
     Davidson diagonalization with overlap
     ethr =  1.00E-06,  avg # of iterations =  8.8

     total cpu time spent up to now is       14.9 secs

     total energy              =    -333.17215725 Ry
     estimated scf accuracy    <       0.00073762 Ry

     iteration #  2     ecut=    30.00 Ry     beta= 0.70
     Davidson diagonalization with overlap
     ethr =  1.68E-06,  avg # of iterations =  5.3

     total cpu time spent up to now is       15.3 secs

     total energy              =    -333.17207163 Ry
     estimated scf accuracy    <       0.00112338 Ry

     iteration #  3     ecut=    30.00 Ry     beta= 0.70
     Davidson diagonalization with overlap
     ethr =  1.68E-06,  avg # of iterations =  4.5

     total cpu time spent up to now is       15.6 secs

     total energy              =    -333.17234758 Ry
     estimated scf accuracy    <       0.00012167 Ry

     iteration #  4     ecut=    30.00 Ry     beta= 0.70
     Davidson diagonalization with overlap
     ethr =  2.77E-07,  avg # of iterations =  2.3

     total cpu time spent up to now is       15.9 secs

     total energy              =    -333.17235325 Ry
     estimated scf accuracy    <       0.00002258 Ry

     iteration #  5     ecut=    30.00 Ry     beta= 0.70
     Davidson diagonalization with overlap
     ethr =  5.13E-08,  avg # of iterations =  4.5

     total cpu time spent up to now is       16.3 secs

     total energy              =    -333.17236195 Ry
     estimated scf accuracy    <       0.00000199 Ry

     iteration #  6     ecut=    30.00 Ry     beta= 0.70
     Davidson diagonalization with overlap
     ethr =  4.52E-09,  avg # of iterations =  3.2

     total cpu time spent up to now is       16.5 secs

     total energy              =    -333.17236200 Ry
     estimated scf accuracy    <       0.00000084 Ry

     iteration #  7     ecut=    30.00 Ry     beta= 0.70
     Davidson diagonalization with overlap
     ethr =  1.91E-09,  avg # of iterations =  4.0

     total cpu time spent up to now is       16.8 secs

     total energy              =    -333.17236210 Ry
     estimated scf accuracy    <       0.00000007 Ry

     iteration #  8     ecut=    30.00 Ry     beta= 0.70
     Davidson diagonalization with overlap
     ethr =  1.58E-10,  avg # of iterations =  4.5

     total cpu time spent up to now is       17.2 secs

     total energy              =    -333.17236213 Ry
     estimated scf accuracy    <       0.00000002 Ry

     iteration #  9     ecut=    30.00 Ry     beta= 0.70
     Davidson diagonalization with overlap
     ethr =  5.05E-11,  avg # of iterations =  2.2

     total cpu time spent up to now is       17.5 secs

     End of self-consistent calculation

          k = 0.1250 0.1250 0.1250 (  1096 PWs)   bands (ev):

   -44.6364 -21.3206 -21.2353 -21.2346  -6.3828  -5.3219  -5.2340  -4.0643
    -4.0471  -4.0366  -3.8677  -3.8514   4.5529   7.2152   7.2628   8.0077
     8.8725   9.0359   9.5676   9.7419  10.0577  10.1403

          k = 0.1250 0.1250 0.3750 (  1095 PWs)   bands (ev):

   -44.6351 -21.3782 -21.2330 -21.2321  -5.9197  -5.2056  -5.1051  -4.1169
    -4.0598  -4.0292  -3.9492  -3.8427   3.7957   6.7490   7.0789   7.7170
     8.5010   8.5768   9.4197   9.7890  10.1747  10.9157

          k = 0.1250 0.3750 0.3750 (  1093 PWs)   bands (ev):

   -44.6339 -21.3749 -21.2869 -21.2307  -5.7082  -5.1166  -4.9788  -4.0921
    -4.0486  -3.9924  -3.8985  -3.7213   3.4687   6.5870   6.9811   7.1068
     7.5065   8.6923   9.3014   9.5236  10.0056  10.6114

          k = 0.3750 0.3750 0.3750 (  1082 PWs)   bands (ev):

   -44.6326 -21.3722 -21.2844 -21.2841  -5.3974  -5.2073  -5.1569  -4.0076
    -3.9905  -3.7259  -3.6482  -3.6184   4.0814   5.8600   5.9412   6.6006
     7.1841   7.2422   7.9830  10.5284  10.5937  10.7373

          k = 0.3750-0.1250 0.1250 (  1095 PWs)   bands (ev):

   -44.6351 -21.3182 -21.2903 -21.2327  -6.0013  -5.1846  -5.0986  -4.1119
    -4.0507  -4.0360  -3.9580  -3.8325   3.8328   6.8881   7.3626   7.7767
     8.3731   8.7983   9.2297   9.8149   9.9186  10.7916

          k = 0.3750-0.3750 0.1250 (  1093 PWs)   bands (ev):

   -44.6339 -21.3163 -21.2874 -21.2867  -5.8432  -5.0284  -4.9539  -4.0768
    -4.0409  -3.9758  -3.8928  -3.7835   3.4951   6.7977   6.8920   7.1510
     7.4653   8.6509   9.4893   9.5049   9.9560  10.7389

     highest occupied level (ev):    10.9157

!    total energy              =    -333.17236213 Ry
     estimated scf accuracy    <          7.8E-09 Ry

     The total energy is the sum of the following terms:
     one-electron contribution =     -77.31630037 Ry
     hartree contribution      =      66.55039604 Ry
     xc contribution           =     -49.64419714 Ry
     ewald contribution        =    -272.76226067 Ry

     convergence has been achieved in   9 iterations

     Forces acting on atoms (cartesian axes, Ry/au):

     atom    1 type  2   force =     0.00000000    0.00000000   -0.02890999
     atom    2 type  3   force =     0.00000000    0.00000000    0.05795282
     atom    3 type  1   force =     0.00000000    0.00000000   -0.01892669
     atom    4 type  1   force =     0.00000000    0.00000000   -0.01892669
     atom    5 type  1   force =     0.00000000    0.00000000    0.00881056
     The non-local contrib.  to forces
     atom    1 type  2   force =     0.00000000    0.00000000    0.04291713
     atom    2 type  3   force =     0.00000000    0.00000000   -0.03583757
     atom    3 type  1   force =     0.00000000    0.00000000   -0.21707710
     atom    4 type  1   force =     0.00000000    0.00000000   -0.21707710
     atom    5 type  1   force =     0.00000000    0.00000000    0.35580526
     The ionic contribution  to forces
     atom    1 type  2   force =     0.00000000    0.00000000   -1.83128041
     atom    2 type  3   force =    -0.00000000   -0.00000000    1.91145498
     atom    3 type  1   force =     0.00000000   -0.00000000    1.67034718
     atom    4 type  1   force =    -0.00000000    0.00000000    1.67034718
     atom    5 type  1   force =    -0.00000000   -0.00000000   -3.42086893
     The local contribution  to forces
     atom    1 type  2   force =    -0.00000000    0.00000000    1.75943978
     atom    2 type  3   force =    -0.00000000   -0.00000000   -1.81765725
     atom    3 type  1   force =     0.00000000   -0.00000000   -1.47215337
     atom    4 type  1   force =    -0.00000000   -0.00000000   -1.47215337
     atom    5 type  1   force =    -0.00000000   -0.00000000    3.07385085
     The core correction contribution to forces
     atom    1 type  2   force =     0.00000000    0.00000000    0.00000000
     atom    2 type  3   force =     0.00000000    0.00000000    0.00000000
     atom    3 type  1   force =     0.00000000    0.00000000    0.00000000
     atom    4 type  1   force =     0.00000000    0.00000000    0.00000000
     atom    5 type  1   force =     0.00000000    0.00000000    0.00000000
     The Hubbard contrib.    to forces
     atom    1 type  2   force =     0.00000000    0.00000000    0.00000000
     atom    2 type  3   force =     0.00000000    0.00000000    0.00000000
     atom    3 type  1   force =     0.00000000    0.00000000    0.00000000
     atom    4 type  1   force =     0.00000000    0.00000000    0.00000000
     atom    5 type  1   force =     0.00000000    0.00000000    0.00000000
     The SCF correction term to forces
     atom    1 type  2   force =     0.00000000   -0.00000000    0.00000000
     atom    2 type  3   force =     0.00000000   -0.00000000    0.00000000
     atom    3 type  1   force =    -0.00000000   -0.00000000   -0.00002570
     atom    4 type  1   force =     0.00000000    0.00000000   -0.00002570
     atom    5 type  1   force =     0.00000000    0.00000000    0.00004109

     Total force =     0.028179     Total SCF correction =     0.000055


     Computing stress (Cartesian axis) and pressure

          total   stress  (Ry/bohr**3)                   (kbar)     P=      -12.95
  -0.00014086   0.00000000   0.00000000          -20.72        0.00        0.00
   0.00000000  -0.00014086   0.00000000            0.00      -20.72        0.00
   0.00000000   0.00000000   0.00001771            0.00        0.00        2.61

     Energy error            =      1.4E-03 Ry
     Gradient error          =      1.9E-02 Ry/Bohr

     number of scf cycles    =   4
     number of bfgs steps    =   3

     energy             old  =    -333.1709329909 Ry
     energy             new  =    -333.1723621276 Ry

     CASE: energy            _new < energy            _old

     new trust radius        =       0.0555551839 bohr
     new conv_thr            =       0.0000000143 Ry


ATOMIC_POSITIONS (angstrom)
Pb            0.0000000000        0.0000000000        0.0000000000    0   0   0
Ti            1.9400000000        1.9400000000        1.6745300000    0   0   0
O             0.0000000000        1.9400000000        1.8727050598
O             1.9400000000        0.0000000000        1.8727050598
O             1.9400000000        1.9400000000       -0.1432919036



     Writing config-only to output data dir /home/gridsan/epan1/labutil/lab3_samples/problem2/Lab3/PbTiO3_a_3.88_ecut_30_nk_4_displ_-0.06842105263157895/pwscf.save/
     NEW-OLD atomic charge density approx. for the potential

     total cpu time spent up to now is       18.6 secs

     Self-consistent Calculation

     iteration #  1     ecut=    30.00 Ry     beta= 0.70
     Davidson diagonalization with overlap
     ethr =  1.00E-06,  avg # of iterations =  9.7

     total cpu time spent up to now is       19.0 secs

     total energy              =    -333.17370819 Ry
     estimated scf accuracy    <       0.00075256 Ry

     iteration #  2     ecut=    30.00 Ry     beta= 0.70
     Davidson diagonalization with overlap
     ethr =  1.71E-06,  avg # of iterations =  4.2

     total cpu time spent up to now is       19.4 secs

     total energy              =    -333.17368768 Ry
     estimated scf accuracy    <       0.00056015 Ry

     iteration #  3     ecut=    30.00 Ry     beta= 0.70
     Davidson diagonalization with overlap
     ethr =  1.27E-06,  avg # of iterations =  4.5

     total cpu time spent up to now is       19.7 secs

     total energy              =    -333.17383485 Ry
     estimated scf accuracy    <       0.00023232 Ry

     iteration #  4     ecut=    30.00 Ry     beta= 0.70
     Davidson diagonalization with overlap
     ethr =  5.28E-07,  avg # of iterations =  3.3

     total cpu time spent up to now is       20.0 secs

     total energy              =    -333.17385403 Ry
     estimated scf accuracy    <       0.00002263 Ry

     iteration #  5     ecut=    30.00 Ry     beta= 0.70
     Davidson diagonalization with overlap
     ethr =  5.14E-08,  avg # of iterations =  5.0

     total cpu time spent up to now is       20.3 secs

     total energy              =    -333.17387056 Ry
     estimated scf accuracy    <       0.00002129 Ry

     iteration #  6     ecut=    30.00 Ry     beta= 0.70
     Davidson diagonalization with overlap
     ethr =  4.84E-08,  avg # of iterations =  1.0

     total cpu time spent up to now is       20.6 secs

     total energy              =    -333.17386754 Ry
     estimated scf accuracy    <       0.00001249 Ry

     iteration #  7     ecut=    30.00 Ry     beta= 0.70
     Davidson diagonalization with overlap
     ethr =  2.84E-08,  avg # of iterations =  2.8

     total cpu time spent up to now is       20.9 secs

     total energy              =    -333.17386957 Ry
     estimated scf accuracy    <       0.00000063 Ry

     iteration #  8     ecut=    30.00 Ry     beta= 0.70
     Davidson diagonalization with overlap
     ethr =  1.43E-09,  avg # of iterations =  4.7

     total cpu time spent up to now is       21.2 secs

     total energy              =    -333.17386990 Ry
     estimated scf accuracy    <       0.00000004 Ry

     iteration #  9     ecut=    30.00 Ry     beta= 0.70
     Davidson diagonalization with overlap
     ethr =  1.01E-10,  avg # of iterations =  4.8

     total cpu time spent up to now is       21.5 secs

     total energy              =    -333.17386990 Ry
     estimated scf accuracy    <       0.00000004 Ry

     iteration # 10     ecut=    30.00 Ry     beta= 0.70
     Davidson diagonalization with overlap
     ethr =  9.69E-11,  avg # of iterations =  2.7

     total cpu time spent up to now is       21.8 secs

     End of self-consistent calculation

          k = 0.1250 0.1250 0.1250 (  1096 PWs)   bands (ev):

   -44.6709 -21.3284 -21.2732 -21.2724  -6.3853  -5.3209  -5.2656  -4.0541
    -4.0403  -4.0298  -3.8618  -3.8446   4.5612   7.2262   7.2551   8.0199
     8.9190   9.0559   9.6364   9.7635  10.0199  10.1298

          k = 0.1250 0.1250 0.3750 (  1095 PWs)   bands (ev):

   -44.6696 -21.3857 -21.2709 -21.2700  -5.9414  -5.1875  -5.1416  -4.1063
    -4.0492  -4.0229  -3.9414  -3.8352   3.8212   6.7598   7.1383   7.7265
     8.4619   8.6029   9.3965   9.8145  10.1389  10.8920

          k = 0.1250 0.3750 0.3750 (  1093 PWs)   bands (ev):

   -44.6684 -21.3824 -21.3252 -21.2685  -5.7300  -5.0986  -4.9974  -4.0825
    -4.0393  -3.9839  -3.8902  -3.7175   3.4796   6.6259   6.9305   7.1166
     7.4755   8.6723   9.3209   9.4967  10.0191  10.6217

          k = 0.3750 0.3750 0.3750 (  1082 PWs)   bands (ev):

   -44.6670 -21.3797 -21.3226 -21.3224  -5.3856  -5.2094  -5.1748  -3.9977
    -3.9837  -3.7136  -3.6422  -3.6148   4.0770   5.8755   5.9209   6.6156
     7.1346   7.1695   7.9952  10.5562  10.6143  10.7102

          k = 0.3750-0.1250 0.1250 (  1095 PWs)   bands (ev):

   -44.6696 -21.3291 -21.3255 -21.2705  -5.9948  -5.1962  -5.1207  -4.1042
    -4.0416  -4.0289  -3.9451  -3.8252   3.8391   6.8548   7.3478   7.7786
     8.3754   8.7732   9.2514   9.8346   9.9517  10.7959

          k = 0.3750-0.3750 0.1250 (  1093 PWs)   bands (ev):

   -44.6684 -21.3268 -21.3249 -21.3231  -5.8177  -5.0501  -4.9785  -4.0705
    -4.0313  -3.9659  -3.8825  -3.7703   3.4853   6.7814   6.8726   7.1511
     7.4512   8.6438   9.4769   9.4840   9.9677  10.7124

     highest occupied level (ev):    10.8920

!    total energy              =    -333.17386989 Ry
     estimated scf accuracy    <       0.00000001 Ry

     The total energy is the sum of the following terms:
     one-electron contribution =     -77.39899700 Ry
     hartree contribution      =      66.58171765 Ry
     xc contribution           =     -49.64118339 Ry
     ewald contribution        =    -272.71540716 Ry

     convergence has been achieved in  10 iterations

     Forces acting on atoms (cartesian axes, Ry/au):

     atom    1 type  2   force =     0.00000000    0.00000000   -0.02684724
     atom    2 type  3   force =     0.00000000    0.00000000    0.04705851
     atom    3 type  1   force =     0.00000000    0.00000000   -0.01829525
     atom    4 type  1   force =     0.00000000    0.00000000   -0.01829525
     atom    5 type  1   force =     0.00000000    0.00000000    0.01637923
     The non-local contrib.  to forces
     atom    1 type  2   force =     0.00000000    0.00000000    0.06435730
     atom    2 type  3   force =     0.00000000    0.00000000   -0.03069414
     atom    3 type  1   force =     0.00000000    0.00000000   -0.21268404
     atom    4 type  1   force =     0.00000000    0.00000000   -0.21268404
     atom    5 type  1   force =     0.00000000    0.00000000    0.31481290
     The ionic contribution  to forces
     atom    1 type  2   force =     0.00000000    0.00000000   -2.15255840
     atom    2 type  3   force =    -0.00000000   -0.00000000    1.75460094
     atom    3 type  1   force =     0.00000000    0.00000000    1.68764383
     atom    4 type  1   force =    -0.00000000    0.00000000    1.68764383
     atom    5 type  1   force =    -0.00000000   -0.00000000   -2.97733019
     The local contribution  to forces
     atom    1 type  2   force =    -0.00000000   -0.00000000    2.06131272
     atom    2 type  3   force =    -0.00000000   -0.00000000   -1.67682906
     atom    3 type  1   force =     0.00000000   -0.00000000   -1.49323257
     atom    4 type  1   force =    -0.00000000    0.00000000   -1.49323257
     atom    5 type  1   force =    -0.00000000   -0.00000000    2.67883751
     The core correction contribution to forces
     atom    1 type  2   force =     0.00000000    0.00000000    0.00000000
     atom    2 type  3   force =     0.00000000    0.00000000    0.00000000
     atom    3 type  1   force =     0.00000000    0.00000000    0.00000000
     atom    4 type  1   force =     0.00000000    0.00000000    0.00000000
     atom    5 type  1   force =     0.00000000    0.00000000    0.00000000
     The Hubbard contrib.    to forces
     atom    1 type  2   force =     0.00000000    0.00000000    0.00000000
     atom    2 type  3   force =     0.00000000    0.00000000    0.00000000
     atom    3 type  1   force =     0.00000000    0.00000000    0.00000000
     atom    4 type  1   force =     0.00000000    0.00000000    0.00000000
     atom    5 type  1   force =     0.00000000    0.00000000    0.00000000
     The SCF correction term to forces
     atom    1 type  2   force =    -0.00000000   -0.00000000    0.00000000
     atom    2 type  3   force =    -0.00000000   -0.00000000   -0.00000000
     atom    3 type  1   force =    -0.00000000   -0.00000000   -0.00003116
     atom    4 type  1   force =    -0.00000000    0.00000000   -0.00003116
     atom    5 type  1   force =     0.00000000    0.00000000    0.00005031

     Total force =     0.030622     Total SCF correction =     0.000067


     Computing stress (Cartesian axis) and pressure

          total   stress  (Ry/bohr**3)                   (kbar)     P=      -14.96
  -0.00012830   0.00000000   0.00000000          -18.87        0.00        0.00
   0.00000000  -0.00012830   0.00000000            0.00      -18.87        0.00
   0.00000000   0.00000000  -0.00004854            0.00        0.00       -7.14

     Energy error            =      1.5E-03 Ry
     Gradient error          =      1.8E-02 Ry/Bohr

     number of scf cycles    =   5
     number of bfgs steps    =   4

     energy             old  =    -333.1723621276 Ry
     energy             new  =    -333.1738698891 Ry

     CASE: energy            _new < energy            _old

     new trust radius        =       0.0833327758 bohr
     new conv_thr            =       0.0000000151 Ry


ATOMIC_POSITIONS (angstrom)
Pb            0.0000000000        0.0000000000        0.0000000000    0   0   0
Ti            1.9400000000        1.9400000000        1.6745300000    0   0   0
O             0.0000000000        1.9400000000        1.8286072539
O             1.9400000000        0.0000000000        1.8286072539
O             1.9400000000        1.9400000000       -0.1699335728



     Writing config-only to output data dir /home/gridsan/epan1/labutil/lab3_samples/problem2/Lab3/PbTiO3_a_3.88_ecut_30_nk_4_displ_-0.06842105263157895/pwscf.save/
     NEW-OLD atomic charge density approx. for the potential

     total cpu time spent up to now is       22.9 secs

     Self-consistent Calculation

     iteration #  1     ecut=    30.00 Ry     beta= 0.70
     Davidson diagonalization with overlap
     ethr =  1.00E-06,  avg # of iterations =  9.5

     total cpu time spent up to now is       23.4 secs

     total energy              =    -333.17556834 Ry
     estimated scf accuracy    <       0.00136086 Ry

     iteration #  2     ecut=    30.00 Ry     beta= 0.70
     Davidson diagonalization with overlap
     ethr =  3.09E-06,  avg # of iterations =  4.0

     total cpu time spent up to now is       23.7 secs

     total energy              =    -333.17560772 Ry
     estimated scf accuracy    <       0.00061375 Ry

     iteration #  3     ecut=    30.00 Ry     beta= 0.70
     Davidson diagonalization with overlap
     ethr =  1.39E-06,  avg # of iterations =  4.5

     total cpu time spent up to now is       24.1 secs

     total energy              =    -333.17576293 Ry
     estimated scf accuracy    <       0.00043898 Ry

     iteration #  4     ecut=    30.00 Ry     beta= 0.70
     Davidson diagonalization with overlap
     ethr =  9.98E-07,  avg # of iterations =  3.0

     total cpu time spent up to now is       24.4 secs

     total energy              =    -333.17581369 Ry
     estimated scf accuracy    <       0.00002217 Ry

     iteration #  5     ecut=    30.00 Ry     beta= 0.70
     Davidson diagonalization with overlap
     ethr =  5.04E-08,  avg # of iterations =  6.2

     total cpu time spent up to now is       24.9 secs

     total energy              =    -333.17583806 Ry
     estimated scf accuracy    <       0.00004769 Ry

     iteration #  6     ecut=    30.00 Ry     beta= 0.70
     Davidson diagonalization with overlap
     ethr =  5.04E-08,  avg # of iterations =  2.3

     total cpu time spent up to now is       25.2 secs

     total energy              =    -333.17583107 Ry
     estimated scf accuracy    <       0.00002789 Ry

     iteration #  7     ecut=    30.00 Ry     beta= 0.70
     Davidson diagonalization with overlap
     ethr =  5.04E-08,  avg # of iterations =  3.8

     total cpu time spent up to now is       25.5 secs

     total energy              =    -333.17583522 Ry
     estimated scf accuracy    <       0.00000100 Ry

     iteration #  8     ecut=    30.00 Ry     beta= 0.70
     Davidson diagonalization with overlap
     ethr =  2.28E-09,  avg # of iterations =  4.7

     total cpu time spent up to now is       25.8 secs

     total energy              =    -333.17583569 Ry
     estimated scf accuracy    <       0.00000030 Ry

     iteration #  9     ecut=    30.00 Ry     beta= 0.70
     Davidson diagonalization with overlap
     ethr =  6.73E-10,  avg # of iterations =  3.3

     total cpu time spent up to now is       26.1 secs

     total energy              =    -333.17583573 Ry
     estimated scf accuracy    <       0.00000002 Ry

     iteration # 10     ecut=    30.00 Ry     beta= 0.70
     Davidson diagonalization with overlap
     ethr =  4.75E-11,  avg # of iterations =  5.0

     total cpu time spent up to now is       26.4 secs

     End of self-consistent calculation

          k = 0.1250 0.1250 0.1250 (  1096 PWs)   bands (ev):

   -44.7069 -21.3393 -21.3135 -21.3127  -6.3946  -5.3196  -5.3129  -4.0392
    -4.0293  -4.0185  -3.8526  -3.8293   4.5720   7.2351   7.2487   8.0363
     8.9663   9.0638   9.7288   9.7898   9.9649  10.1005

          k = 0.1250 0.1250 0.3750 (  1095 PWs)   bands (ev):

   -44.7056 -21.3961 -21.3112 -21.3103  -5.9764  -5.1960  -5.1640  -4.0897
    -4.0332  -4.0121  -3.9248  -3.8236   3.8535   6.7745   7.2108   7.7347
     8.4029   8.6315   9.3571   9.8433  10.0863  10.8608

          k = 0.1250 0.3750 0.3750 (  1093 PWs)   bands (ev):

   -44.7044 -21.3929 -21.3661 -21.3088  -5.7644  -5.0882  -5.0177  -4.0676
    -4.0253  -3.9697  -3.8757  -3.7067   3.4932   6.6709   6.8625   7.1202
     7.4412   8.6403   9.3293   9.4637  10.0312  10.6334

          k = 0.3750 0.3750 0.3750 (  1082 PWs)   bands (ev):

   -44.7031 -21.3902 -21.3635 -21.3633  -5.3823  -5.2074  -5.2041  -3.9828
    -3.9723  -3.6977  -3.6295  -3.6046   4.0629   5.8912   5.8916   6.6320
     7.0697   7.0759   8.0189  10.5830  10.6194  10.6822

          k = 0.3750-0.1250 0.1250 (  1095 PWs)   bands (ev):

   -44.7056 -21.3695 -21.3368 -21.3108  -5.9932  -5.2151  -5.1535  -4.0922
    -4.0275  -4.0169  -3.9230  -3.8110   3.8447   6.8096   7.3214   7.7813
     8.3765   8.7321   9.2723   9.8449   9.9906  10.8017

          k = 0.3750-0.3750 0.1250 (  1093 PWs)   bands (ev):

   -44.7044 -21.3666 -21.3657 -21.3349  -5.7871  -5.0856  -5.0190  -4.0598
    -4.0152  -3.9463  -3.8620  -3.7516   3.4667   6.7567   6.8373   7.1403
     7.4305   8.6373   9.4516   9.4618   9.9888  10.6723

     highest occupied level (ev):    10.8608

!    total energy              =    -333.17583536 Ry
     estimated scf accuracy    <          3.6E-09 Ry

     The total energy is the sum of the following terms:
     one-electron contribution =     -77.67254213 Ry
     hartree contribution      =      66.70804744 Ry
     xc contribution           =     -49.64204411 Ry
     ewald contribution        =    -272.56929656 Ry

     convergence has been achieved in  10 iterations

     Forces acting on atoms (cartesian axes, Ry/au):

     atom    1 type  2   force =     0.00000000    0.00000000   -0.02419442
     atom    2 type  3   force =     0.00000000    0.00000000    0.03759489
     atom    3 type  1   force =     0.00000000    0.00000000   -0.01606286
     atom    4 type  1   force =     0.00000000    0.00000000   -0.01606286
     atom    5 type  1   force =     0.00000000    0.00000000    0.01872523
     The non-local contrib.  to forces
     atom    1 type  2   force =     0.00000000    0.00000000    0.09610963
     atom    2 type  3   force =     0.00000000    0.00000000   -0.02580331
     atom    3 type  1   force =     0.00000000    0.00000000   -0.20319522
     atom    4 type  1   force =     0.00000000    0.00000000   -0.20319522
     atom    5 type  1   force =     0.00000000    0.00000000    0.25982051
     The ionic contribution  to forces
     atom    1 type  2   force =     0.00000000    0.00000000   -2.66090784
     atom    2 type  3   force =    -0.00000000   -0.00000000    1.73676963
     atom    3 type  1   force =     0.00000000   -0.00000000    1.72751217
     atom    4 type  1   force =    -0.00000000    0.00000000    1.72751217
     atom    5 type  1   force =     0.00000000    0.00000000   -2.53088612
     The local contribution  to forces
     atom    1 type  2   force =     0.00000000    0.00000000    2.54062860
     atom    2 type  3   force =    -0.00000000   -0.00000000   -1.67335996
     atom    3 type  1   force =     0.00000000   -0.00000000   -1.54038911
     atom    4 type  1   force =    -0.00000000   -0.00000000   -1.54038911
     atom    5 type  1   force =    -0.00000000   -0.00000000    2.28981035
     The core correction contribution to forces
     atom    1 type  2   force =     0.00000000    0.00000000    0.00000000
     atom    2 type  3   force =     0.00000000    0.00000000    0.00000000
     atom    3 type  1   force =     0.00000000    0.00000000    0.00000000
     atom    4 type  1   force =     0.00000000    0.00000000    0.00000000
     atom    5 type  1   force =     0.00000000    0.00000000    0.00000000
     The Hubbard contrib.    to forces
     atom    1 type  2   force =     0.00000000    0.00000000    0.00000000
     atom    2 type  3   force =     0.00000000    0.00000000    0.00000000
     atom    3 type  1   force =     0.00000000    0.00000000    0.00000000
     atom    4 type  1   force =     0.00000000    0.00000000    0.00000000
     atom    5 type  1   force =     0.00000000    0.00000000    0.00000000
     The SCF correction term to forces
     atom    1 type  2   force =     0.00000000   -0.00000000   -0.00000000
     atom    2 type  3   force =     0.00000000    0.00000000   -0.00000000
     atom    3 type  1   force =    -0.00000000   -0.00000000    0.00001284
     atom    4 type  1   force =     0.00000000   -0.00000000    0.00001284
     atom    5 type  1   force =    -0.00000000    0.00000000   -0.00001597

     Total force =     0.029439     Total SCF correction =     0.000024


     Computing stress (Cartesian axis) and pressure

          total   stress  (Ry/bohr**3)                   (kbar)     P=      -14.45
  -0.00010195   0.00000000   0.00000000          -15.00        0.00        0.00
   0.00000000  -0.00010195   0.00000000            0.00      -15.00        0.00
   0.00000000   0.00000000  -0.00009070            0.00        0.00      -13.34

     Energy error            =      2.0E-03 Ry
     Gradient error          =      1.9E-02 Ry/Bohr

     number of scf cycles    =   6
     number of bfgs steps    =   5

     energy             old  =    -333.1738698891 Ry
     energy             new  =    -333.1758353585 Ry

     CASE: energy            _new < energy            _old

     new trust radius        =       0.1249991638 bohr
     new conv_thr            =       0.0000000187 Ry


ATOMIC_POSITIONS (angstrom)
Pb            0.0000000000        0.0000000000        0.0000000000    0   0   0
Ti            1.9400000000        1.9400000000        1.6745300000    0   0   0
O             0.0000000000        1.9400000000        1.7624605450
O             1.9400000000        0.0000000000        1.7624605450
O             1.9400000000        1.9400000000       -0.2045667959



     Writing config-only to output data dir /home/gridsan/epan1/labutil/lab3_samples/problem2/Lab3/PbTiO3_a_3.88_ecut_30_nk_4_displ_-0.06842105263157895/pwscf.save/
     NEW-OLD atomic charge density approx. for the potential

     total cpu time spent up to now is       27.6 secs

     Self-consistent Calculation

     iteration #  1     ecut=    30.00 Ry     beta= 0.70
     Davidson diagonalization with overlap
     ethr =  1.00E-06,  avg # of iterations = 10.5

     total cpu time spent up to now is       28.1 secs

     total energy              =    -333.17766175 Ry
     estimated scf accuracy    <       0.00282956 Ry

     iteration #  2     ecut=    30.00 Ry     beta= 0.70
     Davidson diagonalization with overlap
     ethr =  6.43E-06,  avg # of iterations =  4.0

     total cpu time spent up to now is       28.5 secs

     total energy              =    -333.17784139 Ry
     estimated scf accuracy    <       0.00097188 Ry

     iteration #  3     ecut=    30.00 Ry     beta= 0.70
     Davidson diagonalization with overlap
     ethr =  2.21E-06,  avg # of iterations =  4.5

     total cpu time spent up to now is       28.8 secs

     total energy              =    -333.17807334 Ry
     estimated scf accuracy    <       0.00077960 Ry

     iteration #  4     ecut=    30.00 Ry     beta= 0.70
     Davidson diagonalization with overlap
     ethr =  1.77E-06,  avg # of iterations =  3.2

     total cpu time spent up to now is       29.1 secs

     total energy              =    -333.17818108 Ry
     estimated scf accuracy    <       0.00002187 Ry

     iteration #  5     ecut=    30.00 Ry     beta= 0.70
     Davidson diagonalization with overlap
     ethr =  4.97E-08,  avg # of iterations =  7.0

     total cpu time spent up to now is       29.5 secs

     total energy              =    -333.17821336 Ry
     estimated scf accuracy    <       0.00008082 Ry

     iteration #  6     ecut=    30.00 Ry     beta= 0.70
     Davidson diagonalization with overlap
     ethr =  4.97E-08,  avg # of iterations =  3.8

     total cpu time spent up to now is       29.8 secs

     total energy              =    -333.17820874 Ry
     estimated scf accuracy    <       0.00002865 Ry

     iteration #  7     ecut=    30.00 Ry     beta= 0.70
     Davidson diagonalization with overlap
     ethr =  4.97E-08,  avg # of iterations =  4.3

     total cpu time spent up to now is       30.1 secs

     total energy              =    -333.17821275 Ry
     estimated scf accuracy    <       0.00000073 Ry

     iteration #  8     ecut=    30.00 Ry     beta= 0.70
     Davidson diagonalization with overlap
     ethr =  1.65E-09,  avg # of iterations =  5.3

     total cpu time spent up to now is       30.5 secs

     total energy              =    -333.17821328 Ry
     estimated scf accuracy    <       0.00000079 Ry

     iteration #  9     ecut=    30.00 Ry     beta= 0.70
     Davidson diagonalization with overlap
     ethr =  1.65E-09,  avg # of iterations =  3.0

     total cpu time spent up to now is       30.8 secs

     total energy              =    -333.17821330 Ry
     estimated scf accuracy    <       0.00000014 Ry

     iteration # 10     ecut=    30.00 Ry     beta= 0.70
     Davidson diagonalization with overlap
     ethr =  3.11E-10,  avg # of iterations =  5.0

     total cpu time spent up to now is       31.1 secs

     total energy              =    -333.17821337 Ry
     estimated scf accuracy    <       0.00000005 Ry

     iteration # 11     ecut=    30.00 Ry     beta= 0.70
     Davidson diagonalization with overlap
     ethr =  1.07E-10,  avg # of iterations =  1.0

     total cpu time spent up to now is       31.4 secs

     total energy              =    -333.17821337 Ry
     estimated scf accuracy    <       0.00000003 Ry

     iteration # 12     ecut=    30.00 Ry     beta= 0.70
     Davidson diagonalization with overlap
     ethr =  6.59E-11,  avg # of iterations =  2.2

     total cpu time spent up to now is       31.6 secs

     End of self-consistent calculation

          k = 0.1250 0.1250 0.1250 (  1096 PWs)   bands (ev):

   -44.7486 -21.3606 -21.3596 -21.3557  -6.4220  -5.3872  -5.3131  -4.0132
    -4.0077  -3.9944  -3.8342  -3.7929   4.5877   7.2303   7.2422   8.0521
     9.0149   9.0547   9.8070   9.8521   9.8916  10.0449

          k = 0.1250 0.1250 0.3750 (  1095 PWs)   bands (ev):

   -44.7473 -21.4122 -21.3582 -21.3572  -6.0392  -5.2807  -5.1282  -4.0600
    -4.0041  -3.9897  -3.8862  -3.8012   3.8976   6.7944   7.2810   7.7212
     8.3327   8.6713   9.2927   9.8677  10.0055  10.8272

          k = 0.1250 0.3750 0.3750 (  1093 PWs)   bands (ev):

   -44.7461 -21.4138 -21.4088 -21.3557  -5.8236  -5.1272  -5.0086  -4.0405
    -3.9993  -3.9420  -3.8459  -3.6778   3.5146   6.7065   6.7882   7.0943
     7.4148   8.5859   9.3088   9.4381  10.0483  10.6459

          k = 0.3750 0.3750 0.3750 (  1082 PWs)   bands (ev):

   -44.7448 -21.4112 -21.4108 -21.4061  -5.4071  -5.2575  -5.1900  -3.9554
    -3.9489  -3.6729  -3.6007  -3.5784   4.0299   5.8528   5.9096   6.6354
     6.9653   6.9988   8.0733  10.5674  10.6073  10.6817

          k = 0.3750-0.1250 0.1250 (  1095 PWs)   bands (ev):

   -44.7473 -21.4170 -21.3578 -21.3533  -6.0081  -5.2498  -5.2003  -4.0687
    -4.0021  -3.9911  -3.8805  -3.7797   3.8503   6.7487   7.2793   7.7799
     8.3700   8.6782   9.2911   9.8397  10.0265  10.8174

          k = 0.3750-0.3750 0.1250 (  1093 PWs)   bands (ev):

   -44.7461 -21.4141 -21.4132 -21.3515  -5.7517  -5.1469  -5.0925  -4.0376
    -3.9842  -3.9052  -3.8179  -3.7195   3.4314   6.7161   6.7801   7.1208
     7.4120   8.6359   9.4121   9.4465  10.0277  10.6074

     highest occupied level (ev):    10.8272

!    total energy              =    -333.17821336 Ry
     estimated scf accuracy    <          8.7E-09 Ry

     The total energy is the sum of the following terms:
     one-electron contribution =     -78.22322536 Ry
     hartree contribution      =      66.97146474 Ry
     xc contribution           =     -49.64799849 Ry
     ewald contribution        =    -272.27845425 Ry

     convergence has been achieved in  12 iterations

     Forces acting on atoms (cartesian axes, Ry/au):

     atom    1 type  2   force =     0.00000000    0.00000000   -0.02138738
     atom    2 type  3   force =     0.00000000    0.00000000    0.03056889
     atom    3 type  1   force =     0.00000000    0.00000000   -0.01179518
     atom    4 type  1   force =     0.00000000    0.00000000   -0.01179518
     atom    5 type  1   force =     0.00000000    0.00000000    0.01440885
     The non-local contrib.  to forces
     atom    1 type  2   force =     0.00000000    0.00000000    0.14272753
     atom    2 type  3   force =     0.00000000    0.00000000   -0.02124757
     atom    3 type  1   force =     0.00000000    0.00000000   -0.18883920
     atom    4 type  1   force =     0.00000000    0.00000000   -0.18883920
     atom    5 type  1   force =     0.00000000    0.00000000    0.18194426
     The ionic contribution  to forces
     atom    1 type  2   force =     0.00000000    0.00000000   -3.43339038
     atom    2 type  3   force =    -0.00000000   -0.00000000    1.87395172
     atom    3 type  1   force =     0.00000000   -0.00000000    1.78357972
     atom    4 type  1   force =    -0.00000000    0.00000000    1.78357972
     atom    5 type  1   force =    -0.00000000   -0.00000000   -2.00772077
     The local contribution  to forces
     atom    1 type  2   force =    -0.00000000   -0.00000000    3.26927322
     atom    2 type  3   force =    -0.00000000   -0.00000000   -1.82214013
     atom    3 type  1   force =     0.00000000   -0.00000000   -1.60654962
     atom    4 type  1   force =    -0.00000000    0.00000000   -1.60654962
     atom    5 type  1   force =    -0.00000000   -0.00000000    1.84019901
     The core correction contribution to forces
     atom    1 type  2   force =     0.00000000    0.00000000    0.00000000
     atom    2 type  3   force =     0.00000000    0.00000000    0.00000000
     atom    3 type  1   force =     0.00000000    0.00000000    0.00000000
     atom    4 type  1   force =     0.00000000    0.00000000    0.00000000
     atom    5 type  1   force =     0.00000000    0.00000000    0.00000000
     The Hubbard contrib.    to forces
     atom    1 type  2   force =     0.00000000    0.00000000    0.00000000
     atom    2 type  3   force =     0.00000000    0.00000000    0.00000000
     atom    3 type  1   force =     0.00000000    0.00000000    0.00000000
     atom    4 type  1   force =     0.00000000    0.00000000    0.00000000
     atom    5 type  1   force =     0.00000000    0.00000000    0.00000000
     The SCF correction term to forces
     atom    1 type  2   force =    -0.00000000   -0.00000000   -0.00000000
     atom    2 type  3   force =     0.00000000   -0.00000000    0.00000000
     atom    3 type  1   force =    -0.00000000    0.00000000    0.00001011
     atom    4 type  1   force =    -0.00000000    0.00000000    0.00001011
     atom    5 type  1   force =     0.00000000    0.00000000   -0.00001746

     Total force =     0.022042     Total SCF correction =     0.000023


     Computing stress (Cartesian axis) and pressure

          total   stress  (Ry/bohr**3)                   (kbar)     P=      -11.51
  -0.00006292   0.00000000   0.00000000           -9.26        0.00        0.00
   0.00000000  -0.00006292   0.00000000            0.00       -9.26        0.00
   0.00000000   0.00000000  -0.00010887            0.00        0.00      -16.02

     Energy error            =      2.4E-03 Ry
     Gradient error          =      1.4E-02 Ry/Bohr

     number of scf cycles    =   7
     number of bfgs steps    =   6

     energy             old  =    -333.1758353585 Ry
     energy             new  =    -333.1782133600 Ry

     CASE: energy            _new < energy            _old

     new trust radius        =       0.1874987456 bohr
     new conv_thr            =       0.0000000144 Ry


ATOMIC_POSITIONS (angstrom)
Pb            0.0000000000        0.0000000000        0.0000000000    0   0   0
Ti            1.9400000000        1.9400000000        1.6745300000    0   0   0
O             0.0000000000        1.9400000000        1.6632404818
O             1.9400000000        0.0000000000        1.6632404818
O             1.9400000000        1.9400000000       -0.2555230801



     Writing config-only to output data dir /home/gridsan/epan1/labutil/lab3_samples/problem2/Lab3/PbTiO3_a_3.88_ecut_30_nk_4_displ_-0.06842105263157895/pwscf.save/
     NEW-OLD atomic charge density approx. for the potential

     total cpu time spent up to now is       32.7 secs

     Self-consistent Calculation

     iteration #  1     ecut=    30.00 Ry     beta= 0.70
     Davidson diagonalization with overlap
     ethr =  1.00E-06,  avg # of iterations = 10.5

     total cpu time spent up to now is       33.3 secs

     total energy              =    -333.17929660 Ry
     estimated scf accuracy    <       0.00623850 Ry

     iteration #  2     ecut=    30.00 Ry     beta= 0.70
     Davidson diagonalization with overlap
     ethr =  1.42E-05,  avg # of iterations =  4.2

     total cpu time spent up to now is       33.6 secs

     total energy              =    -333.17970321 Ry
     estimated scf accuracy    <       0.00200440 Ry

     iteration #  3     ecut=    30.00 Ry     beta= 0.70
     Davidson diagonalization with overlap
     ethr =  4.56E-06,  avg # of iterations =  5.0

     total cpu time spent up to now is       34.0 secs

     total energy              =    -333.18016015 Ry
     estimated scf accuracy    <       0.00176470 Ry

     iteration #  4     ecut=    30.00 Ry     beta= 0.70
     Davidson diagonalization with overlap
     ethr =  4.01E-06,  avg # of iterations =  3.8

     total cpu time spent up to now is       34.3 secs

     total energy              =    -333.18046290 Ry
     estimated scf accuracy    <       0.00001222 Ry

     iteration #  5     ecut=    30.00 Ry     beta= 0.70
     Davidson diagonalization with overlap
     ethr =  2.78E-08,  avg # of iterations =  7.8

     total cpu time spent up to now is       34.7 secs

     total energy              =    -333.18049104 Ry
     estimated scf accuracy    <       0.00004466 Ry

     iteration #  6     ecut=    30.00 Ry     beta= 0.70
     Davidson diagonalization with overlap
     ethr =  2.78E-08,  avg # of iterations =  4.5

     total cpu time spent up to now is       35.0 secs

     total energy              =    -333.18049208 Ry
     estimated scf accuracy    <       0.00000862 Ry

     iteration #  7     ecut=    30.00 Ry     beta= 0.70
     Davidson diagonalization with overlap
     ethr =  1.96E-08,  avg # of iterations =  4.7

     total cpu time spent up to now is       35.4 secs

     total energy              =    -333.18049421 Ry
     estimated scf accuracy    <       0.00000044 Ry

     iteration #  8     ecut=    30.00 Ry     beta= 0.70
     Davidson diagonalization with overlap
     ethr =  1.01E-09,  avg # of iterations =  4.0

     total cpu time spent up to now is       35.7 secs

     total energy              =    -333.18049417 Ry
     estimated scf accuracy    <       0.00000045 Ry

     iteration #  9     ecut=    30.00 Ry     beta= 0.70
     Davidson diagonalization with overlap
     ethr =  1.01E-09,  avg # of iterations =  4.5

     total cpu time spent up to now is       36.0 secs

     End of self-consistent calculation

          k = 0.1250 0.1250 0.1250 (  1096 PWs)   bands (ev):

   -44.8017 -21.4188 -21.4179 -21.3863  -6.4908  -5.5050  -5.2939  -3.9654
    -3.9618  -3.9386  -3.7940  -3.7075   4.6118   7.1780   7.2294   8.0533
     9.0136   9.0502   9.7230   9.8672   9.8716  10.0812

          k = 0.1250 0.1250 0.3750 (  1095 PWs)   bands (ev):

   -44.8005 -21.4421 -21.4165 -21.4155  -6.1526  -5.4132  -5.0735  -4.0048
    -3.9497  -3.9371  -3.7956  -3.7551   3.9576   6.8172   7.2661   7.6440
     8.3127   8.7005   9.2130   9.8383   9.9056  10.8159

          k = 0.1250 0.3750 0.3750 (  1093 PWs)   bands (ev):

   -44.7993 -21.4724 -21.4387 -21.4140  -5.9269  -5.2448  -4.9680  -3.9879
    -3.9453  -3.8856  -3.7812  -3.6054   3.5526   6.6341   6.7845   7.0165
     7.4001   8.5024   9.2267   9.4400  10.0936  10.6498

          k = 0.3750 0.3750 0.3750 (  1082 PWs)   bands (ev):

   -44.7980 -21.4698 -21.4695 -21.4360  -5.4926  -5.3593  -5.1476  -3.9006
    -3.8978  -3.6282  -3.5384  -3.5137   3.9557   5.8102   5.9281   6.5883
     6.8728   6.9616   8.1978  10.4511  10.6189  10.6894

          k = 0.3750-0.1250 0.1250 (  1095 PWs)   bands (ev):

   -44.8005 -21.4757 -21.4160 -21.3839  -6.0666  -5.3461  -5.2345  -4.0185
    -3.9536  -3.9330  -3.7983  -3.7061   3.8556   6.6705   7.2222   7.7571
     8.3302   8.6313   9.3007   9.8047  10.0235  10.8629

          k = 0.3750-0.3750 0.1250 (  1093 PWs)   bands (ev):

   -44.7993 -21.4727 -21.4719 -21.3820  -5.7265  -5.2484  -5.2273  -3.9879
    -3.9229  -3.8210  -3.7226  -3.6593   3.3632   6.6457   6.6994   7.1064
     7.4200   8.6487   9.3829   9.4335  10.0971  10.4999

     highest occupied level (ev):    10.8629

!    total energy              =    -333.18049427 Ry
     estimated scf accuracy    <       0.00000001 Ry

     The total energy is the sum of the following terms:
[...]
     Davidson diagonalization with overlap
     ethr =  6.85E-09,  avg # of iterations =  1.8

     total cpu time spent up to now is       55.6 secs

     total energy              =    -333.18208522 Ry
     estimated scf accuracy    <       0.00000294 Ry

     iteration #  7     ecut=    30.00 Ry     beta= 0.70
     Davidson diagonalization with overlap
     ethr =  6.68E-09,  avg # of iterations =  3.8

     total cpu time spent up to now is       55.9 secs

     total energy              =    -333.18208571 Ry
     estimated scf accuracy    <       0.00000012 Ry

     iteration #  8     ecut=    30.00 Ry     beta= 0.70
     Davidson diagonalization with overlap
     ethr =  2.63E-10,  avg # of iterations =  5.8

     total cpu time spent up to now is       56.2 secs

     total energy              =    -333.18208579 Ry
     estimated scf accuracy    <       0.00000006 Ry

     iteration #  9     ecut=    30.00 Ry     beta= 0.70
     Davidson diagonalization with overlap
     ethr =  1.37E-10,  avg # of iterations =  2.3

     total cpu time spent up to now is       56.5 secs

     total energy              =    -333.18208578 Ry
     estimated scf accuracy    <       0.00000002 Ry

     iteration # 10     ecut=    30.00 Ry     beta= 0.70
     Davidson diagonalization with overlap
     ethr =  4.55E-11,  avg # of iterations =  4.5

     total cpu time spent up to now is       56.8 secs

     End of self-consistent calculation

          k = 0.1250 0.1250 0.1250 (  1096 PWs)   bands (ev):

   -44.8029 -21.4229 -21.4217 -21.4082  -6.6181  -5.6672  -5.2816  -3.8888
    -3.8842  -3.8412  -3.7291  -3.5386   4.6362   7.0448   7.1841   8.0550
     8.9239   8.9797   9.5904   9.6009   9.7925  10.2203

          k = 0.1250 0.1250 0.3750 (  1095 PWs)   bands (ev):

   -44.8017 -21.4645 -21.4202 -21.4193  -6.3180  -5.5922  -5.0309  -3.9209
    -3.8644  -3.8396  -3.6870  -3.6159   4.0023   6.8094   7.0406   7.5112
     8.4089   8.5707   9.1741   9.6798   9.8081  10.8804

          k = 0.1250 0.3750 0.3750 (  1093 PWs)   bands (ev):

   -44.8005 -21.4761 -21.4609 -21.4178  -6.0752  -5.4447  -4.9535  -3.9060
    -3.8505  -3.7954  -3.6661  -3.4582   3.6078   6.4623   6.7528   6.9599
     7.3447   8.4393   9.0943   9.3874  10.2086  10.5872

          k = 0.3750 0.3750 0.3750 (  1082 PWs)   bands (ev):

   -44.7991 -21.4735 -21.4730 -21.4579  -5.6557  -5.5294  -5.1114  -3.8129
    -3.8054  -3.5695  -3.4328  -3.3823   3.8057   5.7741   5.9271   6.4815
     6.9173   7.0109   8.4409  10.2852  10.5429  10.6280

          k = 0.3750-0.1250 0.1250 (  1095 PWs)   bands (ev):

   -44.8017 -21.4792 -21.4200 -21.4059  -6.1923  -5.5255  -5.2739  -3.9284
    -3.8734  -3.8371  -3.6700  -3.5531   3.8577   6.6012   7.1578   7.6958
     8.2216   8.6283   9.2354   9.7034   9.8649  10.9413

          k = 0.3750-0.3750 0.1250 (  1093 PWs)   bands (ev):

   -44.8004 -21.4763 -21.4754 -21.4040  -5.7770  -5.4382  -5.3761  -3.8960
    -3.8268  -3.6898  -3.5641  -3.5497   3.2409   6.5542   6.6549   7.1136
     7.4865   8.6765   9.3759   9.3767  10.1936  10.3412

     highest occupied level (ev):    10.9413

!    total energy              =    -333.18208579 Ry
     estimated scf accuracy    <          9.8E-10 Ry

     The total energy is the sum of the following terms:
     one-electron contribution =     -80.92380539 Ry
     hartree contribution      =      68.31097251 Ry
     xc contribution           =     -49.69981525 Ry
     ewald contribution        =    -270.86943766 Ry

     convergence has been achieved in  10 iterations

     Forces acting on atoms (cartesian axes, Ry/au):

     atom    1 type  2   force =     0.00000000    0.00000000   -0.02824271
     atom    2 type  3   force =     0.00000000    0.00000000    0.03003030
     atom    3 type  1   force =     0.00000000    0.00000000    0.00179737
     atom    4 type  1   force =     0.00000000    0.00000000    0.00179737
     atom    5 type  1   force =     0.00000000    0.00000000   -0.00538234
     The non-local contrib.  to forces
     atom    1 type  2   force =     0.00000000    0.00000000    0.29883639
     atom    2 type  3   force =     0.00000000    0.00000000   -0.00384988
     atom    3 type  1   force =     0.00000000    0.00000000   -0.15060683
     atom    4 type  1   force =     0.00000000    0.00000000   -0.15060683
     atom    5 type  1   force =     0.00000000    0.00000000   -0.14092023
     The ionic contribution  to forces
     atom    1 type  2   force =     0.00000000    0.00000000   -5.90097977
     atom    2 type  3   force =    -0.00000000   -0.00000000    1.55919311
     atom    3 type  1   force =     0.00000000   -0.00000000    1.74259721
     atom    4 type  1   force =    -0.00000000    0.00000000    1.74259721
     atom    5 type  1   force =    -0.00000000   -0.00000000    0.85659223
     The local contribution  to forces
     atom    1 type  2   force =    -0.00000000   -0.00000000    5.57388535
     atom    2 type  3   force =    -0.00000000   -0.00000000   -1.52527909
     atom    3 type  1   force =     0.00000000   -0.00000000   -1.59017749
     atom    4 type  1   force =    -0.00000000    0.00000000   -1.59017749
     atom    5 type  1   force =    -0.00000000   -0.00000000   -0.72104332
     The core correction contribution to forces
     atom    1 type  2   force =     0.00000000    0.00000000    0.00000000
     atom    2 type  3   force =     0.00000000    0.00000000    0.00000000
     atom    3 type  1   force =     0.00000000    0.00000000    0.00000000
     atom    4 type  1   force =     0.00000000    0.00000000    0.00000000
     atom    5 type  1   force =     0.00000000    0.00000000    0.00000000
     The Hubbard contrib.    to forces
     atom    1 type  2   force =     0.00000000    0.00000000    0.00000000
     atom    2 type  3   force =     0.00000000    0.00000000    0.00000000
     atom    3 type  1   force =     0.00000000    0.00000000    0.00000000
     atom    4 type  1   force =     0.00000000    0.00000000    0.00000000
     atom    5 type  1   force =     0.00000000    0.00000000    0.00000000
     The SCF correction term to forces
     atom    1 type  2   force =    -0.00000000   -0.00000000    0.00000000
     atom    2 type  3   force =     0.00000000   -0.00000000   -0.00000000
     atom    3 type  1   force =     0.00000000   -0.00000000   -0.00000316
     atom    4 type  1   force =     0.00000000    0.00000000   -0.00000316
     atom    5 type  1   force =     0.00000000    0.00000000    0.00000136

     Total force =     0.005952     Total SCF correction =     0.000005


     Computing stress (Cartesian axis) and pressure

          total   stress  (Ry/bohr**3)                   (kbar)     P=       14.53
   0.00008288   0.00000000   0.00000000           12.19        0.00        0.00
   0.00000000   0.00008288   0.00000000            0.00       12.19        0.00
   0.00000000   0.00000000   0.00013047            0.00        0.00       19.19

     Energy error            =      1.7E-04 Ry
     Gradient error          =      5.4E-03 Ry/Bohr

     number of scf cycles    =  13
     number of bfgs steps    =  12

     energy             old  =    -333.1819114614 Ry
     energy             new  =    -333.1820857886 Ry

     CASE: energy            _new < energy            _old

     new trust radius        =       0.0245215919 bohr
     new conv_thr            =       0.0000000017 Ry


ATOMIC_POSITIONS (angstrom)
Pb            0.0000000000        0.0000000000        0.0000000000    0   0   0
Ti            1.9400000000        1.9400000000        1.6745300000    0   0   0
O             0.0000000000        1.9400000000        1.5240901420
O             1.9400000000        0.0000000000        1.5240901420
O             1.9400000000        1.9400000000       -0.3784242438



     Writing config-only to output data dir /home/gridsan/epan1/labutil/lab3_samples/problem2/Lab3/PbTiO3_a_3.88_ecut_30_nk_4_displ_-0.06842105263157895/pwscf.save/
     NEW-OLD atomic charge density approx. for the potential

     total cpu time spent up to now is       58.0 secs

     Self-consistent Calculation

     iteration #  1     ecut=    30.00 Ry     beta= 0.70
     Davidson diagonalization with overlap
     ethr =  1.00E-06,  avg # of iterations =  5.5

     total cpu time spent up to now is       58.4 secs

     total energy              =    -333.18210163 Ry
     estimated scf accuracy    <       0.00011576 Ry

     iteration #  2     ecut=    30.00 Ry     beta= 0.70
     Davidson diagonalization with overlap
     ethr =  2.63E-07,  avg # of iterations =  4.8

     total cpu time spent up to now is       58.7 secs

     total energy              =    -333.18210809 Ry
     estimated scf accuracy    <       0.00009846 Ry

     iteration #  3     ecut=    30.00 Ry     beta= 0.70
     Davidson diagonalization with overlap
     ethr =  2.24E-07,  avg # of iterations =  4.5

     total cpu time spent up to now is       59.0 secs

     total energy              =    -333.18213258 Ry
     estimated scf accuracy    <       0.00002351 Ry

     iteration #  4     ecut=    30.00 Ry     beta= 0.70
     Davidson diagonalization with overlap
     ethr =  5.34E-08,  avg # of iterations =  3.7

     total cpu time spent up to now is       59.3 secs

     total energy              =    -333.18213511 Ry
     estimated scf accuracy    <       0.00000180 Ry

     iteration #  5     ecut=    30.00 Ry     beta= 0.70
     Davidson diagonalization with overlap
     ethr =  4.10E-09,  avg # of iterations =  5.8

     total cpu time spent up to now is       59.7 secs

     total energy              =    -333.18213636 Ry
     estimated scf accuracy    <       0.00000151 Ry

     iteration #  6     ecut=    30.00 Ry     beta= 0.70
     Davidson diagonalization with overlap
     ethr =  3.44E-09,  avg # of iterations =  1.5

     total cpu time spent up to now is       59.9 secs

     total energy              =    -333.18213618 Ry
     estimated scf accuracy    <       0.00000072 Ry

     iteration #  7     ecut=    30.00 Ry     beta= 0.70
     Davidson diagonalization with overlap
     ethr =  1.63E-09,  avg # of iterations =  3.8

     total cpu time spent up to now is       60.3 secs

     total energy              =    -333.18213639 Ry
     estimated scf accuracy    <       0.00000002 Ry

     iteration #  8     ecut=    30.00 Ry     beta= 0.70
     Davidson diagonalization with overlap
     ethr =  4.64E-11,  avg # of iterations =  5.0

     total cpu time spent up to now is       60.6 secs

     total energy              =    -333.18213640 Ry
     estimated scf accuracy    <       0.00000002 Ry

     iteration #  9     ecut=    30.00 Ry     beta= 0.70
     Davidson diagonalization with overlap
     ethr =  4.19E-11,  avg # of iterations =  2.0

     total cpu time spent up to now is       60.9 secs

     total energy              =    -333.18213640 Ry
     estimated scf accuracy    <          7.6E-09 Ry

     iteration # 10     ecut=    30.00 Ry     beta= 0.70
     Davidson diagonalization with overlap
     ethr =  1.73E-11,  avg # of iterations =  4.7

     total cpu time spent up to now is       61.2 secs

     End of self-consistent calculation

          k = 0.1250 0.1250 0.1250 (  1096 PWs)   bands (ev):

   -44.7866 -21.4074 -21.4055 -21.4018  -6.6171  -5.6675  -5.2860  -3.8905
    -3.8856  -3.8429  -3.7318  -3.5378   4.6333   7.0479   7.1817   8.0658
     8.9218   8.9652   9.5725   9.5892   9.7857  10.2126

          k = 0.1250 0.1250 0.3750 (  1095 PWs)   bands (ev):

   -44.7853 -21.4590 -21.4040 -21.4031  -6.3163  -5.5925  -5.0354  -3.9223
    -3.8654  -3.8415  -3.6905  -3.6148   3.9945   6.8085   7.0388   7.5176
     8.4022   8.5620   9.1644   9.6785   9.8047  10.8819

          k = 0.1250 0.3750 0.3750 (  1093 PWs)   bands (ev):

   -44.7841 -21.4603 -21.4549 -21.4016  -6.0743  -5.4454  -4.9589  -3.9075
    -3.8519  -3.7976  -3.6669  -3.4570   3.6067   6.4524   6.7509   6.9626
     7.3460   8.4413   9.0937   9.3717  10.2058  10.5807

          k = 0.3750 0.3750 0.3750 (  1082 PWs)   bands (ev):

   -44.7828 -21.4580 -21.4568 -21.4518  -5.6557  -5.5300  -5.1140  -3.8148
    -3.8062  -3.5749  -3.4338  -3.3813   3.8027   5.7708   5.9249   6.4821
     6.9233   7.0117   8.4435  10.2855  10.5303  10.6177

          k = 0.3750-0.1250 0.1250 (  1095 PWs)   bands (ev):

   -44.7853 -21.4631 -21.4042 -21.3998  -6.1917  -5.5262  -5.2796  -3.9294
    -3.8747  -3.8394  -3.6702  -3.5523   3.8579   6.6024   7.1546   7.6996
     8.2164   8.6270   9.2185   9.6979   9.8495  10.9395

          k = 0.3750-0.3750 0.1250 (  1093 PWs)   bands (ev):

   -44.7841 -21.4602 -21.4593 -21.3983  -5.7780  -5.4390  -5.3792  -3.8967
    -3.8285  -3.6915  -3.5668  -3.5487   3.2391   6.5551   6.6617   7.1099
     7.4844   8.6743   9.3644   9.3699  10.1921  10.3400

     highest occupied level (ev):    10.9395

!    total energy              =    -333.18213640 Ry
     estimated scf accuracy    <          3.3E-10 Ry

     The total energy is the sum of the following terms:
     one-electron contribution =     -80.99878130 Ry
     hartree contribution      =      68.35189590 Ry
     xc contribution           =     -49.70399688 Ry
     ewald contribution        =    -270.83125412 Ry

     convergence has been achieved in  10 iterations

     Forces acting on atoms (cartesian axes, Ry/au):

     atom    1 type  2   force =     0.00000000    0.00000000   -0.02838696
     atom    2 type  3   force =     0.00000000    0.00000000    0.02801074
     atom    3 type  1   force =     0.00000000    0.00000000   -0.00016538
     atom    4 type  1   force =     0.00000000    0.00000000   -0.00016538
     atom    5 type  1   force =     0.00000000    0.00000000    0.00070697
     The non-local contrib.  to forces
     atom    1 type  2   force =     0.00000000    0.00000000    0.30048088
     atom    2 type  3   force =     0.00000000    0.00000000   -0.00222831
     atom    3 type  1   force =     0.00000000    0.00000000   -0.15709391
     atom    4 type  1   force =     0.00000000    0.00000000   -0.15709391
     atom    5 type  1   force =     0.00000000    0.00000000   -0.15638467
     The ionic contribution  to forces
     atom    1 type  2   force =     0.00000000    0.00000000   -5.88636860
     atom    2 type  3   force =    -0.00000000   -0.00000000    1.27574945
     atom    3 type  1   force =     0.00000000   -0.00000000    1.70759936
     atom    4 type  1   force =    -0.00000000    0.00000000    1.70759936
     atom    5 type  1   force =    -0.00000000   -0.00000000    1.19542044
     The local contribution  to forces
     atom    1 type  2   force =    -0.00000000    0.00000000    5.55750464
     atom    2 type  3   force =    -0.00000000   -0.00000000   -1.24549817
     atom    3 type  1   force =     0.00000000   -0.00000000   -1.55065612
     atom    4 type  1   force =    -0.00000000   -0.00000000   -1.55065612
     atom    5 type  1   force =    -0.00000000   -0.00000000   -1.03831269
     The core correction contribution to forces
     atom    1 type  2   force =     0.00000000    0.00000000    0.00000000
     atom    2 type  3   force =     0.00000000    0.00000000    0.00000000
     atom    3 type  1   force =     0.00000000    0.00000000    0.00000000
     atom    4 type  1   force =     0.00000000    0.00000000    0.00000000
     atom    5 type  1   force =     0.00000000    0.00000000    0.00000000
     The Hubbard contrib.    to forces
     atom    1 type  2   force =     0.00000000    0.00000000    0.00000000
     atom    2 type  3   force =     0.00000000    0.00000000    0.00000000
     atom    3 type  1   force =     0.00000000    0.00000000    0.00000000
     atom    4 type  1   force =     0.00000000    0.00000000    0.00000000
     atom    5 type  1   force =     0.00000000    0.00000000    0.00000000
     The SCF correction term to forces
     atom    1 type  2   force =     0.00000000   -0.00000000    0.00000000
     atom    2 type  3   force =     0.00000000   -0.00000000    0.00000000
     atom    3 type  1   force =    -0.00000000   -0.00000000   -0.00000086
     atom    4 type  1   force =    -0.00000000    0.00000000   -0.00000086
     atom    5 type  1   force =     0.00000000    0.00000000   -0.00000225

     Total force =     0.000745     Total SCF correction =     0.000003


     Computing stress (Cartesian axis) and pressure

          total   stress  (Ry/bohr**3)                   (kbar)     P=       17.14
   0.00009000   0.00000000   0.00000000           13.24        0.00        0.00
   0.00000000   0.00009000   0.00000000            0.00       13.24        0.00
   0.00000000   0.00000000   0.00016947            0.00        0.00       24.93

     Energy error            =      5.1E-05 Ry
     Gradient error          =      7.1E-04 Ry/Bohr

     bfgs converged in  14 scf cycles and  13 bfgs steps
     (criteria: energy <  1.0E-04 Ry, force <  1.0E-03 Ry/Bohr)

     End of BFGS Geometry Optimization

     Final energy             =    -333.1821363973 Ry

     File /home/gridsan/epan1/labutil/lab3_samples/problem2/Lab3/PbTiO3_a_3.88_ecut_30_nk_4_displ_-0.06842105263157895/pwscf.bfgs deleted, as requested
Begin final coordinates

ATOMIC_POSITIONS (angstrom)
Pb            0.0000000000        0.0000000000        0.0000000000    0   0   0
Ti            1.9400000000        1.9400000000        1.6745300000    0   0   0
O             0.0000000000        1.9400000000        1.5240901420
O             1.9400000000        0.0000000000        1.5240901420
O             1.9400000000        1.9400000000       -0.3784242438
End final coordinates



     init_run     :      0.70s CPU      0.70s WALL (       1 calls)
     electrons    :     54.86s CPU     45.26s WALL (      14 calls)
     update_pot   :      0.54s CPU      0.49s WALL (      13 calls)
     forces       :      1.97s CPU      1.57s WALL (      14 calls)
     stress       :     14.72s CPU     12.62s WALL (      14 calls)

     Called by init_run:
     wfcinit      :      0.08s CPU      0.08s WALL (       1 calls)
     potinit      :      0.04s CPU      0.04s WALL (       1 calls)
     hinit0       :      0.45s CPU      0.46s WALL (       1 calls)

     Called by electrons:
     c_bands      :     32.06s CPU     25.08s WALL (     134 calls)
     sum_band     :     14.09s CPU     12.33s WALL (     134 calls)
     v_of_rho     :      0.48s CPU      0.46s WALL (     146 calls)
     newd         :      8.60s CPU      7.50s WALL (     146 calls)
     mix_rho      :      0.29s CPU      0.27s WALL (     134 calls)

     Called by c_bands:
     init_us_2    :      0.94s CPU      0.75s WALL (    1782 calls)
     init_us_2:cp :      0.94s CPU      0.75s WALL (    1782 calls)
     cegterg      :     29.69s CPU     22.89s WALL (     804 calls)

     Called by *egterg:
     cdiaghg      :      5.25s CPU      3.96s WALL (    4364 calls)
     h_psi        :     19.64s CPU     15.42s WALL (    4460 calls)
     s_psi        :      0.87s CPU      0.65s WALL (    4460 calls)
     g_psi        :      0.21s CPU      0.15s WALL (    3650 calls)

     Called by h_psi:
     h_psi:calbec :      1.22s CPU      0.95s WALL (    4460 calls)
     vloc_psi     :     17.40s CPU     13.68s WALL (    4460 calls)
     add_vuspsi   :      0.90s CPU      0.69s WALL (    4460 calls)

     General routines
     calbec       :      1.64s CPU      1.29s WALL (    5684 calls)
     fft          :      0.84s CPU      0.74s WALL (     933 calls)
     ffts         :      0.09s CPU      0.08s WALL (     280 calls)
     fftw         :     16.45s CPU     12.99s WALL (  129500 calls)
     interpolate  :      0.17s CPU      0.16s WALL (     146 calls)

     Parallel routines

     PWSCF        :   1m14.25s CPU   1m 2.22s WALL


   This run was terminated on:  17:59:30   2Nov2023            

=------------------------------------------------------------------------------=
   JOB DONE.
=------------------------------------------------------------------------------=
