Header of the LAMMPS data file 

4 atoms 
1 atom types

0.0 3.991919191919192  xlo xhi
0.0 3.991919191919192  ylo yhi
0.0 3.991919191919192  zlo zhi

Masses 

1  107.8682

Atoms # atomic 

1 1 0.00000 0.00000 0.00000 
2 1 0.00000 1.99596 1.99596 
3 1 1.99596 0.00000 1.99596 
4 1 1.99596 1.99596 0.00000 
