
     Program PWSCF v.7.2 starts on 31Oct2023 at 10:20: 3 

     This program is part of the open-source Quantum ESPRESSO suite
     for quantum simulation of materials; please cite
         "P. Giannozzi et al., J. Phys.:Condens. Matter 21 395502 (2009);
         "P. Giannozzi et al., J. Phys.:Condens. Matter 29 465901 (2017);
         "P. Giannozzi et al., J. Chem. Phys. 152 154105 (2020);
          URL http://www.quantum-espresso.org", 
     in publications or presentations arising from this work. More details at
     http://www.quantum-espresso.org/quote

     Parallel version (MPI), running on     4 processors

     MPI processes distributed on     4 nodes
     186362 MiB available memory on the printing compute node when the environment starts

     Waiting for input...
     Reading input from standard input

     Current dimensions of program PWSCF are:
     Max number of different atomic species (ntypx) = 10
     Max number of k-points (npk) =  40000
     Max angular momentum in pseudopotentials (lmaxx) =  4
     file Fe.pbe-nd-rrkjus.UPF: wavefunction(s)  4S renormalized
     Message from routine setup:
     using ibrav=0 with symmetry is DISCOURAGED, use correct ibrav instead

     R & G space division:  proc/nbgrp/npool/nimage =       4
     Subspace diagonalization in iterative solution of the eigenvalue problem:
     a serial algorithm will be used


     Parallelization info
     --------------------
     sticks:   dense  smooth     PW     G-vecs:    dense   smooth      PW
     Min          95      45     22                 1181      400     138
     Max          96      46     23                 1183      401     139
     Sum         383     181     91                 4729     1601     555

     Using Slab Decomposition



     bravais-lattice index     =            0
     lattice parameter (alat)  =       4.5899  a.u.
     unit-cell volume          =      74.4385 (a.u.)^3
     number of atoms/cell      =            1
     number of atomic types    =            1
     number of electrons       =         8.00
     number of Kohn-Sham states=            8
     kinetic-energy cutoff     =      30.0000  Ry
     charge density cutoff     =     240.0000  Ry
     scf convergence threshold =      1.0E-07
     mixing beta               =       0.5000
     number of iterations used =            8  plain     mixing
     energy convergence thresh.=      1.0E-04
     force convergence thresh. =      1.0E-03
     press convergence thresh. =      5.0E-01
     Exchange-correlation=  SLA  PW   PBE  PBE
                           (   1   4   3   4   0   0   0)
     nstep                     =           50


     celldm(1)=   4.589935  celldm(2)=   0.000000  celldm(3)=   0.000000
     celldm(4)=   0.000000  celldm(5)=   0.000000  celldm(6)=   0.000000

     crystal axes: (cart. coord. in units of alat)
               a(1) = (  -0.577350   0.577350   0.577350 )  
               a(2) = (   0.577350  -0.577350   0.577350 )  
               a(3) = (   0.577350   0.577350  -0.577350 )  

     reciprocal axes: (cart. coord. in units 2 pi/alat)
               b(1) = (  0.000000  0.866025  0.866025 )  
               b(2) = (  0.866025  0.000000  0.866025 )  
               b(3) = (  0.866025  0.866025  0.000000 )  


     PseudoPot. # 1 for Fe read from file:
     /home/gridsan/epan1/labutil/lab3_samples/pseudopotentials/Fe.pbe-nd-rrkjus.UPF
     MD5 check sum: 398036227a04b607635f6f5e8dfd8242
     Pseudo is Ultrasoft + core correction, Zval =  8.0
     Generated by new atomic code, or converted to UPF format
     Using radial grid of  957 points,  6 beta functions with: 
                l(1) =   0
                l(2) =   0
                l(3) =   1
                l(4) =   1
                l(5) =   2
                l(6) =   2
     Q(r) pseudized with 0 coefficients 


     atomic species   valence    mass     pseudopotential
        Fe             8.00    55.84500     Fe( 1.00)

     Starting magnetic structure 
     atomic species   magnetization
        Fe           0.700

     48 Sym. Ops., with inversion, found



   Cartesian axes

     site n.     atom                  positions (alat units)
         1           Fe  tau(   1) = (   0.0000000   0.0000000   0.0000000  )

     number of k points=     3  Methfessel-Paxton smearing, width (Ry)=  0.0200
                       cart. coord. in units 2pi/alat
        k(    1) = (   0.0000000   0.0000000   0.0000000), wk =   0.1250000
        k(    2) = (  -0.4330127  -0.4330127   0.0000000), wk =   0.7500000
        k(    3) = (  -0.8660254  -0.8660254  -0.8660254), wk =   0.1250000

     Dense  grid:     4729 G-vectors     FFT dimensions: (  24,  24,  24)

     Smooth grid:     1601 G-vectors     FFT dimensions: (  15,  15,  15)

     Estimated max dynamical RAM per process >       7.42 MB

     Estimated total dynamical RAM >      29.67 MB
     Generating pointlists ...
     new r_m :   0.4125 (alat units)  1.8933 (a.u.) for type    1

     Initial potential from superposition of free atoms

     starting charge       7.9994, renormalised to       8.0000
     Starting wfcs are    6 randomized atomic wfcs +    2 random wfcs

     total cpu time spent up to now is        0.4 secs

     Self-consistent Calculation

     iteration #  1     ecut=    30.00 Ry     beta= 0.50
     Davidson diagonalization with overlap
     ethr =  1.00E-02,  avg # of iterations =  6.7

     total cpu time spent up to now is        0.5 secs

     total energy              =     -55.61700135 Ry
     estimated scf accuracy    <       0.22518680 Ry

     total magnetization       =     3.75 Bohr mag/cell
     absolute magnetization    =     3.75 Bohr mag/cell

     iteration #  2     ecut=    30.00 Ry     beta= 0.50
     Davidson diagonalization with overlap
     ethr =  2.81E-03,  avg # of iterations =  1.7

     total cpu time spent up to now is        0.5 secs

     total energy              =     -55.68888492 Ry
     estimated scf accuracy    <       0.02678827 Ry

     total magnetization       =     3.75 Bohr mag/cell
     absolute magnetization    =     3.75 Bohr mag/cell

     iteration #  3     ecut=    30.00 Ry     beta= 0.50
     Davidson diagonalization with overlap
     ethr =  3.35E-04,  avg # of iterations =  3.0

     total cpu time spent up to now is        0.5 secs

     total energy              =     -55.69742984 Ry
     estimated scf accuracy    <       0.00473895 Ry

     total magnetization       =     3.75 Bohr mag/cell
     absolute magnetization    =     3.75 Bohr mag/cell

     iteration #  4     ecut=    30.00 Ry     beta= 0.50
     Davidson diagonalization with overlap
     ethr =  5.92E-05,  avg # of iterations =  2.7

     total cpu time spent up to now is        0.5 secs

     total energy              =     -55.69767846 Ry
     estimated scf accuracy    <       0.00109074 Ry

     total magnetization       =     3.67 Bohr mag/cell
     absolute magnetization    =     3.67 Bohr mag/cell

     iteration #  5     ecut=    30.00 Ry     beta= 0.50
     Davidson diagonalization with overlap
     ethr =  1.36E-05,  avg # of iterations =  7.0

     total cpu time spent up to now is        0.6 secs

     total energy              =     -55.69631051 Ry
     estimated scf accuracy    <       0.00036410 Ry

     total magnetization       =     3.55 Bohr mag/cell
     absolute magnetization    =     3.55 Bohr mag/cell

     iteration #  6     ecut=    30.00 Ry     beta= 0.50
     Davidson diagonalization with overlap
     ethr =  4.55E-06,  avg # of iterations =  1.8

     total cpu time spent up to now is        0.6 secs

     total energy              =     -55.69611565 Ry
     estimated scf accuracy    <       0.00017240 Ry

     total magnetization       =     3.79 Bohr mag/cell
     absolute magnetization    =     3.79 Bohr mag/cell

     iteration #  7     ecut=    30.00 Ry     beta= 0.50
     Davidson diagonalization with overlap
     ethr =  2.16E-06,  avg # of iterations =  1.8

     total cpu time spent up to now is        0.6 secs

     total energy              =     -55.69246995 Ry
     estimated scf accuracy    <       0.00207853 Ry

     total magnetization       =     3.76 Bohr mag/cell
     absolute magnetization    =     3.76 Bohr mag/cell

     iteration #  8     ecut=    30.00 Ry     beta= 0.50
     Davidson diagonalization with overlap
     ethr =  2.16E-06,  avg # of iterations =  3.2

     total cpu time spent up to now is        0.7 secs

     total energy              =     -55.69855375 Ry
     estimated scf accuracy    <       0.00072699 Ry

     total magnetization       =     3.49 Bohr mag/cell
     absolute magnetization    =     3.49 Bohr mag/cell

     iteration #  9     ecut=    30.00 Ry     beta= 0.50
     Davidson diagonalization with overlap
     ethr =  2.16E-06,  avg # of iterations =  1.8

     total cpu time spent up to now is        0.7 secs

     total energy              =     -55.69858409 Ry
     estimated scf accuracy    <       0.00015548 Ry

     total magnetization       =     3.48 Bohr mag/cell
     absolute magnetization    =     3.48 Bohr mag/cell

     iteration # 10     ecut=    30.00 Ry     beta= 0.50
     Davidson diagonalization with overlap
     ethr =  1.94E-06,  avg # of iterations =  1.5

     total cpu time spent up to now is        0.7 secs

     total energy              =     -55.69870141 Ry
     estimated scf accuracy    <       0.00004499 Ry

     total magnetization       =     3.48 Bohr mag/cell
     absolute magnetization    =     3.48 Bohr mag/cell

     iteration # 11     ecut=    30.00 Ry     beta= 0.50
     Davidson diagonalization with overlap
     ethr =  5.62E-07,  avg # of iterations =  1.0

     total cpu time spent up to now is        0.7 secs

     total energy              =     -55.69870101 Ry
     estimated scf accuracy    <       0.00000056 Ry

     total magnetization       =     3.48 Bohr mag/cell
     absolute magnetization    =     3.48 Bohr mag/cell

     iteration # 12     ecut=    30.00 Ry     beta= 0.50
     Davidson diagonalization with overlap
     ethr =  7.01E-09,  avg # of iterations =  3.0

     total cpu time spent up to now is        0.8 secs

     total energy              =     -55.69870172 Ry
     estimated scf accuracy    <       0.00000023 Ry

     total magnetization       =     3.48 Bohr mag/cell
     absolute magnetization    =     3.48 Bohr mag/cell

     iteration # 13     ecut=    30.00 Ry     beta= 0.50
     Davidson diagonalization with overlap
     ethr =  2.91E-09,  avg # of iterations =  1.7

     Magnetic moment per site  (integrated on atomic sphere of radius R)
     atom   1 (R=0.413)  charge=  6.4750  magn=  2.9750

     total cpu time spent up to now is        0.8 secs

     End of self-consistent calculation

 ------ SPIN UP ------------


          k = 0.0000 0.0000 0.0000 (   201 PWs)   bands (ev):

     4.8105  11.8191  11.8191  11.8191  12.9808  12.9808  38.1834  38.1834

          k =-0.4330-0.4330 0.0000 (   194 PWs)   bands (ev):

     8.7360  10.6032  13.1164  13.2171  13.9444  14.7311  21.5123  31.7137

          k =-0.8660-0.8660-0.8660 (   236 PWs)   bands (ev):

     8.7678   8.7678  14.4331  14.4331  14.4331  23.7847  23.7847  23.7847

 ------ SPIN DOWN ----------


          k = 0.0000 0.0000 0.0000 (   201 PWs)   bands (ev):

     6.5620  14.4684  14.4684  14.4684  16.8658  16.8658  39.8975  39.8975

          k =-0.4330-0.4330 0.0000 (   194 PWs)   bands (ev):

    11.1745  13.1225  15.7682  16.6424  17.1190  17.6991  24.0336  33.7915

          k =-0.8660-0.8660-0.8660 (   236 PWs)   bands (ev):

    11.9462  11.9462  17.3730  17.3730  17.3730  25.2868  25.2868  25.2869

     the Fermi energy is    14.8366 ev

!    total energy              =     -55.69870183 Ry
     estimated scf accuracy    <       0.00000002 Ry
     smearing contrib. (-TS)   =      -0.00042128 Ry
     internal energy E=F+TS    =     -55.69828055 Ry

     The total energy is F=E-TS. E is the sum of the following terms:
     one-electron contribution =       8.34882113 Ry
     hartree contribution      =       6.52304106 Ry
     xc contribution           =     -26.62468538 Ry
     ewald contribution        =     -43.94545736 Ry

     total magnetization       =     3.48 Bohr mag/cell
     absolute magnetization    =     3.48 Bohr mag/cell

     convergence has been achieved in  13 iterations

     Forces acting on atoms (cartesian axes, Ry/au):

     atom    1 type  1   force =     0.00000000    0.00000000    0.00000000
     The non-local contrib.  to forces
     atom    1 type  1   force =     0.00000000    0.00000000   -0.00000000
     The ionic contribution  to forces
     atom    1 type  1   force =    -0.00000000   -0.00000000   -0.00000000
     The local contribution  to forces
     atom    1 type  1   force =    -0.00000000   -0.00000000   -0.00000000
     The core correction contribution to forces
     atom    1 type  1   force =    -0.00000000   -0.00000000   -0.00000000
     The Hubbard contrib.    to forces
     atom    1 type  1   force =     0.00000000    0.00000000    0.00000000
     The SCF correction term to forces
     atom    1 type  1   force =     0.00000000    0.00000000    0.00000000

     Total force =     0.000000     Total SCF correction =     0.000000


     Computing stress (Cartesian axis) and pressure

          total   stress  (Ry/bohr**3)                   (kbar)     P=      370.88
   0.00252122   0.00000000   0.00000000          370.88        0.00        0.00
   0.00000000   0.00252122   0.00000000            0.00      370.88        0.00
   0.00000000   0.00000000   0.00252122            0.00        0.00      370.88


     BFGS Geometry Optimization
     Energy error            =      0.0E+00 Ry
     Gradient error          =      0.0E+00 Ry/Bohr
     Cell gradient error     =      3.7E+02 kbar

     number of scf cycles    =   1
     number of bfgs steps    =   0

     enthalpy           new  =     -55.6987018343 Ry

     new trust radius        =       0.1087623900 bohr
     new conv_thr            =       0.0000001000 Ry

     new unit-cell volume =     89.42001 a.u.^3 (    13.25068 Ang^3 )
     density =      6.99834 g/cm^3

CELL_PARAMETERS (angstrom)
  -1.490708448   1.490708448   1.490708448
   1.490708448  -1.490708448   1.490708448
   1.490708448   1.490708448  -1.490708448

ATOMIC_POSITIONS (angstrom)
Fe            0.0000000000        0.0000000000        0.0000000000



     Writing config-only to output data dir /home/gridsan/epan1/labutil/lab3_samples/problem1/Lab3/Fe_bcc_a_2.8046394196999995_ecut_30_nk_2/pwscf.save/
     NEW-OLD atomic charge density approx. for the potential

     Check: negative core charge=   -0.000011
     extrapolated charge    9.34022, renormalised to    8.00000
     Generating pointlists ...

     total cpu time spent up to now is        1.1 secs

     Self-consistent Calculation

     iteration #  1     ecut=    30.00 Ry     beta= 0.50
     Davidson diagonalization with overlap
     ethr =  1.00E-06,  avg # of iterations =  7.2

     total cpu time spent up to now is        1.1 secs

     total energy              =     -54.56402955 Ry
     estimated scf accuracy    <       1.27320852 Ry

     total magnetization       =     2.00 Bohr mag/cell
     absolute magnetization    =     2.00 Bohr mag/cell

     iteration #  2     ecut=    30.00 Ry     beta= 0.50
     Davidson diagonalization with overlap
     ethr =  1.00E-02,  avg # of iterations =  3.0

     total cpu time spent up to now is        1.2 secs

     total energy              =     -55.77981243 Ry
     estimated scf accuracy    <       2.82488855 Ry

     total magnetization       =     2.25 Bohr mag/cell
     absolute magnetization    =     2.27 Bohr mag/cell

     iteration #  3     ecut=    30.00 Ry     beta= 0.50
     Davidson diagonalization with overlap
     ethr =  1.00E-02,  avg # of iterations =  1.7

     total cpu time spent up to now is        1.2 secs

     total energy              =     -55.69880606 Ry
     estimated scf accuracy    <       0.97950926 Ry

     total magnetization       =     2.25 Bohr mag/cell
     absolute magnetization    =     2.30 Bohr mag/cell

     iteration #  4     ecut=    30.00 Ry     beta= 0.50
     Davidson diagonalization with overlap
     ethr =  1.00E-02,  avg # of iterations =  1.0

     total cpu time spent up to now is        1.2 secs

     total energy              =     -55.73026809 Ry
     estimated scf accuracy    <       0.16040130 Ry

     total magnetization       =     3.39 Bohr mag/cell
     absolute magnetization    =     3.39 Bohr mag/cell

     iteration #  5     ecut=    30.00 Ry     beta= 0.50
     Davidson diagonalization with overlap
     ethr =  2.01E-03,  avg # of iterations =  1.0

     total cpu time spent up to now is        1.2 secs

     total energy              =     -55.73913124 Ry
     estimated scf accuracy    <       0.11427716 Ry

     total magnetization       =     3.56 Bohr mag/cell
     absolute magnetization    =     3.56 Bohr mag/cell

     iteration #  6     ecut=    30.00 Ry     beta= 0.50
     Davidson diagonalization with overlap
     ethr =  1.43E-03,  avg # of iterations =  1.0

     total cpu time spent up to now is        1.3 secs

     total energy              =     -55.73403299 Ry
     estimated scf accuracy    <       0.21009366 Ry

     total magnetization       =     3.19 Bohr mag/cell
     absolute magnetization    =     3.19 Bohr mag/cell

     iteration #  7     ecut=    30.00 Ry     beta= 0.50
     Davidson diagonalization with overlap
     ethr =  1.43E-03,  avg # of iterations =  1.0
     Minimization algorithm failed to find Fermi energy: reverting to bisection
     Possible cause: smearing is larger than the electronic band-gap.

     negative rho (up, down):  0.000E+00 1.717E-02

     total cpu time spent up to now is        1.3 secs

     total energy              =     -55.70116386 Ry
     estimated scf accuracy    <       0.11184037 Ry

     total magnetization       =     3.50 Bohr mag/cell
     absolute magnetization    =     3.50 Bohr mag/cell

     iteration #  8     ecut=    30.00 Ry     beta= 0.50
     Davidson diagonalization with overlap
     ethr =  1.40E-03,  avg # of iterations =  1.0

     negative rho (up, down):  0.000E+00 7.155E-03

     total cpu time spent up to now is        1.3 secs

     total energy              =     -55.71617620 Ry
     estimated scf accuracy    <       0.05512565 Ry

     total magnetization       =     3.75 Bohr mag/cell
     absolute magnetization    =     3.75 Bohr mag/cell

     iteration #  9     ecut=    30.00 Ry     beta= 0.50
     Davidson diagonalization with overlap
     ethr =  6.89E-04,  avg # of iterations =  1.0

     negative rho (up, down):  0.000E+00 3.335E-03

     total cpu time spent up to now is        1.3 secs

     total energy              =     -55.71800829 Ry
     estimated scf accuracy    <       0.05054262 Ry

     total magnetization       =     3.77 Bohr mag/cell
     absolute magnetization    =     3.77 Bohr mag/cell

     iteration # 10     ecut=    30.00 Ry     beta= 0.50
     Davidson diagonalization with overlap
     ethr =  6.32E-04,  avg # of iterations =  1.0

     negative rho (up, down):  0.000E+00 1.326E-04

     total cpu time spent up to now is        1.4 secs

     total energy              =     -55.71878633 Ry
     estimated scf accuracy    <       0.04479191 Ry

     total magnetization       =     3.76 Bohr mag/cell
     absolute magnetization    =     3.76 Bohr mag/cell

     iteration # 11     ecut=    30.00 Ry     beta= 0.50
     Davidson diagonalization with overlap
     ethr =  5.60E-04,  avg # of iterations =  1.0

     total cpu time spent up to now is        1.4 secs

     total energy              =     -55.71794171 Ry
     estimated scf accuracy    <       0.02789626 Ry

     total magnetization       =     3.75 Bohr mag/cell
     absolute magnetization    =     3.75 Bohr mag/cell

     iteration # 12     ecut=    30.00 Ry     beta= 0.50
     Davidson diagonalization with overlap
     ethr =  3.49E-04,  avg # of iterations =  1.0

     total cpu time spent up to now is        1.4 secs

     total energy              =     -55.71886745 Ry
     estimated scf accuracy    <       0.02050686 Ry

     total magnetization       =     3.75 Bohr mag/cell
     absolute magnetization    =     3.75 Bohr mag/cell

     iteration # 13     ecut=    30.00 Ry     beta= 0.50
     Davidson diagonalization with overlap
     ethr =  2.56E-04,  avg # of iterations =  1.0

     total cpu time spent up to now is        1.5 secs

     total energy              =     -55.71638263 Ry
     estimated scf accuracy    <       0.01926570 Ry

     total magnetization       =     3.75 Bohr mag/cell
     absolute magnetization    =     3.75 Bohr mag/cell

     iteration # 14     ecut=    30.00 Ry     beta= 0.50
     Davidson diagonalization with overlap
     ethr =  2.41E-04,  avg # of iterations =  1.8

     total cpu time spent up to now is        1.5 secs

     total energy              =     -55.71934390 Ry
     estimated scf accuracy    <       0.00020907 Ry

     total magnetization       =     3.75 Bohr mag/cell
     absolute magnetization    =     3.75 Bohr mag/cell

     iteration # 15     ecut=    30.00 Ry     beta= 0.50
     Davidson diagonalization with overlap
     ethr =  2.61E-06,  avg # of iterations =  2.8

     total cpu time spent up to now is        1.5 secs

     total energy              =     -55.71942721 Ry
     estimated scf accuracy    <       0.00010010 Ry

     total magnetization       =     3.75 Bohr mag/cell
     absolute magnetization    =     3.75 Bohr mag/cell

     iteration # 16     ecut=    30.00 Ry     beta= 0.50
     Davidson diagonalization with overlap
     ethr =  1.25E-06,  avg # of iterations =  1.0

     total cpu time spent up to now is        1.6 secs

     total energy              =     -55.71942686 Ry
     estimated scf accuracy    <       0.00004453 Ry

     total magnetization       =     3.75 Bohr mag/cell
     absolute magnetization    =     3.75 Bohr mag/cell

     iteration # 17     ecut=    30.00 Ry     beta= 0.50
     Davidson diagonalization with overlap
     ethr =  5.57E-07,  avg # of iterations =  1.0

     total cpu time spent up to now is        1.6 secs

     total energy              =     -55.71942645 Ry
     estimated scf accuracy    <       0.00002244 Ry

     total magnetization       =     3.75 Bohr mag/cell
     absolute magnetization    =     3.75 Bohr mag/cell

     iteration # 18     ecut=    30.00 Ry     beta= 0.50
     Davidson diagonalization with overlap
     ethr =  2.81E-07,  avg # of iterations =  1.2

     total cpu time spent up to now is        1.6 secs

     total energy              =     -55.71942653 Ry
     estimated scf accuracy    <       0.00000950 Ry

     total magnetization       =     3.75 Bohr mag/cell
     absolute magnetization    =     3.75 Bohr mag/cell

     iteration # 19     ecut=    30.00 Ry     beta= 0.50
     Davidson diagonalization with overlap
     ethr =  1.19E-07,  avg # of iterations =  1.0

     total cpu time spent up to now is        1.7 secs

     total energy              =     -55.71942635 Ry
     estimated scf accuracy    <       0.00000654 Ry

     total magnetization       =     3.75 Bohr mag/cell
     absolute magnetization    =     3.75 Bohr mag/cell

     iteration # 20     ecut=    30.00 Ry     beta= 0.50
     Davidson diagonalization with overlap
     ethr =  8.17E-08,  avg # of iterations =  1.0

     total cpu time spent up to now is        1.7 secs

     total energy              =     -55.71942455 Ry
     estimated scf accuracy    <       0.00000543 Ry

     total magnetization       =     3.75 Bohr mag/cell
     absolute magnetization    =     3.75 Bohr mag/cell

     iteration # 21     ecut=    30.00 Ry     beta= 0.50
     Davidson diagonalization with overlap
     ethr =  6.78E-08,  avg # of iterations =  1.2

     total cpu time spent up to now is        1.7 secs

     total energy              =     -55.71942490 Ry
     estimated scf accuracy    <       0.00000129 Ry

     total magnetization       =     3.75 Bohr mag/cell
     absolute magnetization    =     3.75 Bohr mag/cell

     iteration # 22     ecut=    30.00 Ry     beta= 0.50
     Davidson diagonalization with overlap
     ethr =  1.61E-08,  avg # of iterations =  1.3

     total cpu time spent up to now is        1.7 secs

     total energy              =     -55.71942452 Ry
     estimated scf accuracy    <       0.00000107 Ry

     total magnetization       =     3.75 Bohr mag/cell
     absolute magnetization    =     3.75 Bohr mag/cell

     iteration # 23     ecut=    30.00 Ry     beta= 0.50
     Davidson diagonalization with overlap
     ethr =  1.34E-08,  avg # of iterations =  1.8

     total cpu time spent up to now is        1.8 secs

     total energy              =     -55.71942461 Ry
     estimated scf accuracy    <       0.00000010 Ry

     total magnetization       =     3.75 Bohr mag/cell
     absolute magnetization    =     3.75 Bohr mag/cell

     iteration # 24     ecut=    30.00 Ry     beta= 0.50
     Davidson diagonalization with overlap
     ethr =  1.27E-09,  avg # of iterations =  2.7

     Magnetic moment per site  (integrated on atomic sphere of radius R)
     atom   1 (R=0.413)  charge=  6.2860  magn=  3.1843

     total cpu time spent up to now is        1.8 secs

     End of self-consistent calculation

 ------ SPIN UP ------------


          k = 0.0000 0.0000 0.0000 (   201 PWs)   bands (ev):

     2.7939   8.9040   8.9040   8.9040   9.7832   9.7832  33.4355  33.4355

          k =-0.4073-0.4073 0.0000 (   194 PWs)   bands (ev):

     6.5136   8.0001   9.8691   9.9417  10.9396  11.0968  16.7791  27.1876

          k =-0.8147-0.8147-0.8147 (   236 PWs)   bands (ev):

     6.6420   6.6420  10.8769  10.8769  10.8769  19.4567  19.4567  19.4567

 ------ SPIN DOWN ----------


          k = 0.0000 0.0000 0.0000 (   201 PWs)   bands (ev):

     4.4459  11.8787  11.8787  11.8787  13.7761  13.7761  35.0093  35.0093

          k =-0.4073-0.4073 0.0000 (   194 PWs)   bands (ev):

     9.0514  10.8185  12.6335  13.5849  13.9594  14.4052  19.3792  29.1017

          k =-0.8147-0.8147-0.8147 (   236 PWs)   bands (ev):

     9.9052   9.9052  14.1547  14.1547  14.1547  20.9262  20.9262  20.9262

     the Fermi energy is    11.9341 ev

!    total energy              =     -55.71942466 Ry
     estimated scf accuracy    <          3.0E-09 Ry
     smearing contrib. (-TS)   =      -0.00089310 Ry
     internal energy E=F+TS    =     -55.71853156 Ry

     The total energy is F=E-TS. E is the sum of the following terms:
     one-electron contribution =       4.64497368 Ry
     hartree contribution      =       7.49642305 Ry
     xc contribution           =     -26.52013363 Ry
     ewald contribution        =     -41.33979467 Ry

     total magnetization       =     3.75 Bohr mag/cell
     absolute magnetization    =     3.75 Bohr mag/cell

     convergence has been achieved in  24 iterations

     Forces acting on atoms (cartesian axes, Ry/au):

     atom    1 type  1   force =     0.00000000    0.00000000    0.00000000
     The non-local contrib.  to forces
     atom    1 type  1   force =     0.00000000   -0.00000000   -0.00000000
     The ionic contribution  to forces
     atom    1 type  1   force =    -0.00000000   -0.00000000   -0.00000000
     The local contribution  to forces
     atom    1 type  1   force =    -0.00000000   -0.00000000   -0.00000000
     The core correction contribution to forces
     atom    1 type  1   force =    -0.00000000   -0.00000000   -0.00000000
     The Hubbard contrib.    to forces
     atom    1 type  1   force =     0.00000000    0.00000000    0.00000000
     The SCF correction term to forces
     atom    1 type  1   force =     0.00000000    0.00000000   -0.00000000

     Total force =     0.000000     Total SCF correction =     0.000000


     Computing stress (Cartesian axis) and pressure

          total   stress  (Ry/bohr**3)                   (kbar)     P=       29.44
   0.00020011  -0.00000000  -0.00000000           29.44       -0.00       -0.00
  -0.00000000   0.00020011  -0.00000000           -0.00       29.44       -0.00
  -0.00000000  -0.00000000   0.00020011           -0.00       -0.00       29.44

     Energy error            =      2.1E-02 Ry
     Gradient error          =      0.0E+00 Ry/Bohr
     Cell gradient error     =      2.9E+01 kbar

     number of scf cycles    =   2
     number of bfgs steps    =   1

     enthalpy           old  =     -55.6987018343 Ry
     enthalpy           new  =     -55.7194246624 Ry

     CASE: enthalpy          _new < enthalpy          _old

     new trust radius        =       0.0110484569 bohr
     new conv_thr            =       0.0000000010 Ry

     new unit-cell volume =     90.99634 a.u.^3 (    13.48427 Ang^3 )
     density =      6.87711 g/cm^3

CELL_PARAMETERS (angstrom)
  -1.499417020   1.499417020   1.499417020
   1.499417020  -1.499417020   1.499417020
   1.499417020   1.499417020  -1.499417020

ATOMIC_POSITIONS (angstrom)
Fe            0.0000000000        0.0000000000        0.0000000000



     Writing config-only to output data dir /home/gridsan/epan1/labutil/lab3_samples/problem1/Lab3/Fe_bcc_a_2.8046394196999995_ecut_30_nk_2/pwscf.save/
     NEW-OLD atomic charge density approx. for the potential

     Check: negative core charge=   -0.000014
     extrapolated charge    8.13857, renormalised to    8.00000
     Generating pointlists ...

     total cpu time spent up to now is        2.1 secs

     Self-consistent Calculation

     iteration #  1     ecut=    30.00 Ry     beta= 0.50
     Davidson diagonalization with overlap
     ethr =  1.00E-06,  avg # of iterations =  4.7

     total cpu time spent up to now is        2.1 secs

     total energy              =     -55.69883723 Ry
     estimated scf accuracy    <       0.02097355 Ry

     total magnetization       =     3.75 Bohr mag/cell
     absolute magnetization    =     3.75 Bohr mag/cell

     iteration #  2     ecut=    30.00 Ry     beta= 0.50
     Davidson diagonalization with overlap
     ethr =  2.62E-04,  avg # of iterations =  2.8

     total cpu time spent up to now is        2.1 secs

     total energy              =     -55.71874635 Ry
     estimated scf accuracy    <       0.02699196 Ry

     total magnetization       =     3.72 Bohr mag/cell
     absolute magnetization    =     3.72 Bohr mag/cell

     iteration #  3     ecut=    30.00 Ry     beta= 0.50
     Davidson diagonalization with overlap
     ethr =  2.62E-04,  avg # of iterations =  1.3

     total cpu time spent up to now is        2.2 secs

     total energy              =     -55.71860871 Ry
     estimated scf accuracy    <       0.00527926 Ry

     total magnetization       =     3.75 Bohr mag/cell
     absolute magnetization    =     3.75 Bohr mag/cell

     iteration #  4     ecut=    30.00 Ry     beta= 0.50
     Davidson diagonalization with overlap
     ethr =  6.60E-05,  avg # of iterations =  2.0

     total cpu time spent up to now is        2.2 secs

     total energy              =     -55.71960977 Ry
     estimated scf accuracy    <       0.00018973 Ry

     total magnetization       =     3.75 Bohr mag/cell
     absolute magnetization    =     3.75 Bohr mag/cell

     iteration #  5     ecut=    30.00 Ry     beta= 0.50
     Davidson diagonalization with overlap
     ethr =  2.37E-06,  avg # of iterations =  2.0

     total cpu time spent up to now is        2.2 secs

     total energy              =     -55.71959739 Ry
     estimated scf accuracy    <       0.00024502 Ry

     total magnetization       =     3.75 Bohr mag/cell
     absolute magnetization    =     3.75 Bohr mag/cell

     iteration #  6     ecut=    30.00 Ry     beta= 0.50
     Davidson diagonalization with overlap
     ethr =  2.37E-06,  avg # of iterations =  1.0

     total cpu time spent up to now is        2.2 secs

     total energy              =     -55.71958311 Ry
     estimated scf accuracy    <       0.00008119 Ry

     total magnetization       =     3.75 Bohr mag/cell
     absolute magnetization    =     3.75 Bohr mag/cell

     iteration #  7     ecut=    30.00 Ry     beta= 0.50
     Davidson diagonalization with overlap
     ethr =  1.01E-06,  avg # of iterations =  1.5

     total cpu time spent up to now is        2.3 secs

     total energy              =     -55.71958916 Ry
     estimated scf accuracy    <       0.00000987 Ry

     total magnetization       =     3.75 Bohr mag/cell
     absolute magnetization    =     3.75 Bohr mag/cell

     iteration #  8     ecut=    30.00 Ry     beta= 0.50
     Davidson diagonalization with overlap
     ethr =  1.23E-07,  avg # of iterations =  2.2

     total cpu time spent up to now is        2.3 secs

     total energy              =     -55.71959065 Ry
     estimated scf accuracy    <       0.00000126 Ry

     total magnetization       =     3.75 Bohr mag/cell
     absolute magnetization    =     3.75 Bohr mag/cell

     iteration #  9     ecut=    30.00 Ry     beta= 0.50
     Davidson diagonalization with overlap
     ethr =  1.58E-08,  avg # of iterations =  1.7

     total cpu time spent up to now is        2.3 secs

     total energy              =     -55.71959074 Ry
     estimated scf accuracy    <       0.00000030 Ry

     total magnetization       =     3.75 Bohr mag/cell
     absolute magnetization    =     3.75 Bohr mag/cell

     iteration # 10     ecut=    30.00 Ry     beta= 0.50
     Davidson diagonalization with overlap
     ethr =  3.78E-09,  avg # of iterations =  2.2

     total cpu time spent up to now is        2.4 secs

     total energy              =     -55.71959086 Ry
     estimated scf accuracy    <          5.2E-09 Ry

     total magnetization       =     3.75 Bohr mag/cell
     absolute magnetization    =     3.75 Bohr mag/cell

     iteration # 11     ecut=    30.00 Ry     beta= 0.50
     Davidson diagonalization with overlap
     ethr =  6.47E-11,  avg # of iterations =  4.0

     total cpu time spent up to now is        2.4 secs

     total energy              =     -55.71959087 Ry
     estimated scf accuracy    <          3.9E-09 Ry

     total magnetization       =     3.75 Bohr mag/cell
     absolute magnetization    =     3.75 Bohr mag/cell

     iteration # 12     ecut=    30.00 Ry     beta= 0.50
     Davidson diagonalization with overlap
     ethr =  4.82E-11,  avg # of iterations =  1.0

     total cpu time spent up to now is        2.4 secs

     total energy              =     -55.71959087 Ry
     estimated scf accuracy    <          1.8E-09 Ry

     total magnetization       =     3.75 Bohr mag/cell
     absolute magnetization    =     3.75 Bohr mag/cell

     iteration # 13     ecut=    30.00 Ry     beta= 0.50
     Davidson diagonalization with overlap
     ethr =  2.26E-11,  avg # of iterations =  2.2

     Magnetic moment per site  (integrated on atomic sphere of radius R)
     atom   1 (R=0.413)  charge=  6.2706  magn=  3.1788

     total cpu time spent up to now is        2.5 secs

     End of self-consistent calculation

 ------ SPIN UP ------------


          k = 0.0000 0.0000 0.0000 (   201 PWs)   bands (ev):

     2.6275   8.6558   8.6558   8.6558   9.5031   9.5031  33.0136  33.0136

          k =-0.4050-0.4050 0.0000 (   194 PWs)   bands (ev):

     6.3214   7.7773   9.5882   9.6556  10.6865  10.7897  16.3755  26.7855

          k =-0.8099-0.8099-0.8099 (   236 PWs)   bands (ev):

     6.4516   6.4516  10.5762  10.5762  10.5762  19.0866  19.0866  19.0866

 ------ SPIN DOWN ----------


          k = 0.0000 0.0000 0.0000 (   201 PWs)   bands (ev):

     4.2690  11.6267  11.6267  11.6267  13.4918  13.4918  34.5770  34.5770

          k =-0.4050-0.4050 0.0000 (   194 PWs)   bands (ev):

     8.8542  10.5932  12.3682  13.3004  13.6687  14.0909  18.9626  28.6891

          k =-0.8099-0.8099-0.8099 (   236 PWs)   bands (ev):

     9.7161   9.7161  13.8471  13.8471  13.8471  20.5463  20.5463  20.5463

     the Fermi energy is    11.6822 ev

!    total energy              =     -55.71959087 Ry
     estimated scf accuracy    <          3.1E-12 Ry
     smearing contrib. (-TS)   =      -0.00088621 Ry
     internal energy E=F+TS    =     -55.71870467 Ry

     The total energy is F=E-TS. E is the sum of the following terms:
     one-electron contribution =       4.29942859 Ry
     hartree contribution      =       7.58930634 Ry
     xc contribution           =     -26.50774529 Ry
     ewald contribution        =     -41.09969430 Ry

     total magnetization       =     3.75 Bohr mag/cell
     absolute magnetization    =     3.75 Bohr mag/cell

     convergence has been achieved in  13 iterations

     Forces acting on atoms (cartesian axes, Ry/au):

     atom    1 type  1   force =     0.00000000    0.00000000    0.00000000
     The non-local contrib.  to forces
     atom    1 type  1   force =    -0.00000000   -0.00000000    0.00000000
     The ionic contribution  to forces
     atom    1 type  1   force =    -0.00000000   -0.00000000   -0.00000000
     The local contribution  to forces
     atom    1 type  1   force =    -0.00000000   -0.00000000   -0.00000000
     The core correction contribution to forces
     atom    1 type  1   force =    -0.00000000    0.00000000   -0.00000000
     The Hubbard contrib.    to forces
     atom    1 type  1   force =     0.00000000    0.00000000    0.00000000
     The SCF correction term to forces
     atom    1 type  1   force =     0.00000000   -0.00000000    0.00000000

     Total force =     0.000000     Total SCF correction =     0.000000


     Computing stress (Cartesian axis) and pressure

          total   stress  (Ry/bohr**3)                   (kbar)     P=        2.48
   0.00001688  -0.00000000  -0.00000000            2.48       -0.00       -0.00
  -0.00000000   0.00001688  -0.00000000           -0.00        2.48       -0.00
  -0.00000000  -0.00000000   0.00001688           -0.00       -0.00        2.48

     Energy error            =      1.7E-04 Ry
     Gradient error          =      0.0E+00 Ry/Bohr
     Cell gradient error     =      2.5E+00 kbar

     number of scf cycles    =   3
     number of bfgs steps    =   2

     enthalpy           old  =     -55.7194246624 Ry
     enthalpy           new  =     -55.7195908731 Ry

     CASE: enthalpy          _new < enthalpy          _old

     new trust radius        =       0.0010340073 bohr
     new conv_thr            =       0.0000000010 Ry

     new unit-cell volume =     91.14437 a.u.^3 (    13.50620 Ang^3 )
     density =      6.86594 g/cm^3

CELL_PARAMETERS (angstrom)
  -1.500229671   1.500229671   1.500229671
   1.500229671  -1.500229671   1.500229671
   1.500229671   1.500229671  -1.500229671

ATOMIC_POSITIONS (angstrom)
Fe            0.0000000000        0.0000000000        0.0000000000



     Writing config-only to output data dir /home/gridsan/epan1/labutil/lab3_samples/problem1/Lab3/Fe_bcc_a_2.8046394196999995_ecut_30_nk_2/pwscf.save/
     NEW-OLD atomic charge density approx. for the potential

     Check: negative core charge=   -0.000014
     extrapolated charge    8.01299, renormalised to    8.00000
     Generating pointlists ...

     total cpu time spent up to now is        2.7 secs

     Self-consistent Calculation

     iteration #  1     ecut=    30.00 Ry     beta= 0.50
     Davidson diagonalization with overlap
     ethr =  1.00E-06,  avg # of iterations =  2.2

     total cpu time spent up to now is        2.7 secs

     total energy              =     -55.71953928 Ry
     estimated scf accuracy    <       0.00004568 Ry

     total magnetization       =     3.75 Bohr mag/cell
     absolute magnetization    =     3.75 Bohr mag/cell

     iteration #  2     ecut=    30.00 Ry     beta= 0.50
     Davidson diagonalization with overlap
     ethr =  5.71E-07,  avg # of iterations =  3.3

     total cpu time spent up to now is        2.8 secs

     total energy              =     -55.71959269 Ry
     estimated scf accuracy    <       0.00004770 Ry

     total magnetization       =     3.75 Bohr mag/cell
     absolute magnetization    =     3.75 Bohr mag/cell

     iteration #  3     ecut=    30.00 Ry     beta= 0.50
     Davidson diagonalization with overlap
     ethr =  5.71E-07,  avg # of iterations =  1.2

     total cpu time spent up to now is        2.8 secs

     total energy              =     -55.71958719 Ry
     estimated scf accuracy    <       0.00001097 Ry

     total magnetization       =     3.75 Bohr mag/cell
     absolute magnetization    =     3.75 Bohr mag/cell

     iteration #  4     ecut=    30.00 Ry     beta= 0.50
     Davidson diagonalization with overlap
     ethr =  1.37E-07,  avg # of iterations =  2.8

     total cpu time spent up to now is        2.8 secs

     total energy              =     -55.71959297 Ry
     estimated scf accuracy    <       0.00000437 Ry

     total magnetization       =     3.75 Bohr mag/cell
     absolute magnetization    =     3.75 Bohr mag/cell

     iteration #  5     ecut=    30.00 Ry     beta= 0.50
     Davidson diagonalization with overlap
     ethr =  5.46E-08,  avg # of iterations =  1.0

     total cpu time spent up to now is        2.8 secs

     total energy              =     -55.71959167 Ry
     estimated scf accuracy    <       0.00000248 Ry

     total magnetization       =     3.75 Bohr mag/cell
     absolute magnetization    =     3.75 Bohr mag/cell

     iteration #  6     ecut=    30.00 Ry     beta= 0.50
     Davidson diagonalization with overlap
     ethr =  3.10E-08,  avg # of iterations =  2.0

     total cpu time spent up to now is        2.9 secs

     total energy              =     -55.71959211 Ry
     estimated scf accuracy    <       0.00000003 Ry

     total magnetization       =     3.75 Bohr mag/cell
     absolute magnetization    =     3.75 Bohr mag/cell

     iteration #  7     ecut=    30.00 Ry     beta= 0.50
     Davidson diagonalization with overlap
     ethr =  3.49E-10,  avg # of iterations =  3.8

     total cpu time spent up to now is        2.9 secs

     total energy              =     -55.71959216 Ry
     estimated scf accuracy    <       0.00000010 Ry

     total magnetization       =     3.75 Bohr mag/cell
     absolute magnetization    =     3.75 Bohr mag/cell

     iteration #  8     ecut=    30.00 Ry     beta= 0.50
     Davidson diagonalization with overlap
     ethr =  3.49E-10,  avg # of iterations =  2.0

     total cpu time spent up to now is        2.9 secs

     total energy              =     -55.71959217 Ry
     estimated scf accuracy    <       0.00000003 Ry

     total magnetization       =     3.75 Bohr mag/cell
     absolute magnetization    =     3.75 Bohr mag/cell

     iteration #  9     ecut=    30.00 Ry     beta= 0.50
     Davidson diagonalization with overlap
     ethr =  3.49E-10,  avg # of iterations =  1.0

     total cpu time spent up to now is        2.9 secs

     total energy              =     -55.71959214 Ry
     estimated scf accuracy    <       0.00000005 Ry

     total magnetization       =     3.75 Bohr mag/cell
     absolute magnetization    =     3.75 Bohr mag/cell

     iteration # 10     ecut=    30.00 Ry     beta= 0.50
     Davidson diagonalization with overlap
     ethr =  3.49E-10,  avg # of iterations =  2.2

     Magnetic moment per site  (integrated on atomic sphere of radius R)
     atom   1 (R=0.413)  charge=  6.2693  magn=  3.1784

     total cpu time spent up to now is        3.0 secs

     End of self-consistent calculation

 ------ SPIN UP ------------


          k = 0.0000 0.0000 0.0000 (   201 PWs)   bands (ev):

     2.6122   8.6328   8.6328   8.6328   9.4771   9.4771  32.9746  32.9746

          k =-0.4048-0.4048 0.0000 (   194 PWs)   bands (ev):

     6.3036   7.7566   9.5621   9.6290  10.6632  10.7613  16.3382  26.7484

          k =-0.8095-0.8095-0.8095 (   236 PWs)   bands (ev):

     6.4339   6.4339  10.5483  10.5483  10.5483  19.0525  19.0525  19.0525

 ------ SPIN DOWN ----------


          k = 0.0000 0.0000 0.0000 (   201 PWs)   bands (ev):

     4.2527  11.6033  11.6033  11.6033  13.4655  13.4655  34.5370  34.5370

          k =-0.4048-0.4048 0.0000 (   194 PWs)   bands (ev):

     8.8359  10.5723  12.3438  13.2740  13.6418  14.0617  18.9241  28.6510

          k =-0.8095-0.8095-0.8095 (   236 PWs)   bands (ev):

     9.6986   9.6986  13.8186  13.8186  13.8186  20.5113  20.5113  20.5113

     the Fermi energy is    11.6588 ev

!    total energy              =     -55.71959215 Ry
     estimated scf accuracy    <          9.2E-10 Ry
     smearing contrib. (-TS)   =      -0.00088555 Ry
     internal energy E=F+TS    =     -55.71870661 Ry

     The total energy is F=E-TS. E is the sum of the following terms:
     one-electron contribution =       4.26729825 Ry
     hartree contribution      =       7.59808515 Ry
     xc contribution           =     -26.50665877 Ry
     ewald contribution        =     -41.07743124 Ry

     total magnetization       =     3.75 Bohr mag/cell
     absolute magnetization    =     3.75 Bohr mag/cell

     convergence has been achieved in  10 iterations

     Forces acting on atoms (cartesian axes, Ry/au):

     atom    1 type  1   force =     0.00000000    0.00000000    0.00000000
     The non-local contrib.  to forces
     atom    1 type  1   force =    -0.00000000    0.00000000   -0.00000000
     The ionic contribution  to forces
     atom    1 type  1   force =    -0.00000000   -0.00000000   -0.00000000
     The local contribution  to forces
     atom    1 type  1   force =    -0.00000000   -0.00000000   -0.00000000
     The core correction contribution to forces
     atom    1 type  1   force =    -0.00000000   -0.00000000   -0.00000000
     The Hubbard contrib.    to forces
     atom    1 type  1   force =     0.00000000    0.00000000    0.00000000
     The SCF correction term to forces
     atom    1 type  1   force =     0.00000000   -0.00000000   -0.00000000

     Total force =     0.000000     Total SCF correction =     0.000000


     Computing stress (Cartesian axis) and pressure

          total   stress  (Ry/bohr**3)                   (kbar)     P=        0.65
   0.00000445   0.00000000   0.00000000            0.65        0.00        0.00
   0.00000000   0.00000445   0.00000000            0.00        0.65        0.00
   0.00000000   0.00000000   0.00000445            0.00        0.00        0.65

     Energy error            =      1.3E-06 Ry
     Gradient error          =      0.0E+00 Ry/Bohr
     Cell gradient error     =      6.5E-01 kbar

     number of scf cycles    =   4
     number of bfgs steps    =   3

     enthalpy           old  =     -55.7195908731 Ry
     enthalpy           new  =     -55.7195921524 Ry

     CASE: enthalpy          _new < enthalpy          _old

     new trust radius        =       0.0003704856 bohr
     new conv_thr            =       0.0000000010 Ry

     new unit-cell volume =     91.19743 a.u.^3 (    13.51407 Ang^3 )
     density =      6.86195 g/cm^3

CELL_PARAMETERS (angstrom)
  -1.500520766   1.500520766   1.500520766
   1.500520766  -1.500520766   1.500520766
   1.500520766   1.500520766  -1.500520766

ATOMIC_POSITIONS (angstrom)
Fe            0.0000000000        0.0000000000        0.0000000000



     Writing config-only to output data dir /home/gridsan/epan1/labutil/lab3_samples/problem1/Lab3/Fe_bcc_a_2.8046394196999995_ecut_30_nk_2/pwscf.save/
     NEW-OLD atomic charge density approx. for the potential

     Check: negative core charge=   -0.000014
     extrapolated charge    8.00465, renormalised to    8.00000
     Generating pointlists ...

     total cpu time spent up to now is        3.2 secs

     Self-consistent Calculation

     iteration #  1     ecut=    30.00 Ry     beta= 0.50
     Davidson diagonalization with overlap
     ethr =  1.00E-06,  avg # of iterations =  2.0

     Threshold (ethr) on eigenvalues was too large:
     Diagonalizing with lowered threshold

     Davidson diagonalization with overlap
     ethr =  7.84E-08,  avg # of iterations =  1.0

     total cpu time spent up to now is        3.3 secs

     total energy              =     -55.71958382 Ry
     estimated scf accuracy    <       0.00000719 Ry

     total magnetization       =     3.75 Bohr mag/cell
     absolute magnetization    =     3.75 Bohr mag/cell

     iteration #  2     ecut=    30.00 Ry     beta= 0.50
     Davidson diagonalization with overlap
     ethr =  8.99E-08,  avg # of iterations =  3.3

     total cpu time spent up to now is        3.3 secs

     total energy              =     -55.71959212 Ry
     estimated scf accuracy    <       0.00000738 Ry

     total magnetization       =     3.75 Bohr mag/cell
     absolute magnetization    =     3.75 Bohr mag/cell

     iteration #  3     ecut=    30.00 Ry     beta= 0.50
     Davidson diagonalization with overlap
     ethr =  8.99E-08,  avg # of iterations =  1.2

     total cpu time spent up to now is        3.3 secs

     total energy              =     -55.71959129 Ry
     estimated scf accuracy    <       0.00000169 Ry

     total magnetization       =     3.75 Bohr mag/cell
     absolute magnetization    =     3.75 Bohr mag/cell

     iteration #  4     ecut=    30.00 Ry     beta= 0.50
     Davidson diagonalization with overlap
     ethr =  2.11E-08,  avg # of iterations =  2.8

     total cpu time spent up to now is        3.3 secs

     total energy              =     -55.71959216 Ry
     estimated scf accuracy    <       0.00000054 Ry

     total magnetization       =     3.75 Bohr mag/cell
     absolute magnetization    =     3.75 Bohr mag/cell

     iteration #  5     ecut=    30.00 Ry     beta= 0.50
     Davidson diagonalization with overlap
     ethr =  6.69E-09,  avg # of iterations =  1.0

     total cpu time spent up to now is        3.4 secs

     total energy              =     -55.71959201 Ry
     estimated scf accuracy    <       0.00000038 Ry

     total magnetization       =     3.75 Bohr mag/cell
     absolute magnetization    =     3.75 Bohr mag/cell

     iteration #  6     ecut=    30.00 Ry     beta= 0.50
     Davidson diagonalization with overlap
     ethr =  4.73E-09,  avg # of iterations =  1.7

     total cpu time spent up to now is        3.4 secs

     total energy              =     -55.71959201 Ry
     estimated scf accuracy    <       0.00000005 Ry

     total magnetization       =     3.75 Bohr mag/cell
     absolute magnetization    =     3.75 Bohr mag/cell

     iteration #  7     ecut=    30.00 Ry     beta= 0.50
     Davidson diagonalization with overlap
     ethr =  5.96E-10,  avg # of iterations =  2.3

     total cpu time spent up to now is        3.4 secs

     total energy              =     -55.71959204 Ry
     estimated scf accuracy    <          4.1E-09 Ry

     total magnetization       =     3.75 Bohr mag/cell
     absolute magnetization    =     3.75 Bohr mag/cell

     iteration #  8     ecut=    30.00 Ry     beta= 0.50
     Davidson diagonalization with overlap
     ethr =  5.14E-11,  avg # of iterations =  1.8

     total cpu time spent up to now is        3.5 secs

     total energy              =     -55.71959203 Ry
     estimated scf accuracy    <       0.00000001 Ry

     total magnetization       =     3.75 Bohr mag/cell
     absolute magnetization    =     3.75 Bohr mag/cell

     iteration #  9     ecut=    30.00 Ry     beta= 0.50
     Davidson diagonalization with overlap
     ethr =  5.14E-11,  avg # of iterations =  1.8

     total cpu time spent up to now is        3.5 secs

     total energy              =     -55.71959203 Ry
     estimated scf accuracy    <          2.9E-09 Ry

     total magnetization       =     3.75 Bohr mag/cell
     absolute magnetization    =     3.75 Bohr mag/cell

     iteration # 10     ecut=    30.00 Ry     beta= 0.50
     Davidson diagonalization with overlap
     ethr =  3.62E-11,  avg # of iterations =  2.0

     Magnetic moment per site  (integrated on atomic sphere of radius R)
     atom   1 (R=0.413)  charge=  6.2688  magn=  3.1782

     total cpu time spent up to now is        3.5 secs

     End of self-consistent calculation

 ------ SPIN UP ------------


          k = 0.0000 0.0000 0.0000 (   201 PWs)   bands (ev):

     2.6068   8.6246   8.6246   8.6246   9.4679   9.4679  32.9606  32.9606

          k =-0.4047-0.4047 0.0000 (   194 PWs)   bands (ev):

     6.2973   7.7492   9.5529   9.6196  10.6549  10.7512  16.3249  26.7351

          k =-0.8093-0.8093-0.8093 (   236 PWs)   bands (ev):

     6.4276   6.4276  10.5384  10.5384  10.5384  19.0403  19.0403  19.0403

 ------ SPIN DOWN ----------


          k = 0.0000 0.0000 0.0000 (   201 PWs)   bands (ev):

     4.2469  11.5950  11.5950  11.5950  13.4561  13.4561  34.5227  34.5227

          k =-0.4047-0.4047 0.0000 (   194 PWs)   bands (ev):

     8.8294  10.5648  12.3351  13.2647  13.6323  14.0514  18.9104  28.6373

          k =-0.8093-0.8093-0.8093 (   236 PWs)   bands (ev):

     9.6923   9.6923  13.8085  13.8085  13.8085  20.4987  20.4987  20.4987

     the Fermi energy is    11.6506 ev

!    total energy              =     -55.71959203 Ry
     estimated scf accuracy    <          2.1E-10 Ry
     smearing contrib. (-TS)   =      -0.00088522 Ry
     internal energy E=F+TS    =     -55.71870681 Ry

     The total energy is F=E-TS. E is the sum of the following terms:
     one-electron contribution =       4.25585056 Ry
     hartree contribution      =       7.60113369 Ry
     xc contribution           =     -26.50622866 Ry
     ewald contribution        =     -41.06946240 Ry

     total magnetization       =     3.75 Bohr mag/cell
     absolute magnetization    =     3.75 Bohr mag/cell

     convergence has been achieved in  10 iterations

     Forces acting on atoms (cartesian axes, Ry/au):

     atom    1 type  1   force =     0.00000000    0.00000000    0.00000000
     The non-local contrib.  to forces
     atom    1 type  1   force =     0.00000000    0.00000000    0.00000000
     The ionic contribution  to forces
     atom    1 type  1   force =    -0.00000000   -0.00000000   -0.00000000
     The local contribution  to forces
     atom    1 type  1   force =    -0.00000000   -0.00000000   -0.00000000
     The core correction contribution to forces
     atom    1 type  1   force =    -0.00000000   -0.00000000   -0.00000000
     The Hubbard contrib.    to forces
     atom    1 type  1   force =     0.00000000    0.00000000    0.00000000
     The SCF correction term to forces
     atom    1 type  1   force =     0.00000000    0.00000000    0.00000000

     Total force =     0.000000     Total SCF correction =     0.000000


     Computing stress (Cartesian axis) and pressure

          total   stress  (Ry/bohr**3)                   (kbar)     P=       -0.50
  -0.00000337   0.00000000   0.00000000           -0.50        0.00        0.00
   0.00000000  -0.00000337   0.00000000            0.00       -0.50        0.00
   0.00000000   0.00000000  -0.00000337            0.00        0.00       -0.50

     Energy error            =      1.2E-07 Ry
     Gradient error          =      0.0E+00 Ry/Bohr
     Cell gradient error     =      5.0E-01 kbar

     bfgs converged in   5 scf cycles and   4 bfgs steps
     (criteria: energy <  1.0E-04 Ry, force <  1.0E-03 Ry/Bohr, cell <  5.0E-01 kbar)

     End of BFGS Geometry Optimization

     Final enthalpy           =     -55.7195920312 Ry

     File /home/gridsan/epan1/labutil/lab3_samples/problem1/Lab3/Fe_bcc_a_2.8046394196999995_ecut_30_nk_2/pwscf.bfgs deleted, as requested
Begin final coordinates
     new unit-cell volume =     91.19743 a.u.^3 (    13.51407 Ang^3 )
     density =      6.86195 g/cm^3

CELL_PARAMETERS (angstrom)
  -1.500520766   1.500520766   1.500520766
   1.500520766  -1.500520766   1.500520766
   1.500520766   1.500520766  -1.500520766

ATOMIC_POSITIONS (angstrom)
Fe            0.0000000000        0.0000000000        0.0000000000
End final coordinates



     Writing config-only to output data dir /home/gridsan/epan1/labutil/lab3_samples/problem1/Lab3/Fe_bcc_a_2.8046394196999995_ecut_30_nk_2/pwscf.save/

     Final scf calculation at the relaxed structure.
     The G-vectors are recalculated for the final unit cell
     Results may differ from those at the preceding step.

     Parallelization info
     --------------------
     sticks:   dense  smooth     PW     G-vecs:    dense   smooth      PW
     Min         108      54     24                 1430      496     156
     Max         109      55     25                 1431      497     157
     Sum         435     217     99                 5721     1985     627

     Using Slab Decomposition



     bravais-lattice index     =            0
     lattice parameter (alat)  =       4.5899  a.u.
     unit-cell volume          =      91.1974 (a.u.)^3
     number of atoms/cell      =            1
     number of atomic types    =            1
     number of electrons       =         8.00
     number of Kohn-Sham states=            8
     kinetic-energy cutoff     =      30.0000  Ry
     charge density cutoff     =     240.0000  Ry
     scf convergence threshold =      1.0E-09
     mixing beta               =       0.5000
     number of iterations used =            8  plain     mixing
     press convergence thresh. =      5.0E-01
     Exchange-correlation=  SLA  PW   PBE  PBE
                           (   1   4   3   4   0   0   0)

     celldm(1)=   4.589935  celldm(2)=   0.000000  celldm(3)=   0.000000
     celldm(4)=   0.000000  celldm(5)=   0.000000  celldm(6)=   0.000000

     crystal axes: (cart. coord. in units of alat)
               a(1) = (  -0.617781   0.617781   0.617781 )  
               a(2) = (   0.617781  -0.617781   0.617781 )  
               a(3) = (   0.617781   0.617781  -0.617781 )  

     reciprocal axes: (cart. coord. in units 2 pi/alat)
               b(1) = (  0.000000  0.809349  0.809349 )  
               b(2) = (  0.809349  0.000000  0.809349 )  
               b(3) = (  0.809349  0.809349  0.000000 )  


     PseudoPot. # 1 for Fe read from file:
     /home/gridsan/epan1/labutil/lab3_samples/pseudopotentials/Fe.pbe-nd-rrkjus.UPF
     MD5 check sum: 398036227a04b607635f6f5e8dfd8242
     Pseudo is Ultrasoft + core correction, Zval =  8.0
     Generated by new atomic code, or converted to UPF format
     Using radial grid of  957 points,  6 beta functions with: 
                l(1) =   0
                l(2) =   0
                l(3) =   1
                l(4) =   1
                l(5) =   2
                l(6) =   2
     Q(r) pseudized with 0 coefficients 


     atomic species   valence    mass     pseudopotential
        Fe             8.00    55.84500     Fe( 1.00)

     Starting magnetic structure 
     atomic species   magnetization
        Fe           0.507

     48 Sym. Ops., with inversion, found



   Cartesian axes

     site n.     atom                  positions (alat units)
         1           Fe  tau(   1) = (   0.0000000   0.0000000   0.0000000  )

     number of k points=     3  Methfessel-Paxton smearing, width (Ry)=  0.0200
                       cart. coord. in units 2pi/alat
        k(    1) = (   0.0000000   0.0000000   0.0000000), wk =   0.1250000
        k(    2) = (  -0.4046743  -0.4046743   0.0000000), wk =   0.7500000
        k(    3) = (  -0.8093487  -0.8093487  -0.8093487), wk =   0.1250000

     Dense  grid:     5721 G-vectors     FFT dimensions: (  25,  25,  25)

     Smooth grid:     1985 G-vectors     FFT dimensions: (  18,  18,  18)

     Estimated max dynamical RAM per process >       8.48 MB

     Estimated total dynamical RAM >      33.91 MB
     Generating pointlists ...

     Initial potential from superposition of free atoms

     starting charge       7.9994, renormalised to       8.0000
     Starting wfcs are    6 randomized atomic wfcs +    2 random wfcs

     total cpu time spent up to now is        4.0 secs

     Self-consistent Calculation

     iteration #  1     ecut=    30.00 Ry     beta= 0.50
     Davidson diagonalization with overlap
     c_bands:  1 eigenvalues not converged
     c_bands:  1 eigenvalues not converged
     ethr =  1.00E-06,  avg # of iterations = 18.5

     total cpu time spent up to now is        4.1 secs

     total energy              =     -55.50742948 Ry
     estimated scf accuracy    <       0.50197136 Ry

     total magnetization       =     3.08 Bohr mag/cell
     absolute magnetization    =     3.08 Bohr mag/cell

     iteration #  2     ecut=    30.00 Ry     beta= 0.50
     Davidson diagonalization with overlap
     ethr =  6.27E-03,  avg # of iterations =  2.0

     total cpu time spent up to now is        4.1 secs

     total energy              =     -55.62995389 Ry
     estimated scf accuracy    <       0.45492397 Ry

     total magnetization       =     2.76 Bohr mag/cell
     absolute magnetization    =     2.76 Bohr mag/cell

     iteration #  3     ecut=    30.00 Ry     beta= 0.50
     Davidson diagonalization with overlap
     ethr =  5.69E-03,  avg # of iterations =  1.0

     total cpu time spent up to now is        4.1 secs

     total energy              =     -55.71516026 Ry
     estimated scf accuracy    <       0.00615781 Ry

     total magnetization       =     3.76 Bohr mag/cell
     absolute magnetization    =     3.76 Bohr mag/cell

     iteration #  4     ecut=    30.00 Ry     beta= 0.50
     Davidson diagonalization with overlap
     ethr =  7.70E-05,  avg # of iterations =  2.3

     total cpu time spent up to now is        4.2 secs

     total energy              =     -55.71896880 Ry
     estimated scf accuracy    <       0.00264579 Ry

     total magnetization       =     3.75 Bohr mag/cell
     absolute magnetization    =     3.75 Bohr mag/cell

     iteration #  5     ecut=    30.00 Ry     beta= 0.50
     Davidson diagonalization with overlap
     ethr =  3.31E-05,  avg # of iterations =  1.7

     total cpu time spent up to now is        4.2 secs

     total energy              =     -55.71932657 Ry
     estimated scf accuracy    <       0.00006439 Ry

     total magnetization       =     3.75 Bohr mag/cell
     absolute magnetization    =     3.75 Bohr mag/cell

     iteration #  6     ecut=    30.00 Ry     beta= 0.50
     Davidson diagonalization with overlap
     ethr =  8.05E-07,  avg # of iterations =  2.2

     total cpu time spent up to now is        4.2 secs

     total energy              =     -55.71934715 Ry
     estimated scf accuracy    <       0.00000881 Ry

     total magnetization       =     3.75 Bohr mag/cell
     absolute magnetization    =     3.75 Bohr mag/cell

     iteration #  7     ecut=    30.00 Ry     beta= 0.50
     Davidson diagonalization with overlap
     ethr =  1.10E-07,  avg # of iterations =  2.5

     total cpu time spent up to now is        4.3 secs

     total energy              =     -55.71935078 Ry
     estimated scf accuracy    <       0.00000007 Ry

     total magnetization       =     3.75 Bohr mag/cell
     absolute magnetization    =     3.75 Bohr mag/cell

     iteration #  8     ecut=    30.00 Ry     beta= 0.50
     Davidson diagonalization with overlap
     ethr =  8.94E-10,  avg # of iterations =  5.3

     total cpu time spent up to now is        4.3 secs

     total energy              =     -55.71935128 Ry
     estimated scf accuracy    <       0.00000002 Ry

     total magnetization       =     3.75 Bohr mag/cell
     absolute magnetization    =     3.75 Bohr mag/cell

     iteration #  9     ecut=    30.00 Ry     beta= 0.50
     Davidson diagonalization with overlap
     ethr =  2.21E-10,  avg # of iterations =  2.0

     total cpu time spent up to now is        4.4 secs

     total energy              =     -55.71935137 Ry
     estimated scf accuracy    <          2.6E-09 Ry

     total magnetization       =     3.75 Bohr mag/cell
     absolute magnetization    =     3.75 Bohr mag/cell

     iteration # 10     ecut=    30.00 Ry     beta= 0.50
     Davidson diagonalization with overlap
     ethr =  3.27E-11,  avg # of iterations =  4.2

     Magnetic moment per site  (integrated on atomic sphere of radius R)
     atom   1 (R=0.413)  charge=  6.2675  magn=  3.1783

     total cpu time spent up to now is        4.4 secs

     End of self-consistent calculation

 ------ SPIN UP ------------


          k = 0.0000 0.0000 0.0000 (   249 PWs)   bands (ev):

     2.6088   8.6183   8.6183   8.6183   9.4617   9.4617  32.9605  32.9605

          k =-0.4047-0.4047 0.0000 (   250 PWs)   bands (ev):

     6.2946   7.7436   9.5469   9.6131  10.6562  10.7441  16.3231  26.7354

          k =-0.8093-0.8093-0.8093 (   236 PWs)   bands (ev):

     6.4244   6.4244  10.5319  10.5319  10.5319  19.0439  19.0439  19.0439

 ------ SPIN DOWN ----------


          k = 0.0000 0.0000 0.0000 (   249 PWs)   bands (ev):

     4.2355  11.5864  11.5864  11.5864  13.4476  13.4476  34.5083  34.5083

          k =-0.4047-0.4047 0.0000 (   250 PWs)   bands (ev):

     8.8196  10.5557  12.3229  13.2562  13.6232  14.0439  18.9015  28.6237

          k =-0.8093-0.8093-0.8093 (   236 PWs)   bands (ev):

     9.6830   9.6830  13.8015  13.8015  13.8015  20.4889  20.4889  20.4889

     the Fermi energy is    11.6420 ev

!    total energy              =     -55.71935140 Ry
     estimated scf accuracy    <          5.6E-11 Ry
     smearing contrib. (-TS)   =      -0.00088249 Ry
     internal energy E=F+TS    =     -55.71846891 Ry

     The total energy is F=E-TS. E is the sum of the following terms:
     one-electron contribution =       4.25619801 Ry
     hartree contribution      =       7.59864536 Ry
     xc contribution           =     -26.50384998 Ry
     ewald contribution        =     -41.06946230 Ry

     total magnetization       =     3.75 Bohr mag/cell
     absolute magnetization    =     3.75 Bohr mag/cell

     convergence has been achieved in  10 iterations

     Forces acting on atoms (cartesian axes, Ry/au):

     atom    1 type  1   force =     0.00000000    0.00000000    0.00000000
     The non-local contrib.  to forces
     atom    1 type  1   force =     0.00000000    0.00000000    0.00000000
     The ionic contribution  to forces
     atom    1 type  1   force =    -0.00000000   -0.00000000   -0.00000000
     The local contribution  to forces
     atom    1 type  1   force =     0.00000000    0.00000000    0.00000000
     The core correction contribution to forces
     atom    1 type  1   force =     0.00000000    0.00000000   -0.00000000
     The Hubbard contrib.    to forces
     atom    1 type  1   force =     0.00000000    0.00000000    0.00000000
     The SCF correction term to forces
     atom    1 type  1   force =    -0.00000000    0.00000000   -0.00000000

     Total force =     0.000000     Total SCF correction =     0.000000


     Computing stress (Cartesian axis) and pressure

          total   stress  (Ry/bohr**3)                   (kbar)     P=      -16.03
  -0.00010898   0.00000000   0.00000000          -16.03        0.00        0.00
   0.00000000  -0.00010898   0.00000000            0.00      -16.03        0.00
   0.00000000   0.00000000  -0.00010898            0.00        0.00      -16.03


     init_run     :      0.60s CPU      0.60s WALL (       2 calls)
     electrons    :      2.40s CPU      2.48s WALL (       6 calls)
     update_pot   :      0.36s CPU      0.29s WALL (       4 calls)
     forces       :      0.30s CPU      0.28s WALL (       6 calls)
     stress       :      0.69s CPU      0.63s WALL (       6 calls)

     Called by init_run:
     wfcinit      :      0.01s CPU      0.01s WALL (       2 calls)
     potinit      :      0.13s CPU      0.13s WALL (       2 calls)
     hinit0       :      0.46s CPU      0.45s WALL (       2 calls)

     Called by electrons:
     c_bands      :      1.02s CPU      1.18s WALL (      81 calls)
     sum_band     :      0.57s CPU      0.57s WALL (      81 calls)
     v_of_rho     :      0.46s CPU      0.40s WALL (      86 calls)
     newd         :      0.25s CPU      0.22s WALL (      86 calls)
     mix_rho      :      0.08s CPU      0.07s WALL (      81 calls)

     Called by c_bands:
     init_us_2    :      0.03s CPU      0.03s WALL (    1056 calls)
     init_us_2:cp :      0.03s CPU      0.03s WALL (    1056 calls)
     cegterg      :      0.85s CPU      0.83s WALL (     486 calls)

     Called by *egterg:
     cdiaghg      :      0.16s CPU      0.15s WALL (    1585 calls)
     h_psi        :      0.52s CPU      0.52s WALL (    1627 calls)
     s_psi        :      0.01s CPU      0.01s WALL (    1627 calls)
     g_psi        :      0.00s CPU      0.00s WALL (    1129 calls)

     Called by h_psi:
     h_psi:calbec :      0.05s CPU      0.05s WALL (    1627 calls)
     vloc_psi     :      0.45s CPU      0.44s WALL (    1627 calls)
     add_vuspsi   :      0.01s CPU      0.01s WALL (    1627 calls)

     General routines
     calbec       :      0.07s CPU      0.07s WALL (    2293 calls)
     fft          :      0.35s CPU      0.32s WALL (    2384 calls)
     ffts         :      0.10s CPU      0.10s WALL (     334 calls)
     fftw         :      0.45s CPU      0.46s WALL (   23292 calls)
     interpolate  :      0.12s CPU      0.11s WALL (     172 calls)

     Parallel routines

     PWSCF        :      4.56s CPU      4.59s WALL


   This run was terminated on:  10:20: 7  31Oct2023            

=------------------------------------------------------------------------------=
   JOB DONE.
=------------------------------------------------------------------------------=
