
     Program PWSCF v.7.2 starts on  1Nov2023 at 17: 2:48 

     This program is part of the open-source Quantum ESPRESSO suite
     for quantum simulation of materials; please cite
         "P. Giannozzi et al., J. Phys.:Condens. Matter 21 395502 (2009);
         "P. Giannozzi et al., J. Phys.:Condens. Matter 29 465901 (2017);
         "P. Giannozzi et al., J. Chem. Phys. 152 154105 (2020);
          URL http://www.quantum-espresso.org", 
     in publications or presentations arising from this work. More details at
     http://www.quantum-espresso.org/quote

     Parallel version (MPI), running on     4 processors

     MPI processes distributed on     4 nodes
     186319 MiB available memory on the printing compute node when the environment starts

     Waiting for input...
     Reading input from standard input

     Current dimensions of program PWSCF are:
     Max number of different atomic species (ntypx) = 10
     Max number of k-points (npk) =  40000
     Max angular momentum in pseudopotentials (lmaxx) =  4
     file Fe.pbe-nd-rrkjus.UPF: wavefunction(s)  4S renormalized
     Message from routine setup:
     using ibrav=0 with symmetry is DISCOURAGED, use correct ibrav instead

     R & G space division:  proc/nbgrp/npool/nimage =       4
     Subspace diagonalization in iterative solution of the eigenvalue problem:
     a serial algorithm will be used


     Parallelization info
     --------------------
     sticks:   dense  smooth     PW     G-vecs:    dense   smooth      PW
     Min          95      45     22                 1181      400     138
     Max          96      46     23                 1183      401     139
     Sum         383     181     91                 4729     1601     555

     Using Slab Decomposition



     bravais-lattice index     =            0
     lattice parameter (alat)  =       4.5899  a.u.
     unit-cell volume          =      74.4385 (a.u.)^3
     number of atoms/cell      =            1
     number of atomic types    =            1
     number of electrons       =         8.00
     number of Kohn-Sham states=            8
     kinetic-energy cutoff     =      30.0000  Ry
     charge density cutoff     =     240.0000  Ry
     scf convergence threshold =      1.0E-07
     mixing beta               =       0.5000
     number of iterations used =            8  plain     mixing
     energy convergence thresh.=      1.0E-04
     force convergence thresh. =      1.0E-03
     press convergence thresh. =      5.0E-01
     Exchange-correlation=  SLA  PW   PBE  PBE
                           (   1   4   3   4   0   0   0)
     nstep                     =           50


     celldm(1)=   4.589935  celldm(2)=   0.000000  celldm(3)=   0.000000
     celldm(4)=   0.000000  celldm(5)=   0.000000  celldm(6)=   0.000000

     crystal axes: (cart. coord. in units of alat)
               a(1) = (  -0.577350   0.577350   0.577350 )  
               a(2) = (   0.577350  -0.577350   0.577350 )  
               a(3) = (   0.577350   0.577350  -0.577350 )  

     reciprocal axes: (cart. coord. in units 2 pi/alat)
               b(1) = (  0.000000  0.866025  0.866025 )  
               b(2) = (  0.866025  0.000000  0.866025 )  
               b(3) = (  0.866025  0.866025  0.000000 )  


     PseudoPot. # 1 for Fe read from file:
     /home/gridsan/epan1/labutil/lab3_samples/pseudopotentials/Fe.pbe-nd-rrkjus.UPF
     MD5 check sum: 398036227a04b607635f6f5e8dfd8242
     Pseudo is Ultrasoft + core correction, Zval =  8.0
     Generated by new atomic code, or converted to UPF format
     Using radial grid of  957 points,  6 beta functions with: 
                l(1) =   0
                l(2) =   0
                l(3) =   1
                l(4) =   1
                l(5) =   2
                l(6) =   2
     Q(r) pseudized with 0 coefficients 


     atomic species   valence    mass     pseudopotential
        Fe             8.00    55.84500     Fe( 1.00)

     Starting magnetic structure 
     atomic species   magnetization
        Fe           0.700

     48 Sym. Ops., with inversion, found



   Cartesian axes

     site n.     atom                  positions (alat units)
         1           Fe  tau(   1) = (   0.0000000   0.0000000   0.0000000  )

     number of k points=     3  Methfessel-Paxton smearing, width (Ry)=  0.0200
                       cart. coord. in units 2pi/alat
        k(    1) = (   0.0000000   0.0000000   0.0000000), wk =   0.1250000
        k(    2) = (  -0.4330127  -0.4330127   0.0000000), wk =   0.7500000
        k(    3) = (  -0.8660254  -0.8660254  -0.8660254), wk =   0.1250000

     Dense  grid:     4729 G-vectors     FFT dimensions: (  24,  24,  24)

     Smooth grid:     1601 G-vectors     FFT dimensions: (  15,  15,  15)

     Estimated max dynamical RAM per process >       7.42 MB

     Estimated total dynamical RAM >      29.67 MB
     Generating pointlists ...
     new r_m :   0.4125 (alat units)  1.8933 (a.u.) for type    1

     Initial potential from superposition of free atoms

     starting charge       7.9994, renormalised to       8.0000
     Starting wfcs are    6 randomized atomic wfcs +    2 random wfcs

     total cpu time spent up to now is        2.6 secs

     Self-consistent Calculation

     iteration #  1     ecut=    30.00 Ry     beta= 0.50
     Davidson diagonalization with overlap
     ethr =  1.00E-02,  avg # of iterations =  6.7

     total cpu time spent up to now is        3.3 secs

     total energy              =     -55.61700135 Ry
     estimated scf accuracy    <       0.22518680 Ry

     total magnetization       =     3.75 Bohr mag/cell
     absolute magnetization    =     3.75 Bohr mag/cell

     iteration #  2     ecut=    30.00 Ry     beta= 0.50
     Davidson diagonalization with overlap
     ethr =  2.81E-03,  avg # of iterations =  1.7

     total cpu time spent up to now is        3.7 secs

     total energy              =     -55.68888492 Ry
     estimated scf accuracy    <       0.02678827 Ry

     total magnetization       =     3.75 Bohr mag/cell
     absolute magnetization    =     3.75 Bohr mag/cell

     iteration #  3     ecut=    30.00 Ry     beta= 0.50
     Davidson diagonalization with overlap
     ethr =  3.35E-04,  avg # of iterations =  3.0

     total cpu time spent up to now is        4.5 secs

     total energy              =     -55.69742984 Ry
     estimated scf accuracy    <       0.00473895 Ry

     total magnetization       =     3.75 Bohr mag/cell
     absolute magnetization    =     3.75 Bohr mag/cell

     iteration #  4     ecut=    30.00 Ry     beta= 0.50
     Davidson diagonalization with overlap
     ethr =  5.92E-05,  avg # of iterations =  2.7

     total cpu time spent up to now is        5.3 secs

     total energy              =     -55.69767846 Ry
     estimated scf accuracy    <       0.00109074 Ry

     total magnetization       =     3.67 Bohr mag/cell
     absolute magnetization    =     3.67 Bohr mag/cell

     iteration #  5     ecut=    30.00 Ry     beta= 0.50
     Davidson diagonalization with overlap
     ethr =  1.36E-05,  avg # of iterations =  7.0

     total cpu time spent up to now is        6.1 secs

     total energy              =     -55.69631051 Ry
     estimated scf accuracy    <       0.00036410 Ry

     total magnetization       =     3.55 Bohr mag/cell
     absolute magnetization    =     3.55 Bohr mag/cell

     iteration #  6     ecut=    30.00 Ry     beta= 0.50
     Davidson diagonalization with overlap
     ethr =  4.55E-06,  avg # of iterations =  1.8

     total cpu time spent up to now is        6.3 secs

     total energy              =     -55.69611565 Ry
     estimated scf accuracy    <       0.00017240 Ry

     total magnetization       =     3.79 Bohr mag/cell
     absolute magnetization    =     3.79 Bohr mag/cell

     iteration #  7     ecut=    30.00 Ry     beta= 0.50
     Davidson diagonalization with overlap
     ethr =  2.16E-06,  avg # of iterations =  1.8

     total cpu time spent up to now is        6.8 secs

     total energy              =     -55.69246995 Ry
     estimated scf accuracy    <       0.00207853 Ry

     total magnetization       =     3.76 Bohr mag/cell
     absolute magnetization    =     3.76 Bohr mag/cell

     iteration #  8     ecut=    30.00 Ry     beta= 0.50
     Davidson diagonalization with overlap
     ethr =  2.16E-06,  avg # of iterations =  3.2

     total cpu time spent up to now is        7.5 secs

     total energy              =     -55.69855375 Ry
     estimated scf accuracy    <       0.00072699 Ry

     total magnetization       =     3.49 Bohr mag/cell
     absolute magnetization    =     3.49 Bohr mag/cell

     iteration #  9     ecut=    30.00 Ry     beta= 0.50
     Davidson diagonalization with overlap
     ethr =  2.16E-06,  avg # of iterations =  1.8

     total cpu time spent up to now is        8.8 secs

     total energy              =     -55.69858409 Ry
     estimated scf accuracy    <       0.00015548 Ry

     total magnetization       =     3.48 Bohr mag/cell
     absolute magnetization    =     3.48 Bohr mag/cell

     iteration # 10     ecut=    30.00 Ry     beta= 0.50
     Davidson diagonalization with overlap
     ethr =  1.94E-06,  avg # of iterations =  1.5

     total cpu time spent up to now is        9.6 secs

     total energy              =     -55.69870141 Ry
     estimated scf accuracy    <       0.00004499 Ry

     total magnetization       =     3.48 Bohr mag/cell
     absolute magnetization    =     3.48 Bohr mag/cell

     iteration # 11     ecut=    30.00 Ry     beta= 0.50
     Davidson diagonalization with overlap
     ethr =  5.62E-07,  avg # of iterations =  1.0

     total cpu time spent up to now is       10.2 secs

     total energy              =     -55.69870101 Ry
     estimated scf accuracy    <       0.00000056 Ry

     total magnetization       =     3.48 Bohr mag/cell
     absolute magnetization    =     3.48 Bohr mag/cell

     iteration # 12     ecut=    30.00 Ry     beta= 0.50
     Davidson diagonalization with overlap
     ethr =  7.01E-09,  avg # of iterations =  3.0

     total cpu time spent up to now is       11.6 secs

     total energy              =     -55.69870172 Ry
     estimated scf accuracy    <       0.00000023 Ry

     total magnetization       =     3.48 Bohr mag/cell
     absolute magnetization    =     3.48 Bohr mag/cell

     iteration # 13     ecut=    30.00 Ry     beta= 0.50
     Davidson diagonalization with overlap
     ethr =  2.91E-09,  avg # of iterations =  1.7

     Magnetic moment per site  (integrated on atomic sphere of radius R)
     atom   1 (R=0.413)  charge=  6.4750  magn=  2.9750

     total cpu time spent up to now is       11.9 secs

     End of self-consistent calculation

 ------ SPIN UP ------------


          k = 0.0000 0.0000 0.0000 (   201 PWs)   bands (ev):

     4.8105  11.8191  11.8191  11.8191  12.9808  12.9808  38.1834  38.1834

          k =-0.4330-0.4330 0.0000 (   194 PWs)   bands (ev):

     8.7360  10.6032  13.1164  13.2171  13.9444  14.7311  21.5123  31.7137

          k =-0.8660-0.8660-0.8660 (   236 PWs)   bands (ev):

     8.7678   8.7678  14.4331  14.4331  14.4331  23.7847  23.7847  23.7847

 ------ SPIN DOWN ----------


          k = 0.0000 0.0000 0.0000 (   201 PWs)   bands (ev):

     6.5620  14.4684  14.4684  14.4684  16.8658  16.8658  39.8975  39.8975

          k =-0.4330-0.4330 0.0000 (   194 PWs)   bands (ev):

    11.1745  13.1225  15.7682  16.6424  17.1190  17.6991  24.0336  33.7915

          k =-0.8660-0.8660-0.8660 (   236 PWs)   bands (ev):

    11.9462  11.9462  17.3730  17.3730  17.3730  25.2868  25.2868  25.2869

     the Fermi energy is    14.8366 ev

!    total energy              =     -55.69870183 Ry
     estimated scf accuracy    <       0.00000002 Ry
     smearing contrib. (-TS)   =      -0.00042128 Ry
     internal energy E=F+TS    =     -55.69828055 Ry

     The total energy is F=E-TS. E is the sum of the following terms:
     one-electron contribution =       8.34882113 Ry
     hartree contribution      =       6.52304106 Ry
     xc contribution           =     -26.62468538 Ry
     ewald contribution        =     -43.94545736 Ry

     total magnetization       =     3.48 Bohr mag/cell
     absolute magnetization    =     3.48 Bohr mag/cell

     convergence has been achieved in  13 iterations

     Forces acting on atoms (cartesian axes, Ry/au):

     atom    1 type  1   force =     0.00000000    0.00000000    0.00000000
     The non-local contrib.  to forces
     atom    1 type  1   force =     0.00000000    0.00000000    0.00000000
     The ionic contribution  to forces
     atom    1 type  1   force =    -0.00000000   -0.00000000   -0.00000000
     The local contribution  to forces
     atom    1 type  1   force =    -0.00000000   -0.00000000   -0.00000000
     The core correction contribution to forces
     atom    1 type  1   force =    -0.00000000   -0.00000000   -0.00000000
     The Hubbard contrib.    to forces
     atom    1 type  1   force =     0.00000000    0.00000000    0.00000000
     The SCF correction term to forces
     atom    1 type  1   force =    -0.00000000   -0.00000000    0.00000000

     Total force =     0.000000     Total SCF correction =     0.000000


     Computing stress (Cartesian axis) and pressure

          total   stress  (Ry/bohr**3)                   (kbar)     P=      370.88
   0.00252122  -0.00000000  -0.00000000          370.88       -0.00       -0.00
  -0.00000000   0.00252122  -0.00000000           -0.00      370.88       -0.00
  -0.00000000  -0.00000000   0.00252122           -0.00       -0.00      370.88


     BFGS Geometry Optimization
     Energy error            =      0.0E+00 Ry
     Gradient error          =      0.0E+00 Ry/Bohr
     Cell gradient error     =      3.7E+02 kbar

     number of scf cycles    =   1
     number of bfgs steps    =   0

     enthalpy           new  =     -55.6987018343 Ry

     new trust radius        =       0.1087623900 bohr
     new conv_thr            =       0.0000001000 Ry

     new unit-cell volume =     89.42001 a.u.^3 (    13.25068 Ang^3 )
     density =      6.99834 g/cm^3

CELL_PARAMETERS (angstrom)
  -1.490708448   1.490708448   1.490708448
   1.490708448  -1.490708448   1.490708448
   1.490708448   1.490708448  -1.490708448

ATOMIC_POSITIONS (angstrom)
Fe            0.0000000000        0.0000000000        0.0000000000



     Writing config-only to output data dir /home/gridsan/epan1/labutil/lab3_samples/problem1/Lab3/Fe_bcc_a_2.8046394196999995_ecut_30_nk_2/pwscf.save/
     NEW-OLD atomic charge density approx. for the potential

     Check: negative core charge=   -0.000011
     extrapolated charge    9.34022, renormalised to    8.00000
     Generating pointlists ...

     total cpu time spent up to now is       13.5 secs

     Self-consistent Calculation

     iteration #  1     ecut=    30.00 Ry     beta= 0.50
     Davidson diagonalization with overlap
     ethr =  1.00E-06,  avg # of iterations =  7.2

     total cpu time spent up to now is       14.6 secs

     total energy              =     -54.56402955 Ry
     estimated scf accuracy    <       1.27320852 Ry

     total magnetization       =     2.00 Bohr mag/cell
     absolute magnetization    =     2.00 Bohr mag/cell

     iteration #  2     ecut=    30.00 Ry     beta= 0.50
     Davidson diagonalization with overlap
     ethr =  1.00E-02,  avg # of iterations =  3.0

     total cpu time spent up to now is       15.0 secs

     total energy              =     -55.77981243 Ry
     estimated scf accuracy    <       2.82488855 Ry

     total magnetization       =     2.25 Bohr mag/cell
     absolute magnetization    =     2.27 Bohr mag/cell

     iteration #  3     ecut=    30.00 Ry     beta= 0.50
     Davidson diagonalization with overlap
     ethr =  1.00E-02,  avg # of iterations =  1.7

     total cpu time spent up to now is       15.1 secs

     total energy              =     -55.69880606 Ry
     estimated scf accuracy    <       0.97950926 Ry

     total magnetization       =     2.25 Bohr mag/cell
     absolute magnetization    =     2.30 Bohr mag/cell

     iteration #  4     ecut=    30.00 Ry     beta= 0.50
     Davidson diagonalization with overlap
     ethr =  1.00E-02,  avg # of iterations =  1.0

     total cpu time spent up to now is       15.6 secs

     total energy              =     -55.73026809 Ry
     estimated scf accuracy    <       0.16040130 Ry

     total magnetization       =     3.39 Bohr mag/cell
     absolute magnetization    =     3.39 Bohr mag/cell

     iteration #  5     ecut=    30.00 Ry     beta= 0.50
     Davidson diagonalization with overlap
     ethr =  2.01E-03,  avg # of iterations =  1.0

     total cpu time spent up to now is       15.9 secs

     total energy              =     -55.73913124 Ry
     estimated scf accuracy    <       0.11427716 Ry

     total magnetization       =     3.56 Bohr mag/cell
     absolute magnetization    =     3.56 Bohr mag/cell

     iteration #  6     ecut=    30.00 Ry     beta= 0.50
     Davidson diagonalization with overlap
     ethr =  1.43E-03,  avg # of iterations =  1.0

     total cpu time spent up to now is       16.3 secs

     total energy              =     -55.73403299 Ry
     estimated scf accuracy    <       0.21009366 Ry

     total magnetization       =     3.19 Bohr mag/cell
     absolute magnetization    =     3.19 Bohr mag/cell

     iteration #  7     ecut=    30.00 Ry     beta= 0.50
     Davidson diagonalization with overlap
     ethr =  1.43E-03,  avg # of iterations =  1.0
     Minimization algorithm failed to find Fermi energy: reverting to bisection
     Possible cause: smearing is larger than the electronic band-gap.

     negative rho (up, down):  0.000E+00 1.717E-02

     total cpu time spent up to now is       16.7 secs

     total energy              =     -55.70116386 Ry
     estimated scf accuracy    <       0.11184037 Ry

     total magnetization       =     3.50 Bohr mag/cell
     absolute magnetization    =     3.50 Bohr mag/cell

     iteration #  8     ecut=    30.00 Ry     beta= 0.50
     Davidson diagonalization with overlap
     ethr =  1.40E-03,  avg # of iterations =  1.0

     negative rho (up, down):  0.000E+00 7.155E-03

     total cpu time spent up to now is       17.5 secs

     total energy              =     -55.71617620 Ry
     estimated scf accuracy    <       0.05512565 Ry

     total magnetization       =     3.75 Bohr mag/cell
     absolute magnetization    =     3.75 Bohr mag/cell

     iteration #  9     ecut=    30.00 Ry     beta= 0.50
     Davidson diagonalization with overlap
     ethr =  6.89E-04,  avg # of iterations =  1.0

     negative rho (up, down):  0.000E+00 3.335E-03

     total cpu time spent up to now is       17.9 secs

     total energy              =     -55.71800829 Ry
     estimated scf accuracy    <       0.05054262 Ry

     total magnetization       =     3.77 Bohr mag/cell
     absolute magnetization    =     3.77 Bohr mag/cell

     iteration # 10     ecut=    30.00 Ry     beta= 0.50
     Davidson diagonalization with overlap
     ethr =  6.32E-04,  avg # of iterations =  1.0

     negative rho (up, down):  0.000E+00 1.326E-04

     total cpu time spent up to now is       20.8 secs

     total energy              =     -55.71878633 Ry
     estimated scf accuracy    <       0.04479191 Ry

     total magnetization       =     3.76 Bohr mag/cell
     absolute magnetization    =     3.76 Bohr mag/cell

     iteration # 11     ecut=    30.00 Ry     beta= 0.50
     Davidson diagonalization with overlap
     ethr =  5.60E-04,  avg # of iterations =  1.0

     total cpu time spent up to now is       21.1 secs

     total energy              =     -55.71794171 Ry
     estimated scf accuracy    <       0.02789626 Ry

     total magnetization       =     3.75 Bohr mag/cell
     absolute magnetization    =     3.75 Bohr mag/cell

     iteration # 12     ecut=    30.00 Ry     beta= 0.50
     Davidson diagonalization with overlap
     ethr =  3.49E-04,  avg # of iterations =  1.0

     total cpu time spent up to now is       21.9 secs

     total energy              =     -55.71886745 Ry
     estimated scf accuracy    <       0.02050686 Ry

     total magnetization       =     3.75 Bohr mag/cell
     absolute magnetization    =     3.75 Bohr mag/cell

     iteration # 13     ecut=    30.00 Ry     beta= 0.50
     Davidson diagonalization with overlap
     ethr =  2.56E-04,  avg # of iterations =  1.0

     total cpu time spent up to now is       22.7 secs

     total energy              =     -55.71638263 Ry
     estimated scf accuracy    <       0.01926570 Ry

     total magnetization       =     3.75 Bohr mag/cell
     absolute magnetization    =     3.75 Bohr mag/cell

     iteration # 14     ecut=    30.00 Ry     beta= 0.50
     Davidson diagonalization with overlap
     ethr =  2.41E-04,  avg # of iterations =  1.8

     total cpu time spent up to now is       23.0 secs

     total energy              =     -55.71934390 Ry
     estimated scf accuracy    <       0.00020907 Ry

     total magnetization       =     3.75 Bohr mag/cell
     absolute magnetization    =     3.75 Bohr mag/cell

     iteration # 15     ecut=    30.00 Ry     beta= 0.50
     Davidson diagonalization with overlap
     ethr =  2.61E-06,  avg # of iterations =  2.8

     total cpu time spent up to now is       24.5 secs

     total energy              =     -55.71942721 Ry
     estimated scf accuracy    <       0.00010010 Ry

     total magnetization       =     3.75 Bohr mag/cell
     absolute magnetization    =     3.75 Bohr mag/cell

     iteration # 16     ecut=    30.00 Ry     beta= 0.50
     Davidson diagonalization with overlap
     ethr =  1.25E-06,  avg # of iterations =  1.0

     total cpu time spent up to now is       26.1 secs

     total energy              =     -55.71942686 Ry
     estimated scf accuracy    <       0.00004453 Ry

     total magnetization       =     3.75 Bohr mag/cell
     absolute magnetization    =     3.75 Bohr mag/cell

     iteration # 17     ecut=    30.00 Ry     beta= 0.50
     Davidson diagonalization with overlap
     ethr =  5.57E-07,  avg # of iterations =  1.0

     total cpu time spent up to now is       27.5 secs

     total energy              =     -55.71942645 Ry
     estimated scf accuracy    <       0.00002244 Ry

     total magnetization       =     3.75 Bohr mag/cell
     absolute magnetization    =     3.75 Bohr mag/cell

     iteration # 18     ecut=    30.00 Ry     beta= 0.50
     Davidson diagonalization with overlap
     ethr =  2.81E-07,  avg # of iterations =  1.2

     total cpu time spent up to now is       28.2 secs

     total energy              =     -55.71942653 Ry
     estimated scf accuracy    <       0.00000950 Ry

     total magnetization       =     3.75 Bohr mag/cell
     absolute magnetization    =     3.75 Bohr mag/cell

     iteration # 19     ecut=    30.00 Ry     beta= 0.50
     Davidson diagonalization with overlap
     ethr =  1.19E-07,  avg # of iterations =  1.0

     total cpu time spent up to now is       28.8 secs

     total energy              =     -55.71942635 Ry
     estimated scf accuracy    <       0.00000654 Ry

     total magnetization       =     3.75 Bohr mag/cell
     absolute magnetization    =     3.75 Bohr mag/cell

     iteration # 20     ecut=    30.00 Ry     beta= 0.50
     Davidson diagonalization with overlap
     ethr =  8.17E-08,  avg # of iterations =  1.0

     total cpu time spent up to now is       29.4 secs

     total energy              =     -55.71942455 Ry
     estimated scf accuracy    <       0.00000543 Ry

     total magnetization       =     3.75 Bohr mag/cell
     absolute magnetization    =     3.75 Bohr mag/cell

     iteration # 21     ecut=    30.00 Ry     beta= 0.50
     Davidson diagonalization with overlap
     ethr =  6.78E-08,  avg # of iterations =  1.2

     total cpu time spent up to now is       30.1 secs

     total energy              =     -55.71942490 Ry
     estimated scf accuracy    <       0.00000129 Ry

     total magnetization       =     3.75 Bohr mag/cell
     absolute magnetization    =     3.75 Bohr mag/cell

     iteration # 22     ecut=    30.00 Ry     beta= 0.50
     Davidson diagonalization with overlap
     ethr =  1.61E-08,  avg # of iterations =  1.3

     total cpu time spent up to now is       30.8 secs

     total energy              =     -55.71942452 Ry
     estimated scf accuracy    <       0.00000107 Ry

     total magnetization       =     3.75 Bohr mag/cell
     absolute magnetization    =     3.75 Bohr mag/cell

     iteration # 23     ecut=    30.00 Ry     beta= 0.50
     Davidson diagonalization with overlap
     ethr =  1.34E-08,  avg # of iterations =  1.8

     total cpu time spent up to now is       31.6 secs

     total energy              =     -55.71942461 Ry
     estimated scf accuracy    <       0.00000010 Ry

     total magnetization       =     3.75 Bohr mag/cell
     absolute magnetization    =     3.75 Bohr mag/cell

     iteration # 24     ecut=    30.00 Ry     beta= 0.50
     Davidson diagonalization with overlap
     ethr =  1.27E-09,  avg # of iterations =  2.7

     Magnetic moment per site  (integrated on atomic sphere of radius R)
     atom   1 (R=0.413)  charge=  6.2860  magn=  3.1843

     total cpu time spent up to now is       32.3 secs

     End of self-consistent calculation

 ------ SPIN UP ------------


          k = 0.0000 0.0000 0.0000 (   201 PWs)   bands (ev):

     2.7939   8.9040   8.9040   8.9040   9.7832   9.7832  33.4355  33.4355

          k =-0.4073-0.4073 0.0000 (   194 PWs)   bands (ev):

     6.5136   8.0001   9.8691   9.9417  10.9396  11.0968  16.7791  27.1876

          k =-0.8147-0.8147-0.8147 (   236 PWs)   bands (ev):

     6.6420   6.6420  10.8769  10.8769  10.8769  19.4567  19.4567  19.4567

 ------ SPIN DOWN ----------


          k = 0.0000 0.0000 0.0000 (   201 PWs)   bands (ev):

     4.4459  11.8787  11.8787  11.8787  13.7761  13.7761  35.0093  35.0093

          k =-0.4073-0.4073 0.0000 (   194 PWs)   bands (ev):

     9.0514  10.8185  12.6335  13.5849  13.9594  14.4052  19.3792  29.1017

          k =-0.8147-0.8147-0.8147 (   236 PWs)   bands (ev):

     9.9052   9.9052  14.1547  14.1547  14.1547  20.9262  20.9262  20.9262

     the Fermi energy is    11.9341 ev

!    total energy              =     -55.71942466 Ry
     estimated scf accuracy    <          3.0E-09 Ry
     smearing contrib. (-TS)   =      -0.00089310 Ry
     internal energy E=F+TS    =     -55.71853156 Ry

     The total energy is F=E-TS. E is the sum of the following terms:
     one-electron contribution =       4.64497368 Ry
     hartree contribution      =       7.49642305 Ry
     xc contribution           =     -26.52013363 Ry
     ewald contribution        =     -41.33979467 Ry

     total magnetization       =     3.75 Bohr mag/cell
     absolute magnetization    =     3.75 Bohr mag/cell

     convergence has been achieved in  24 iterations

     Forces acting on atoms (cartesian axes, Ry/au):

     atom    1 type  1   force =     0.00000000    0.00000000    0.00000000
     The non-local contrib.  to forces
     atom    1 type  1   force =     0.00000000    0.00000000    0.00000000
     The ionic contribution  to forces
     atom    1 type  1   force =    -0.00000000   -0.00000000   -0.00000000
     The local contribution  to forces
     atom    1 type  1   force =    -0.00000000   -0.00000000   -0.00000000
     The core correction contribution to forces
     atom    1 type  1   force =    -0.00000000   -0.00000000   -0.00000000
     The Hubbard contrib.    to forces
     atom    1 type  1   force =     0.00000000    0.00000000    0.00000000
     The SCF correction term to forces
     atom    1 type  1   force =    -0.00000000   -0.00000000    0.00000000

     Total force =     0.000000     Total SCF correction =     0.000000


     Computing stress (Cartesian axis) and pressure

          total   stress  (Ry/bohr**3)                   (kbar)     P=       29.44
   0.00020011  -0.00000000  -0.00000000           29.44       -0.00       -0.00
  -0.00000000   0.00020011  -0.00000000           -0.00       29.44       -0.00
  -0.00000000  -0.00000000   0.00020011           -0.00       -0.00       29.44

     Energy error            =      2.1E-02 Ry
     Gradient error          =      0.0E+00 Ry/Bohr
     Cell gradient error     =      2.9E+01 kbar

     number of scf cycles    =   2
     number of bfgs steps    =   1

     enthalpy           old  =     -55.6987018343 Ry
     enthalpy           new  =     -55.7194246624 Ry

     CASE: enthalpy          _new < enthalpy          _old

     new trust radius        =       0.0110484570 bohr
     new conv_thr            =       0.0000000010 Ry

     new unit-cell volume =     90.99634 a.u.^3 (    13.48427 Ang^3 )
     density =      6.87711 g/cm^3

CELL_PARAMETERS (angstrom)
  -1.499417020   1.499417020   1.499417020
   1.499417020  -1.499417020   1.499417020
   1.499417020   1.499417020  -1.499417020

ATOMIC_POSITIONS (angstrom)
Fe            0.0000000000        0.0000000000        0.0000000000



     Writing config-only to output data dir /home/gridsan/epan1/labutil/lab3_samples/problem1/Lab3/Fe_bcc_a_2.8046394196999995_ecut_30_nk_2/pwscf.save/
     NEW-OLD atomic charge density approx. for the potential

     Check: negative core charge=   -0.000014
     extrapolated charge    8.13857, renormalised to    8.00000
     Generating pointlists ...

     total cpu time spent up to now is       34.0 secs

     Self-consistent Calculation

     iteration #  1     ecut=    30.00 Ry     beta= 0.50
     Davidson diagonalization with overlap
     ethr =  1.00E-06,  avg # of iterations =  4.7

     total cpu time spent up to now is       34.7 secs

     total energy              =     -55.69883722 Ry
     estimated scf accuracy    <       0.02097355 Ry

     total magnetization       =     3.75 Bohr mag/cell
     absolute magnetization    =     3.75 Bohr mag/cell

     iteration #  2     ecut=    30.00 Ry     beta= 0.50
     Davidson diagonalization with overlap
     ethr =  2.62E-04,  avg # of iterations =  2.8

     total cpu time spent up to now is       35.4 secs

     total energy              =     -55.71874635 Ry
     estimated scf accuracy    <       0.02699196 Ry

     total magnetization       =     3.72 Bohr mag/cell
     absolute magnetization    =     3.72 Bohr mag/cell

     iteration #  3     ecut=    30.00 Ry     beta= 0.50
     Davidson diagonalization with overlap
     ethr =  2.62E-04,  avg # of iterations =  1.3

     total cpu time spent up to now is       36.2 secs

     total energy              =     -55.71860871 Ry
     estimated scf accuracy    <       0.00527926 Ry

     total magnetization       =     3.75 Bohr mag/cell
     absolute magnetization    =     3.75 Bohr mag/cell

     iteration #  4     ecut=    30.00 Ry     beta= 0.50
     Davidson diagonalization with overlap
     ethr =  6.60E-05,  avg # of iterations =  2.0

     total cpu time spent up to now is       36.7 secs

     total energy              =     -55.71960977 Ry
     estimated scf accuracy    <       0.00018973 Ry

     total magnetization       =     3.75 Bohr mag/cell
     absolute magnetization    =     3.75 Bohr mag/cell

     iteration #  5     ecut=    30.00 Ry     beta= 0.50
     Davidson diagonalization with overlap
     ethr =  2.37E-06,  avg # of iterations =  2.0

     total cpu time spent up to now is       37.6 secs

     total energy              =     -55.71959739 Ry
     estimated scf accuracy    <       0.00024502 Ry

     total magnetization       =     3.75 Bohr mag/cell
     absolute magnetization    =     3.75 Bohr mag/cell

     iteration #  6     ecut=    30.00 Ry     beta= 0.50
     Davidson diagonalization with overlap
     ethr =  2.37E-06,  avg # of iterations =  1.0

     total cpu time spent up to now is       38.2 secs

     total energy              =     -55.71958311 Ry
     estimated scf accuracy    <       0.00008119 Ry

     total magnetization       =     3.75 Bohr mag/cell
     absolute magnetization    =     3.75 Bohr mag/cell

     iteration #  7     ecut=    30.00 Ry     beta= 0.50
     Davidson diagonalization with overlap
     ethr =  1.01E-06,  avg # of iterations =  1.5

     total cpu time spent up to now is       39.1 secs

     total energy              =     -55.71958916 Ry
     estimated scf accuracy    <       0.00000987 Ry

     total magnetization       =     3.75 Bohr mag/cell
     absolute magnetization    =     3.75 Bohr mag/cell

     iteration #  8     ecut=    30.00 Ry     beta= 0.50
     Davidson diagonalization with overlap
     ethr =  1.23E-07,  avg # of iterations =  2.2

     total cpu time spent up to now is       39.5 secs

     total energy              =     -55.71959065 Ry
     estimated scf accuracy    <       0.00000126 Ry

     total magnetization       =     3.75 Bohr mag/cell
     absolute magnetization    =     3.75 Bohr mag/cell

     iteration #  9     ecut=    30.00 Ry     beta= 0.50
     Davidson diagonalization with overlap
     ethr =  1.58E-08,  avg # of iterations =  1.7

     total cpu time spent up to now is       40.9 secs

     total energy              =     -55.71959074 Ry
     estimated scf accuracy    <       0.00000030 Ry

     total magnetization       =     3.75 Bohr mag/cell
     absolute magnetization    =     3.75 Bohr mag/cell

     iteration # 10     ecut=    30.00 Ry     beta= 0.50
     Davidson diagonalization with overlap
     ethr =  3.78E-09,  avg # of iterations =  2.2

     total cpu time spent up to now is       42.6 secs

     total energy              =     -55.71959086 Ry
     estimated scf accuracy    <          5.2E-09 Ry

     total magnetization       =     3.75 Bohr mag/cell
     absolute magnetization    =     3.75 Bohr mag/cell

     iteration # 11     ecut=    30.00 Ry     beta= 0.50
     Davidson diagonalization with overlap
     ethr =  6.47E-11,  avg # of iterations =  4.0

     total cpu time spent up to now is       43.0 secs

     total energy              =     -55.71959087 Ry
     estimated scf accuracy    <          3.9E-09 Ry

     total magnetization       =     3.75 Bohr mag/cell
     absolute magnetization    =     3.75 Bohr mag/cell

     iteration # 12     ecut=    30.00 Ry     beta= 0.50
     Davidson diagonalization with overlap
     ethr =  4.82E-11,  avg # of iterations =  1.0

     total cpu time spent up to now is       43.4 secs

     total energy              =     -55.71959087 Ry
     estimated scf accuracy    <          1.8E-09 Ry

     total magnetization       =     3.75 Bohr mag/cell
     absolute magnetization    =     3.75 Bohr mag/cell

     iteration # 13     ecut=    30.00 Ry     beta= 0.50
     Davidson diagonalization with overlap
     ethr =  2.26E-11,  avg # of iterations =  2.2

     Magnetic moment per site  (integrated on atomic sphere of radius R)
     atom   1 (R=0.413)  charge=  6.2706  magn=  3.1788

     total cpu time spent up to now is       44.0 secs

     End of self-consistent calculation

 ------ SPIN UP ------------


          k = 0.0000 0.0000 0.0000 (   201 PWs)   bands (ev):

     2.6275   8.6558   8.6558   8.6558   9.5031   9.5031  33.0136  33.0136

          k =-0.4050-0.4050 0.0000 (   194 PWs)   bands (ev):

     6.3214   7.7773   9.5882   9.6556  10.6865  10.7897  16.3755  26.7855

          k =-0.8099-0.8099-0.8099 (   236 PWs)   bands (ev):

     6.4516   6.4516  10.5762  10.5762  10.5762  19.0866  19.0866  19.0866

 ------ SPIN DOWN ----------


          k = 0.0000 0.0000 0.0000 (   201 PWs)   bands (ev):

     4.2690  11.6267  11.6267  11.6267  13.4918  13.4918  34.5770  34.5770

          k =-0.4050-0.4050 0.0000 (   194 PWs)   bands (ev):

     8.8542  10.5932  12.3682  13.3004  13.6687  14.0909  18.9626  28.6891

          k =-0.8099-0.8099-0.8099 (   236 PWs)   bands (ev):

     9.7161   9.7161  13.8471  13.8471  13.8471  20.5463  20.5463  20.5463

     the Fermi energy is    11.6822 ev

!    total energy              =     -55.71959087 Ry
     estimated scf accuracy    <          3.1E-12 Ry
     smearing contrib. (-TS)   =      -0.00088621 Ry
     internal energy E=F+TS    =     -55.71870467 Ry

     The total energy is F=E-TS. E is the sum of the following terms:
     one-electron contribution =       4.29942859 Ry
     hartree contribution      =       7.58930634 Ry
     xc contribution           =     -26.50774529 Ry
     ewald contribution        =     -41.09969430 Ry

     total magnetization       =     3.75 Bohr mag/cell
     absolute magnetization    =     3.75 Bohr mag/cell

     convergence has been achieved in  13 iterations

     Forces acting on atoms (cartesian axes, Ry/au):

     atom    1 type  1   force =     0.00000000    0.00000000    0.00000000
     The non-local contrib.  to forces
     atom    1 type  1   force =     0.00000000   -0.00000000    0.00000000
     The ionic contribution  to forces
     atom    1 type  1   force =    -0.00000000   -0.00000000   -0.00000000
     The local contribution  to forces
     atom    1 type  1   force =    -0.00000000   -0.00000000   -0.00000000
     The core correction contribution to forces
     atom    1 type  1   force =    -0.00000000    0.00000000   -0.00000000
     The Hubbard contrib.    to forces
     atom    1 type  1   force =     0.00000000    0.00000000    0.00000000
     The SCF correction term to forces
     atom    1 type  1   force =     0.00000000    0.00000000   -0.00000000

     Total force =     0.000000     Total SCF correction =     0.000000


     Computing stress (Cartesian axis) and pressure

          total   stress  (Ry/bohr**3)                   (kbar)     P=        2.48
   0.00001688   0.00000000   0.00000000            2.48        0.00        0.00
   0.00000000   0.00001688   0.00000000            0.00        2.48        0.00
   0.00000000   0.00000000   0.00001688            0.00        0.00        2.48

     Energy error            =      1.7E-04 Ry
     Gradient error          =      0.0E+00 Ry/Bohr
     Cell gradient error     =      2.5E+00 kbar

     number of scf cycles    =   3
     number of bfgs steps    =   2

     enthalpy           old  =     -55.7194246624 Ry
     enthalpy           new  =     -55.7195908731 Ry

     CASE: enthalpy          _new < enthalpy          _old

     new trust radius        =       0.0010340120 bohr
     new conv_thr            =       0.0000000010 Ry

     new unit-cell volume =     91.14437 a.u.^3 (    13.50620 Ang^3 )
     density =      6.86594 g/cm^3

CELL_PARAMETERS (angstrom)
  -1.500229675   1.500229675   1.500229675
   1.500229675  -1.500229675   1.500229675
   1.500229675   1.500229675  -1.500229675

ATOMIC_POSITIONS (angstrom)
Fe            0.0000000000        0.0000000000        0.0000000000



     Writing config-only to output data dir /home/gridsan/epan1/labutil/lab3_samples/problem1/Lab3/Fe_bcc_a_2.8046394196999995_ecut_30_nk_2/pwscf.save/
     NEW-OLD atomic charge density approx. for the potential

     Check: negative core charge=   -0.000014
     extrapolated charge    8.01299, renormalised to    8.00000
     Generating pointlists ...

     total cpu time spent up to now is       46.0 secs

     Self-consistent Calculation

     iteration #  1     ecut=    30.00 Ry     beta= 0.50
     Davidson diagonalization with overlap
     ethr =  1.00E-06,  avg # of iterations =  2.2

     total cpu time spent up to now is       47.0 secs

     total energy              =     -55.71953928 Ry
     estimated scf accuracy    <       0.00004568 Ry

     total magnetization       =     3.75 Bohr mag/cell
     absolute magnetization    =     3.75 Bohr mag/cell

     iteration #  2     ecut=    30.00 Ry     beta= 0.50
     Davidson diagonalization with overlap
     ethr =  5.71E-07,  avg # of iterations =  3.3

     total cpu time spent up to now is       48.4 secs

     total energy              =     -55.71959269 Ry
     estimated scf accuracy    <       0.00004770 Ry

     total magnetization       =     3.75 Bohr mag/cell
     absolute magnetization    =     3.75 Bohr mag/cell

     iteration #  3     ecut=    30.00 Ry     beta= 0.50
     Davidson diagonalization with overlap
     ethr =  5.71E-07,  avg # of iterations =  1.2

     total cpu time spent up to now is       49.5 secs

     total energy              =     -55.71958719 Ry
     estimated scf accuracy    <       0.00001097 Ry

     total magnetization       =     3.75 Bohr mag/cell
     absolute magnetization    =     3.75 Bohr mag/cell

     iteration #  4     ecut=    30.00 Ry     beta= 0.50
     Davidson diagonalization with overlap
     ethr =  1.37E-07,  avg # of iterations =  2.8

     total cpu time spent up to now is       50.7 secs

     total energy              =     -55.71959297 Ry
     estimated scf accuracy    <       0.00000437 Ry

     total magnetization       =     3.75 Bohr mag/cell
     absolute magnetization    =     3.75 Bohr mag/cell

     iteration #  5     ecut=    30.00 Ry     beta= 0.50
     Davidson diagonalization with overlap
     ethr =  5.46E-08,  avg # of iterations =  1.0

     total cpu time spent up to now is       52.5 secs

     total energy              =     -55.71959167 Ry
     estimated scf accuracy    <       0.00000248 Ry

     total magnetization       =     3.75 Bohr mag/cell
     absolute magnetization    =     3.75 Bohr mag/cell

     iteration #  6     ecut=    30.00 Ry     beta= 0.50
     Davidson diagonalization with overlap
     ethr =  3.10E-08,  avg # of iterations =  2.0

     total cpu time spent up to now is       52.8 secs

     total energy              =     -55.71959211 Ry
     estimated scf accuracy    <       0.00000003 Ry

     total magnetization       =     3.75 Bohr mag/cell
     absolute magnetization    =     3.75 Bohr mag/cell

     iteration #  7     ecut=    30.00 Ry     beta= 0.50
     Davidson diagonalization with overlap
     ethr =  3.49E-10,  avg # of iterations =  3.8

     total cpu time spent up to now is       53.2 secs

     total energy              =     -55.71959216 Ry
     estimated scf accuracy    <       0.00000010 Ry

     total magnetization       =     3.75 Bohr mag/cell
     absolute magnetization    =     3.75 Bohr mag/cell

     iteration #  8     ecut=    30.00 Ry     beta= 0.50
     Davidson diagonalization with overlap
     ethr =  3.49E-10,  avg # of iterations =  2.0

     total cpu time spent up to now is       53.7 secs

     total energy              =     -55.71959217 Ry
     estimated scf accuracy    <       0.00000003 Ry

     total magnetization       =     3.75 Bohr mag/cell
     absolute magnetization    =     3.75 Bohr mag/cell

     iteration #  9     ecut=    30.00 Ry     beta= 0.50
     Davidson diagonalization with overlap
     ethr =  3.49E-10,  avg # of iterations =  1.0

     total cpu time spent up to now is       55.2 secs

     total energy              =     -55.71959214 Ry
     estimated scf accuracy    <       0.00000005 Ry

     total magnetization       =     3.75 Bohr mag/cell
     absolute magnetization    =     3.75 Bohr mag/cell

     iteration # 10     ecut=    30.00 Ry     beta= 0.50
     Davidson diagonalization with overlap
     ethr =  3.49E-10,  avg # of iterations =  2.2

     Magnetic moment per site  (integrated on atomic sphere of radius R)
     atom   1 (R=0.413)  charge=  6.2693  magn=  3.1784

     total cpu time spent up to now is       55.7 secs

     End of self-consistent calculation

 ------ SPIN UP ------------


          k = 0.0000 0.0000 0.0000 (   201 PWs)   bands (ev):

     2.6122   8.6328   8.6328   8.6328   9.4771   9.4771  32.9746  32.9746

          k =-0.4048-0.4048 0.0000 (   194 PWs)   bands (ev):

     6.3036   7.7566   9.5621   9.6290  10.6632  10.7613  16.3382  26.7484

          k =-0.8095-0.8095-0.8095 (   236 PWs)   bands (ev):

     6.4339   6.4339  10.5483  10.5483  10.5483  19.0525  19.0525  19.0525

 ------ SPIN DOWN ----------


          k = 0.0000 0.0000 0.0000 (   201 PWs)   bands (ev):

     4.2527  11.6033  11.6033  11.6033  13.4655  13.4655  34.5370  34.5370

          k =-0.4048-0.4048 0.0000 (   194 PWs)   bands (ev):

     8.8359  10.5723  12.3438  13.2740  13.6418  14.0617  18.9241  28.6510

          k =-0.8095-0.8095-0.8095 (   236 PWs)   bands (ev):

     9.6986   9.6986  13.8186  13.8186  13.8186  20.5113  20.5113  20.5113

     the Fermi energy is    11.6588 ev

!    total energy              =     -55.71959215 Ry
     estimated scf accuracy    <          9.2E-10 Ry
     smearing contrib. (-TS)   =      -0.00088555 Ry
     internal energy E=F+TS    =     -55.71870661 Ry

     The total energy is F=E-TS. E is the sum of the following terms:
     one-electron contribution =       4.26729811 Ry
     hartree contribution      =       7.59808519 Ry
     xc contribution           =     -26.50665877 Ry
     ewald contribution        =     -41.07743114 Ry

     total magnetization       =     3.75 Bohr mag/cell
     absolute magnetization    =     3.75 Bohr mag/cell

     convergence has been achieved in  10 iterations

     Forces acting on atoms (cartesian axes, Ry/au):

     atom    1 type  1   force =     0.00000000    0.00000000    0.00000000
     The non-local contrib.  to forces
     atom    1 type  1   force =     0.00000000    0.00000000    0.00000000
     The ionic contribution  to forces
     atom    1 type  1   force =    -0.00000000   -0.00000000   -0.00000000
     The local contribution  to forces
     atom    1 type  1   force =    -0.00000000   -0.00000000   -0.00000000
     The core correction contribution to forces
     atom    1 type  1   force =    -0.00000000   -0.00000000    0.00000000
     The Hubbard contrib.    to forces
     atom    1 type  1   force =     0.00000000    0.00000000    0.00000000
     The SCF correction term to forces
     atom    1 type  1   force =    -0.00000000   -0.00000000   -0.00000000

     Total force =     0.000000     Total SCF correction =     0.000000


     Computing stress (Cartesian axis) and pressure

          total   stress  (Ry/bohr**3)                   (kbar)     P=        0.65
   0.00000444   0.00000000   0.00000000            0.65        0.00        0.00
  -0.00000000   0.00000444   0.00000000           -0.00        0.65        0.00
   0.00000000   0.00000000   0.00000444            0.00        0.00        0.65

     Energy error            =      1.3E-06 Ry
     Gradient error          =      0.0E+00 Ry/Bohr
     Cell gradient error     =      6.5E-01 kbar

     number of scf cycles    =   4
     number of bfgs steps    =   3

     enthalpy           old  =     -55.7195908731 Ry
     enthalpy           new  =     -55.7195921524 Ry

     CASE: enthalpy          _new < enthalpy          _old

     new trust radius        =       0.0003696906 bohr
     new conv_thr            =       0.0000000010 Ry

     new unit-cell volume =     91.19732 a.u.^3 (    13.51405 Ang^3 )
     density =      6.86196 g/cm^3

CELL_PARAMETERS (angstrom)
  -1.500520145   1.500520145   1.500520145
   1.500520145  -1.500520145   1.500520145
   1.500520145   1.500520145  -1.500520145

ATOMIC_POSITIONS (angstrom)
Fe            0.0000000000        0.0000000000        0.0000000000



     Writing config-only to output data dir /home/gridsan/epan1/labutil/lab3_samples/problem1/Lab3/Fe_bcc_a_2.8046394196999995_ecut_30_nk_2/pwscf.save/
     NEW-OLD atomic charge density approx. for the potential

     Check: negative core charge=   -0.000014
     extrapolated charge    8.00464, renormalised to    8.00000
     Generating pointlists ...

     total cpu time spent up to now is       58.1 secs

     Self-consistent Calculation

     iteration #  1     ecut=    30.00 Ry     beta= 0.50
     Davidson diagonalization with overlap
     ethr =  1.00E-06,  avg # of iterations =  2.0

     Threshold (ethr) on eigenvalues was too large:
     Diagonalizing with lowered threshold

     Davidson diagonalization with overlap
     ethr =  7.80E-08,  avg # of iterations =  1.0

     total cpu time spent up to now is       59.7 secs

     total energy              =     -55.71958386 Ry
     estimated scf accuracy    <       0.00000716 Ry

     total magnetization       =     3.75 Bohr mag/cell
     absolute magnetization    =     3.75 Bohr mag/cell

     iteration #  2     ecut=    30.00 Ry     beta= 0.50
     Davidson diagonalization with overlap
     ethr =  8.95E-08,  avg # of iterations =  3.3

     total cpu time spent up to now is       60.2 secs

     total energy              =     -55.71959212 Ry
     estimated scf accuracy    <       0.00000735 Ry

     total magnetization       =     3.75 Bohr mag/cell
     absolute magnetization    =     3.75 Bohr mag/cell

     iteration #  3     ecut=    30.00 Ry     beta= 0.50
     Davidson diagonalization with overlap
     ethr =  8.95E-08,  avg # of iterations =  1.2

     total cpu time spent up to now is       60.7 secs

     total energy              =     -55.71959129 Ry
     estimated scf accuracy    <       0.00000168 Ry

     total magnetization       =     3.75 Bohr mag/cell
     absolute magnetization    =     3.75 Bohr mag/cell

     iteration #  4     ecut=    30.00 Ry     beta= 0.50
     Davidson diagonalization with overlap
     ethr =  2.10E-08,  avg # of iterations =  2.8

     total cpu time spent up to now is       61.2 secs

     total energy              =     -55.71959216 Ry
     estimated scf accuracy    <       0.00000053 Ry

     total magnetization       =     3.75 Bohr mag/cell
     absolute magnetization    =     3.75 Bohr mag/cell

     iteration #  5     ecut=    30.00 Ry     beta= 0.50
     Davidson diagonalization with overlap
     ethr =  6.66E-09,  avg # of iterations =  1.0

     total cpu time spent up to now is       61.9 secs

     total energy              =     -55.71959201 Ry
     estimated scf accuracy    <       0.00000038 Ry

     total magnetization       =     3.75 Bohr mag/cell
     absolute magnetization    =     3.75 Bohr mag/cell

     iteration #  6     ecut=    30.00 Ry     beta= 0.50
     Davidson diagonalization with overlap
     ethr =  4.70E-09,  avg # of iterations =  1.7

     total cpu time spent up to now is       62.8 secs

     total energy              =     -55.71959201 Ry
     estimated scf accuracy    <       0.00000005 Ry

     total magnetization       =     3.75 Bohr mag/cell
     absolute magnetization    =     3.75 Bohr mag/cell

     iteration #  7     ecut=    30.00 Ry     beta= 0.50
     Davidson diagonalization with overlap
     ethr =  5.94E-10,  avg # of iterations =  2.3

     total cpu time spent up to now is       63.7 secs

     total energy              =     -55.71959204 Ry
     estimated scf accuracy    <          4.1E-09 Ry

     total magnetization       =     3.75 Bohr mag/cell
     absolute magnetization    =     3.75 Bohr mag/cell

     iteration #  8     ecut=    30.00 Ry     beta= 0.50
     Davidson diagonalization with overlap
     ethr =  5.10E-11,  avg # of iterations =  1.8

     total cpu time spent up to now is       64.8 secs

     total energy              =     -55.71959203 Ry
     estimated scf accuracy    <       0.00000001 Ry

     total magnetization       =     3.75 Bohr mag/cell
     absolute magnetization    =     3.75 Bohr mag/cell

     iteration #  9     ecut=    30.00 Ry     beta= 0.50
     Davidson diagonalization with overlap
     ethr =  5.10E-11,  avg # of iterations =  1.8

     total cpu time spent up to now is       65.0 secs

     total energy              =     -55.71959203 Ry
     estimated scf accuracy    <          2.9E-09 Ry

     total magnetization       =     3.75 Bohr mag/cell
     absolute magnetization    =     3.75 Bohr mag/cell

     iteration # 10     ecut=    30.00 Ry     beta= 0.50
     Davidson diagonalization with overlap
     ethr =  3.62E-11,  avg # of iterations =  2.0

     Magnetic moment per site  (integrated on atomic sphere of radius R)
     atom   1 (R=0.413)  charge=  6.2688  magn=  3.1782

     total cpu time spent up to now is       66.9 secs

     End of self-consistent calculation

 ------ SPIN UP ------------


          k = 0.0000 0.0000 0.0000 (   201 PWs)   bands (ev):

     2.6068   8.6246   8.6246   8.6246   9.4679   9.4679  32.9607  32.9607

          k =-0.4047-0.4047 0.0000 (   194 PWs)   bands (ev):

     6.2973   7.7492   9.5529   9.6197  10.6549  10.7512  16.3250  26.7351

          k =-0.8093-0.8093-0.8093 (   236 PWs)   bands (ev):

     6.4276   6.4276  10.5384  10.5384  10.5384  19.0403  19.0403  19.0403

 ------ SPIN DOWN ----------


          k = 0.0000 0.0000 0.0000 (   201 PWs)   bands (ev):

     4.2469  11.5950  11.5950  11.5950  13.4562  13.4562  34.5227  34.5227

          k =-0.4047-0.4047 0.0000 (   194 PWs)   bands (ev):

     8.8294  10.5649  12.3351  13.2647  13.6323  14.0515  18.9104  28.6373

          k =-0.8093-0.8093-0.8093 (   236 PWs)   bands (ev):

     9.6924   9.6924  13.8085  13.8085  13.8085  20.4987  20.4987  20.4987

     the Fermi energy is    11.6506 ev

!    total energy              =     -55.71959203 Ry
     estimated scf accuracy    <          2.0E-10 Ry
     smearing contrib. (-TS)   =      -0.00088522 Ry
     internal energy E=F+TS    =     -55.71870681 Ry

     The total energy is F=E-TS. E is the sum of the following terms:
     one-electron contribution =       4.25587556 Ry
     hartree contribution      =       7.60112614 Ry
     xc contribution           =     -26.50622912 Ry
     ewald contribution        =     -41.06947939 Ry

     total magnetization       =     3.75 Bohr mag/cell
     absolute magnetization    =     3.75 Bohr mag/cell

     convergence has been achieved in  10 iterations

     Forces acting on atoms (cartesian axes, Ry/au):

     atom    1 type  1   force =     0.00000000    0.00000000    0.00000000
     The non-local contrib.  to forces
     atom    1 type  1   force =    -0.00000000   -0.00000000    0.00000000
     The ionic contribution  to forces
     atom    1 type  1   force =    -0.00000000   -0.00000000   -0.00000000
     The local contribution  to forces
     atom    1 type  1   force =    -0.00000000   -0.00000000   -0.00000000
     The core correction contribution to forces
     atom    1 type  1   force =    -0.00000000   -0.00000000   -0.00000000
     The Hubbard contrib.    to forces
     atom    1 type  1   force =     0.00000000    0.00000000    0.00000000
     The SCF correction term to forces
     atom    1 type  1   force =     0.00000000   -0.00000000   -0.00000000

     Total force =     0.000000     Total SCF correction =     0.000000


     Computing stress (Cartesian axis) and pressure

          total   stress  (Ry/bohr**3)                   (kbar)     P=       -0.50
  -0.00000340  -0.00000000  -0.00000000           -0.50       -0.00       -0.00
  -0.00000000  -0.00000340  -0.00000000           -0.00       -0.50       -0.00
  -0.00000000  -0.00000000  -0.00000340           -0.00       -0.00       -0.50

     Energy error            =      1.2E-07 Ry
     Gradient error          =      0.0E+00 Ry/Bohr
     Cell gradient error     =      5.0E-01 kbar

     number of scf cycles    =   5
     number of bfgs steps    =   4

     enthalpy           old  =     -55.7195921524 Ry
     enthalpy           new  =     -55.7195920318 Ry

     CASE: enthalpy          _new > enthalpy          _old

     new trust radius        =       0.0001222035 bohr
     new conv_thr            =       0.0000000010 Ry

     new unit-cell volume =     91.16187 a.u.^3 (    13.50880 Ang^3 )
     density =      6.86462 g/cm^3

CELL_PARAMETERS (angstrom)
  -1.500325682   1.500325682   1.500325682
   1.500325682  -1.500325682   1.500325682
   1.500325682   1.500325682  -1.500325682

ATOMIC_POSITIONS (angstrom)
Fe            0.0000000000        0.0000000000        0.0000000000



     Writing config-only to output data dir /home/gridsan/epan1/labutil/lab3_samples/problem1/Lab3/Fe_bcc_a_2.8046394196999995_ecut_30_nk_2/pwscf.save/
     NEW-OLD atomic charge density approx. for the potential

     Check: negative core charge=   -0.000014
     extrapolated charge    7.99689, renormalised to    8.00000
     Generating pointlists ...

     total cpu time spent up to now is       68.8 secs

     Self-consistent Calculation

     iteration #  1     ecut=    30.00 Ry     beta= 0.50
     Davidson diagonalization with overlap
     ethr =  1.00E-06,  avg # of iterations =  2.0

     Threshold (ethr) on eigenvalues was too large:
     Diagonalizing with lowered threshold

     Davidson diagonalization with overlap
     ethr =  3.44E-08,  avg # of iterations =  1.0

     total cpu time spent up to now is       70.0 secs

     total energy              =     -55.71958847 Ry
     estimated scf accuracy    <       0.00000315 Ry

     total magnetization       =     3.75 Bohr mag/cell
     absolute magnetization    =     3.75 Bohr mag/cell

     iteration #  2     ecut=    30.00 Ry     beta= 0.50
     Davidson diagonalization with overlap
     ethr =  3.93E-08,  avg # of iterations =  3.3

     total cpu time spent up to now is       70.5 secs

     total energy              =     -55.71959221 Ry
     estimated scf accuracy    <       0.00000336 Ry

     total magnetization       =     3.75 Bohr mag/cell
     absolute magnetization    =     3.75 Bohr mag/cell

     iteration #  3     ecut=    30.00 Ry     beta= 0.50
     Davidson diagonalization with overlap
     ethr =  3.93E-08,  avg # of iterations =  1.2

     total cpu time spent up to now is       70.9 secs

     total energy              =     -55.71959182 Ry
     estimated scf accuracy    <       0.00000080 Ry

     total magnetization       =     3.75 Bohr mag/cell
     absolute magnetization    =     3.75 Bohr mag/cell

     iteration #  4     ecut=    30.00 Ry     beta= 0.50
     Davidson diagonalization with overlap
     ethr =  1.00E-08,  avg # of iterations =  2.8

     total cpu time spent up to now is       71.3 secs

     total energy              =     -55.71959220 Ry
     estimated scf accuracy    <       0.00000016 Ry

     total magnetization       =     3.75 Bohr mag/cell
     absolute magnetization    =     3.75 Bohr mag/cell

     iteration #  5     ecut=    30.00 Ry     beta= 0.50
     Davidson diagonalization with overlap
     ethr =  2.04E-09,  avg # of iterations =  1.0

     total cpu time spent up to now is       72.5 secs

     total energy              =     -55.71959214 Ry
     estimated scf accuracy    <       0.00000014 Ry

     total magnetization       =     3.75 Bohr mag/cell
     absolute magnetization    =     3.75 Bohr mag/cell

     iteration #  6     ecut=    30.00 Ry     beta= 0.50
     Davidson diagonalization with overlap
     ethr =  1.78E-09,  avg # of iterations =  1.3

     total cpu time spent up to now is       72.7 secs

     total energy              =     -55.71959214 Ry
     estimated scf accuracy    <       0.00000003 Ry

     total magnetization       =     3.75 Bohr mag/cell
     absolute magnetization    =     3.75 Bohr mag/cell

     iteration #  7     ecut=    30.00 Ry     beta= 0.50
     Davidson diagonalization with overlap
     ethr =  3.28E-10,  avg # of iterations =  2.3

     Magnetic moment per site  (integrated on atomic sphere of radius R)
     atom   1 (R=0.413)  charge=  6.2691  magn=  3.1783

     total cpu time spent up to now is       73.6 secs

     End of self-consistent calculation

 ------ SPIN UP ------------


          k = 0.0000 0.0000 0.0000 (   201 PWs)   bands (ev):

     2.6104   8.6303   8.6303   8.6303   9.4743   9.4743  32.9700  32.9700

          k =-0.4047-0.4047 0.0000 (   194 PWs)   bands (ev):

     6.3017   7.7543   9.5593   9.6262  10.6605  10.7582  16.3340  26.7440

          k =-0.8095-0.8095-0.8095 (   236 PWs)   bands (ev):

     6.4320   6.4320  10.5453  10.5453  10.5453  19.0485  19.0485  19.0485

 ------ SPIN DOWN ----------


          k = 0.0000 0.0000 0.0000 (   201 PWs)   bands (ev):

     4.2508  11.6008  11.6008  11.6008  13.4626  13.4626  34.5322  34.5322

          k =-0.4047-0.4047 0.0000 (   194 PWs)   bands (ev):

     8.8339  10.5700  12.3409  13.2712  13.6389  14.0586  18.9197  28.6464

          k =-0.8095-0.8095-0.8095 (   236 PWs)   bands (ev):

     9.6967   9.6967  13.8155  13.8155  13.8155  20.5071  20.5071  20.5071

     the Fermi energy is    11.6563 ev

!    total energy              =     -55.71959215 Ry
     estimated scf accuracy    <          3.0E-10 Ry
     smearing contrib. (-TS)   =      -0.00088527 Ry
     internal energy E=F+TS    =     -55.71870688 Ry

     The total energy is F=E-TS. E is the sum of the following terms:
     one-electron contribution =       4.26359076 Ry
     hartree contribution      =       7.59896991 Ry
     xc contribution           =     -26.50646501 Ry
     ewald contribution        =     -41.07480255 Ry

     total magnetization       =     3.75 Bohr mag/cell
     absolute magnetization    =     3.75 Bohr mag/cell

     convergence has been achieved in   7 iterations

     Forces acting on atoms (cartesian axes, Ry/au):

     atom    1 type  1   force =     0.00000000    0.00000000    0.00000000
     The non-local contrib.  to forces
     atom    1 type  1   force =     0.00000000    0.00000000    0.00000000
     The ionic contribution  to forces
     atom    1 type  1   force =    -0.00000000   -0.00000000   -0.00000000
     The local contribution  to forces
     atom    1 type  1   force =     0.00000000    0.00000000   -0.00000000
     The core correction contribution to forces
     atom    1 type  1   force =     0.00000000    0.00000000    0.00000000
     The Hubbard contrib.    to forces
     atom    1 type  1   force =     0.00000000    0.00000000    0.00000000
     The SCF correction term to forces
     atom    1 type  1   force =     0.00000000    0.00000000   -0.00000000

     Total force =     0.000000     Total SCF correction =     0.000000


     Computing stress (Cartesian axis) and pressure

          total   stress  (Ry/bohr**3)                   (kbar)     P=       -0.45
  -0.00000304   0.00000000   0.00000000           -0.45        0.00        0.00
   0.00000000  -0.00000304   0.00000000            0.00       -0.45        0.00
   0.00000000   0.00000000  -0.00000304            0.00        0.00       -0.45

     Energy error            =      5.8E-09 Ry
     Gradient error          =      0.0E+00 Ry/Bohr
     Cell gradient error     =      4.5E-01 kbar

     bfgs converged in   6 scf cycles and   4 bfgs steps
     (criteria: energy <  1.0E-04 Ry, force <  1.0E-03 Ry/Bohr, cell <  5.0E-01 kbar)

     End of BFGS Geometry Optimization

     Final enthalpy           =     -55.7195921465 Ry

     File /home/gridsan/epan1/labutil/lab3_samples/problem1/Lab3/Fe_bcc_a_2.8046394196999995_ecut_30_nk_2/pwscf.bfgs deleted, as requested
Begin final coordinates
     new unit-cell volume =     91.16187 a.u.^3 (    13.50880 Ang^3 )
     density =      6.86462 g/cm^3

CELL_PARAMETERS (angstrom)
  -1.500325682   1.500325682   1.500325682
   1.500325682  -1.500325682   1.500325682
   1.500325682   1.500325682  -1.500325682

ATOMIC_POSITIONS (angstrom)
Fe            0.0000000000        0.0000000000        0.0000000000
End final coordinates



     Writing config-only to output data dir /home/gridsan/epan1/labutil/lab3_samples/problem1/Lab3/Fe_bcc_a_2.8046394196999995_ecut_30_nk_2/pwscf.save/

     Final scf calculation at the relaxed structure.
     The G-vectors are recalculated for the final unit cell
     Results may differ from those at the preceding step.

     Parallelization info
     --------------------
     sticks:   dense  smooth     PW     G-vecs:    dense   smooth      PW
     Min         108      54     24                 1430      496     156
     Max         109      55     25                 1431      497     157
     Sum         435     217     99                 5721     1985     627

     Using Slab Decomposition



     bravais-lattice index     =            0
     lattice parameter (alat)  =       4.5899  a.u.
     unit-cell volume          =      91.1619 (a.u.)^3
     number of atoms/cell      =            1
     number of atomic types    =            1
     number of electrons       =         8.00
     number of Kohn-Sham states=            8
     kinetic-energy cutoff     =      30.0000  Ry
     charge density cutoff     =     240.0000  Ry
     scf convergence threshold =      1.0E-09
     mixing beta               =       0.5000
     number of iterations used =            8  plain     mixing
     press convergence thresh. =      5.0E-01
     Exchange-correlation=  SLA  PW   PBE  PBE
                           (   1   4   3   4   0   0   0)

     celldm(1)=   4.589935  celldm(2)=   0.000000  celldm(3)=   0.000000
     celldm(4)=   0.000000  celldm(5)=   0.000000  celldm(6)=   0.000000

     crystal axes: (cart. coord. in units of alat)
               a(1) = (  -0.617700   0.617700   0.617700 )  
               a(2) = (   0.617700  -0.617700   0.617700 )  
               a(3) = (   0.617700   0.617700  -0.617700 )  

     reciprocal axes: (cart. coord. in units 2 pi/alat)
               b(1) = (  0.000000  0.809454  0.809454 )  
               b(2) = (  0.809454  0.000000  0.809454 )  
               b(3) = (  0.809454  0.809454  0.000000 )  


     PseudoPot. # 1 for Fe read from file:
     /home/gridsan/epan1/labutil/lab3_samples/pseudopotentials/Fe.pbe-nd-rrkjus.UPF
     MD5 check sum: 398036227a04b607635f6f5e8dfd8242
     Pseudo is Ultrasoft + core correction, Zval =  8.0
     Generated by new atomic code, or converted to UPF format
     Using radial grid of  957 points,  6 beta functions with: 
                l(1) =   0
                l(2) =   0
                l(3) =   1
                l(4) =   1
                l(5) =   2
                l(6) =   2
     Q(r) pseudized with 0 coefficients 


     atomic species   valence    mass     pseudopotential
        Fe             8.00    55.84500     Fe( 1.00)

     Starting magnetic structure 
     atomic species   magnetization
        Fe           0.507

     48 Sym. Ops., with inversion, found



   Cartesian axes

     site n.     atom                  positions (alat units)
         1           Fe  tau(   1) = (   0.0000000   0.0000000   0.0000000  )

     number of k points=     3  Methfessel-Paxton smearing, width (Ry)=  0.0200
                       cart. coord. in units 2pi/alat
        k(    1) = (   0.0000000   0.0000000   0.0000000), wk =   0.1250000
        k(    2) = (  -0.4047270  -0.4047270   0.0000000), wk =   0.7500000
        k(    3) = (  -0.8094539  -0.8094539  -0.8094539), wk =   0.1250000

     Dense  grid:     5721 G-vectors     FFT dimensions: (  25,  25,  25)

     Smooth grid:     1985 G-vectors     FFT dimensions: (  18,  18,  18)

     Estimated max dynamical RAM per process >       8.48 MB

     Estimated total dynamical RAM >      33.91 MB
     Generating pointlists ...

     Initial potential from superposition of free atoms

     starting charge       7.9994, renormalised to       8.0000
     Starting wfcs are    6 randomized atomic wfcs +    2 random wfcs

     total cpu time spent up to now is       77.2 secs

     Self-consistent Calculation

     iteration #  1     ecut=    30.00 Ry     beta= 0.50
     Davidson diagonalization with overlap
     c_bands:  1 eigenvalues not converged
     c_bands:  1 eigenvalues not converged
     ethr =  1.00E-06,  avg # of iterations = 18.5

     total cpu time spent up to now is       79.4 secs

     total energy              =     -55.50717806 Ry
     estimated scf accuracy    <       0.50248673 Ry

     total magnetization       =     3.08 Bohr mag/cell
     absolute magnetization    =     3.08 Bohr mag/cell

     iteration #  2     ecut=    30.00 Ry     beta= 0.50
     Davidson diagonalization with overlap
     ethr =  6.28E-03,  avg # of iterations =  2.0

     total cpu time spent up to now is       79.8 secs

     total energy              =     -55.62945679 Ry
     estimated scf accuracy    <       0.45725239 Ry

     total magnetization       =     2.76 Bohr mag/cell
     absolute magnetization    =     2.76 Bohr mag/cell

     iteration #  3     ecut=    30.00 Ry     beta= 0.50
     Davidson diagonalization with overlap
     ethr =  5.72E-03,  avg # of iterations =  1.0

     total cpu time spent up to now is       80.5 secs

     total energy              =     -55.71514308 Ry
     estimated scf accuracy    <       0.00616476 Ry

     total magnetization       =     3.76 Bohr mag/cell
     absolute magnetization    =     3.76 Bohr mag/cell

     iteration #  4     ecut=    30.00 Ry     beta= 0.50
     Davidson diagonalization with overlap
     ethr =  7.71E-05,  avg # of iterations =  2.3

     total cpu time spent up to now is       80.9 secs

     total energy              =     -55.71897270 Ry
     estimated scf accuracy    <       0.00265610 Ry

     total magnetization       =     3.75 Bohr mag/cell
     absolute magnetization    =     3.75 Bohr mag/cell

     iteration #  5     ecut=    30.00 Ry     beta= 0.50
     Davidson diagonalization with overlap
     ethr =  3.32E-05,  avg # of iterations =  1.7

     total cpu time spent up to now is       82.1 secs

     total energy              =     -55.71933024 Ry
     estimated scf accuracy    <       0.00006494 Ry

     total magnetization       =     3.75 Bohr mag/cell
     absolute magnetization    =     3.75 Bohr mag/cell

     iteration #  6     ecut=    30.00 Ry     beta= 0.50
     Davidson diagonalization with overlap
     ethr =  8.12E-07,  avg # of iterations =  2.2

     total cpu time spent up to now is       82.7 secs

     total energy              =     -55.71935092 Ry
     estimated scf accuracy    <       0.00000892 Ry

     total magnetization       =     3.75 Bohr mag/cell
     absolute magnetization    =     3.75 Bohr mag/cell

     iteration #  7     ecut=    30.00 Ry     beta= 0.50
     Davidson diagonalization with overlap
     ethr =  1.12E-07,  avg # of iterations =  2.5

     total cpu time spent up to now is       84.8 secs

     total energy              =     -55.71935456 Ry
     estimated scf accuracy    <       0.00000008 Ry

     total magnetization       =     3.75 Bohr mag/cell
     absolute magnetization    =     3.75 Bohr mag/cell

     iteration #  8     ecut=    30.00 Ry     beta= 0.50
     Davidson diagonalization with overlap
     ethr =  9.69E-10,  avg # of iterations =  5.3

     total cpu time spent up to now is       85.7 secs

     total energy              =     -55.71935506 Ry
     estimated scf accuracy    <       0.00000002 Ry

     total magnetization       =     3.75 Bohr mag/cell
     absolute magnetization    =     3.75 Bohr mag/cell

     iteration #  9     ecut=    30.00 Ry     beta= 0.50
     Davidson diagonalization with overlap
     ethr =  1.91E-10,  avg # of iterations =  2.2

     total cpu time spent up to now is       86.5 secs

     total energy              =     -55.71935515 Ry
     estimated scf accuracy    <          2.3E-09 Ry

     total magnetization       =     3.75 Bohr mag/cell
     absolute magnetization    =     3.75 Bohr mag/cell

     iteration # 10     ecut=    30.00 Ry     beta= 0.50
     Davidson diagonalization with overlap
     ethr =  2.83E-11,  avg # of iterations =  4.3

     Magnetic moment per site  (integrated on atomic sphere of radius R)
     atom   1 (R=0.413)  charge=  6.2679  magn=  3.1784

     total cpu time spent up to now is       87.7 secs

     End of self-consistent calculation

 ------ SPIN UP ------------


          k = 0.0000 0.0000 0.0000 (   249 PWs)   bands (ev):

     2.6125   8.6238   8.6238   8.6238   9.4679   9.4679  32.9699  32.9699

          k =-0.4047-0.4047 0.0000 (   250 PWs)   bands (ev):

     6.2989   7.7485   9.5531   9.6194  10.6618  10.7509  16.3320  26.7444

          k =-0.8095-0.8095-0.8095 (   236 PWs)   bands (ev):

     6.4286   6.4286  10.5385  10.5385  10.5385  19.0521  19.0521  19.0521

 ------ SPIN DOWN ----------


          k = 0.0000 0.0000 0.0000 (   249 PWs)   bands (ev):

     4.2394  11.5920  11.5920  11.5920  13.4539  13.4539  34.5180  34.5180

          k =-0.4047-0.4047 0.0000 (   250 PWs)   bands (ev):

     8.8240  10.5607  12.3288  13.2625  13.6296  14.0508  18.9107  28.6329

          k =-0.8095-0.8095-0.8095 (   236 PWs)   bands (ev):

     9.6872   9.6872  13.8083  13.8083  13.8083  20.4973  20.4973  20.4973

     the Fermi energy is    11.6475 ev

!    total energy              =     -55.71935518 Ry
     estimated scf accuracy    <          5.3E-11 Ry
     smearing contrib. (-TS)   =      -0.00088272 Ry
     internal energy E=F+TS    =     -55.71847246 Ry

     The total energy is F=E-TS. E is the sum of the following terms:
     one-electron contribution =       4.26388884 Ry
     hartree contribution      =       7.59656156 Ry
     xc contribution           =     -26.50412040 Ry
     ewald contribution        =     -41.07480246 Ry

     total magnetization       =     3.75 Bohr mag/cell
     absolute magnetization    =     3.75 Bohr mag/cell

     convergence has been achieved in  10 iterations

     Forces acting on atoms (cartesian axes, Ry/au):

     atom    1 type  1   force =     0.00000000    0.00000000    0.00000000
     The non-local contrib.  to forces
     atom    1 type  1   force =     0.00000000    0.00000000    0.00000000
     The ionic contribution  to forces
     atom    1 type  1   force =    -0.00000000   -0.00000000   -0.00000000
     The local contribution  to forces
     atom    1 type  1   force =     0.00000000    0.00000000    0.00000000
     The core correction contribution to forces
     atom    1 type  1   force =    -0.00000000   -0.00000000    0.00000000
     The Hubbard contrib.    to forces
     atom    1 type  1   force =     0.00000000    0.00000000    0.00000000
     The SCF correction term to forces
     atom    1 type  1   force =     0.00000000    0.00000000    0.00000000

     Total force =     0.000000     Total SCF correction =     0.000000


     Computing stress (Cartesian axis) and pressure

          total   stress  (Ry/bohr**3)                   (kbar)     P=      -15.49
  -0.00010530  -0.00000000  -0.00000000          -15.49       -0.00       -0.00
  -0.00000000  -0.00010530  -0.00000000           -0.00      -15.49       -0.00
  -0.00000000  -0.00000000  -0.00010530           -0.00       -0.00      -15.49


     init_run     :      1.56s CPU      3.51s WALL (       2 calls)
     electrons    :     33.56s CPU     71.95s WALL (       7 calls)
     update_pot   :      1.07s CPU      2.45s WALL (       5 calls)
     forces       :      1.18s CPU      2.70s WALL (       7 calls)
     stress       :      2.52s CPU      5.37s WALL (       7 calls)

     Called by init_run:
     wfcinit      :      0.26s CPU      0.51s WALL (       2 calls)
     potinit      :      0.45s CPU      1.09s WALL (       2 calls)
     hinit0       :      0.78s CPU      1.75s WALL (       2 calls)

     Called by electrons:
     c_bands      :     17.97s CPU     39.82s WALL (      89 calls)
     sum_band     :      5.42s CPU     11.18s WALL (      89 calls)
     v_of_rho     :      4.53s CPU      9.49s WALL (      94 calls)
     newd         :      1.42s CPU      3.09s WALL (      94 calls)
     mix_rho      :      2.99s CPU      5.53s WALL (      89 calls)

     Called by c_bands:
     init_us_2    :      0.04s CPU      0.09s WALL (    1164 calls)
     init_us_2:cp :      0.03s CPU      0.08s WALL (    1164 calls)
     cegterg      :     13.06s CPU     26.38s WALL (     534 calls)

     Called by *egterg:
     cdiaghg      :      0.20s CPU      0.28s WALL (    1713 calls)
     h_psi        :      9.63s CPU     19.45s WALL (    1767 calls)
     s_psi        :      0.02s CPU      0.03s WALL (    1767 calls)
     g_psi        :      0.00s CPU      0.00s WALL (    1221 calls)

     Called by h_psi:
     h_psi:calbec :      1.04s CPU      2.07s WALL (    1767 calls)
     vloc_psi     :      8.56s CPU     17.33s WALL (    1767 calls)
     add_vuspsi   :      0.02s CPU      0.04s WALL (    1767 calls)

     General routines
     calbec       :      2.03s CPU      3.99s WALL (    2511 calls)
     fft          :      4.23s CPU      9.14s WALL (    2625 calls)
     ffts         :      0.29s CPU      0.55s WALL (     366 calls)
     fftw         :     11.13s CPU     22.55s WALL (   25504 calls)
     interpolate  :      0.33s CPU      0.69s WALL (     188 calls)

     Parallel routines

     PWSCF        :     41.04s CPU   1m28.85s WALL


   This run was terminated on:  17: 4:17   1Nov2023            

=------------------------------------------------------------------------------=
   JOB DONE.
=------------------------------------------------------------------------------=
