
     Program PWSCF v.7.2 starts on  3Nov2023 at 10:53:27 

     This program is part of the open-source Quantum ESPRESSO suite
     for quantum simulation of materials; please cite
         "P. Giannozzi et al., J. Phys.:Condens. Matter 21 395502 (2009);
         "P. Giannozzi et al., J. Phys.:Condens. Matter 29 465901 (2017);
         "P. Giannozzi et al., J. Chem. Phys. 152 154105 (2020);
          URL http://www.quantum-espresso.org", 
     in publications or presentations arising from this work. More details at
     http://www.quantum-espresso.org/quote

     Parallel version (MPI), running on     8 processors

     MPI processes distributed on     8 nodes
     185897 MiB available memory on the printing compute node when the environment starts

     Waiting for input...
     Reading input from standard input

     Current dimensions of program PWSCF are:
     Max number of different atomic species (ntypx) = 10
     Max number of k-points (npk) =  40000
     Max angular momentum in pseudopotentials (lmaxx) =  4
     file Cu.pz-d-rrkjus.UPF: wavefunction(s)  3D renormalized
     Message from routine setup:
     using ibrav=0 with symmetry is DISCOURAGED, use correct ibrav instead

     R & G space division:  proc/nbgrp/npool/nimage =       8
     Subspace diagonalization in iterative solution of the eigenvalue problem:
     a serial algorithm will be used


     Parallelization info
     --------------------
     sticks:   dense  smooth     PW     G-vecs:    dense   smooth      PW
     Min          59      30     10                  858      305      65
     Max          60      31     11                  861      308      68
     Sum         475     241     85                 6879     2445     531

     Using Slab Decomposition



     bravais-lattice index     =            0
     lattice parameter (alat)  =       4.6768  a.u.
     unit-cell volume          =      72.3337 (a.u.)^3
     number of atoms/cell      =            1
     number of atomic types    =            1
     number of electrons       =        11.00
     number of Kohn-Sham states=           10
     kinetic-energy cutoff     =      40.0000  Ry
     charge density cutoff     =     320.0000  Ry
     scf convergence threshold =      1.0E-07
     mixing beta               =       0.5000
     number of iterations used =            8  plain     mixing
     energy convergence thresh.=      1.0E-04
     force convergence thresh. =      1.0E-03
     press convergence thresh. =      5.0E-01
     Exchange-correlation=  SLA  PZ   NOGX NOGC
                           (   1   1   0   0   0   0   0)
     nstep                     =           50


     celldm(1)=   4.676834  celldm(2)=   0.000000  celldm(3)=   0.000000
     celldm(4)=   0.000000  celldm(5)=   0.000000  celldm(6)=   0.000000

     crystal axes: (cart. coord. in units of alat)
               a(1) = (   0.000000   0.707107   0.707107 )  
               a(2) = (   0.707107   0.000000   0.707107 )  
               a(3) = (   0.707107   0.707107   0.000000 )  

     reciprocal axes: (cart. coord. in units 2 pi/alat)
               b(1) = ( -0.707107  0.707107  0.707107 )  
               b(2) = (  0.707107 -0.707107  0.707107 )  
               b(3) = (  0.707107  0.707107 -0.707107 )  


     PseudoPot. # 1 for Cu read from file:
     /home/gridsan/epan1/labutil/lab3_samples/pseudopotentials/Cu.pz-d-rrkjus.UPF
     MD5 check sum: fd38ae683e239c95a66f426e1f8e5fc7
     Pseudo is Ultrasoft, Zval = 11.0
     Generated by new atomic code, or converted to UPF format
     Using radial grid of  899 points,  3 beta functions with: 
                l(1) =   2
                l(2) =   2
                l(3) =   1
     Q(r) pseudized with 0 coefficients 


     atomic species   valence    mass     pseudopotential
        Cu            11.00    63.54600     Cu( 1.00)

     Starting magnetic structure 
     atomic species   magnetization
        Cu           0.700

     48 Sym. Ops., with inversion, found



   Cartesian axes

     site n.     atom                  positions (alat units)
         1           Cu  tau(   1) = (   0.0000000   0.0000000   0.0000000  )

     number of k points=    20  Methfessel-Paxton smearing, width (Ry)=  0.0200
                       cart. coord. in units 2pi/alat
        k(    1) = (   0.0000000   0.0000000   0.0000000), wk =   0.0029155
        k(    2) = (   0.1010153   0.1010153  -0.1010153), wk =   0.0233236
        k(    3) = (   0.2020305   0.2020305  -0.2020305), wk =   0.0233236
        k(    4) = (   0.3030458   0.3030458  -0.3030458), wk =   0.0233236
        k(    5) = (   0.2020305   0.0000000   0.0000000), wk =   0.0174927
        k(    6) = (   0.3030458   0.1010153  -0.1010153), wk =   0.0699708
        k(    7) = (   0.4040610   0.2020305  -0.2020305), wk =   0.0699708
        k(    8) = (  -0.2020305  -0.4040610   0.4040610), wk =   0.0699708
        k(    9) = (  -0.1010153  -0.3030458   0.3030458), wk =   0.0699708
        k(   10) = (  -0.0000000  -0.2020305   0.2020305), wk =   0.0349854
        k(   11) = (   0.4040610   0.0000000   0.0000000), wk =   0.0174927
        k(   12) = (   0.5050763   0.1010153  -0.1010153), wk =   0.0699708
        k(   13) = (  -0.1010153  -0.5050763   0.5050763), wk =   0.0699708
        k(   14) = (   0.0000000  -0.4040610   0.4040610), wk =   0.0349854
        k(   15) = (   0.6060915   0.0000000   0.0000000), wk =   0.0174927
        k(   16) = (   0.0000000  -0.6060915   0.6060915), wk =   0.0349854
        k(   17) = (   0.4040610   0.2020305   0.0000000), wk =   0.0699708
        k(   18) = (  -0.2020305  -0.4040610   0.6060915), wk =   0.1399417
        k(   19) = (  -0.1010153  -0.5050763   0.7071068), wk =   0.0699708
        k(   20) = (   0.0000000  -0.4040610   0.6060915), wk =   0.0699708

     Dense  grid:     6879 G-vectors     FFT dimensions: (  27,  27,  27)

     Smooth grid:     2445 G-vectors     FFT dimensions: (  20,  20,  20)

     Estimated max dynamical RAM per process >       3.60 MB

     Estimated total dynamical RAM >      28.78 MB
     Generating pointlists ...
     new r_m :   0.4125 (alat units)  1.9292 (a.u.) for type    1

     Initial potential from superposition of free atoms

     starting charge      10.9997, renormalised to      11.0000
     Starting wfcs are    6 randomized atomic wfcs +    4 random wfcs

     total cpu time spent up to now is        0.3 secs

     Self-consistent Calculation

     iteration #  1     ecut=    40.00 Ry     beta= 0.50
     Davidson diagonalization with overlap
     ethr =  1.00E-02,  avg # of iterations =  6.1

     total cpu time spent up to now is        0.5 secs

     total energy              =     -86.93439701 Ry
     estimated scf accuracy    <       1.47441605 Ry

     total magnetization       =     1.84 Bohr mag/cell
     absolute magnetization    =     1.92 Bohr mag/cell

     iteration #  2     ecut=    40.00 Ry     beta= 0.50
     Davidson diagonalization with overlap
     ethr =  1.00E-02,  avg # of iterations =  1.6

     total cpu time spent up to now is        0.7 secs

     total energy              =     -87.60878817 Ry
     estimated scf accuracy    <       0.75360899 Ry

     total magnetization       =     0.33 Bohr mag/cell
     absolute magnetization    =     0.50 Bohr mag/cell

     iteration #  3     ecut=    40.00 Ry     beta= 0.50
     Davidson diagonalization with overlap
     ethr =  6.85E-03,  avg # of iterations =  1.0

     negative rho (up, down):  0.000E+00 2.854E-07

     total cpu time spent up to now is        0.8 secs

     total energy              =     -87.79132563 Ry
     estimated scf accuracy    <       0.22542438 Ry

     total magnetization       =     0.31 Bohr mag/cell
     absolute magnetization    =     0.50 Bohr mag/cell

     iteration #  4     ecut=    40.00 Ry     beta= 0.50
     Davidson diagonalization with overlap
     ethr =  2.05E-03,  avg # of iterations =  1.5

     total cpu time spent up to now is        0.9 secs

     total energy              =     -87.83091132 Ry
     estimated scf accuracy    <       0.05134051 Ry

     total magnetization       =    -0.02 Bohr mag/cell
     absolute magnetization    =     0.06 Bohr mag/cell

     iteration #  5     ecut=    40.00 Ry     beta= 0.50
     Davidson diagonalization with overlap
     ethr =  4.67E-04,  avg # of iterations =  1.2

     total cpu time spent up to now is        1.0 secs

     total energy              =     -87.84460228 Ry
     estimated scf accuracy    <       0.00245436 Ry

     total magnetization       =    -0.01 Bohr mag/cell
     absolute magnetization    =     0.01 Bohr mag/cell

     iteration #  6     ecut=    40.00 Ry     beta= 0.50
     Davidson diagonalization with overlap
     ethr =  2.23E-05,  avg # of iterations =  1.9

     total cpu time spent up to now is        1.1 secs

     total energy              =     -87.84560151 Ry
     estimated scf accuracy    <       0.00053240 Ry

     total magnetization       =     0.00 Bohr mag/cell
     absolute magnetization    =     0.04 Bohr mag/cell

     iteration #  7     ecut=    40.00 Ry     beta= 0.50
     Davidson diagonalization with overlap
     ethr =  4.84E-06,  avg # of iterations =  1.1

     total cpu time spent up to now is        1.2 secs

     total energy              =     -87.84569854 Ry
     estimated scf accuracy    <       0.00002222 Ry

     total magnetization       =    -0.00 Bohr mag/cell
     absolute magnetization    =     0.00 Bohr mag/cell

     iteration #  8     ecut=    40.00 Ry     beta= 0.50
     Davidson diagonalization with overlap
     ethr =  2.02E-07,  avg # of iterations =  1.4

     total cpu time spent up to now is        1.3 secs

     total energy              =     -87.84569851 Ry
     estimated scf accuracy    <       0.00000527 Ry

     total magnetization       =    -0.00 Bohr mag/cell
     absolute magnetization    =     0.00 Bohr mag/cell

     iteration #  9     ecut=    40.00 Ry     beta= 0.50
     Davidson diagonalization with overlap
     ethr =  4.79E-08,  avg # of iterations =  1.5

     Magnetic moment per site  (integrated on atomic sphere of radius R)
     atom   1 (R=0.412)  charge=  9.7791  magn=  0.0000

     total cpu time spent up to now is        1.4 secs

     End of self-consistent calculation

 ------ SPIN UP ------------


          k = 0.0000 0.0000 0.0000 (   331 PWs)   bands (ev):

     5.6329  12.0855  12.0855  12.0855  13.0490  13.0490  40.4921  43.0164
    43.0164  43.0164

          k = 0.1010 0.1010-0.1010 (   310 PWs)   bands (ev):

     6.4155  11.9280  12.2198  12.2198  13.0137  13.0137  34.9627  40.9065
    41.4522  41.4522

          k = 0.2020 0.2020-0.2020 (   305 PWs)   bands (ev):

     8.4277  11.8717  12.2371  12.2371  13.2495  13.2495  27.2528  39.7934
    40.0741  40.0741

          k = 0.3030 0.3030-0.3030 (   314 PWs)   bands (ev):

     9.7627  12.0732  12.0732  13.5730  13.6501  13.6501  21.2406  38.7401
    39.6064  39.6064

          k = 0.2020 0.0000 0.0000 (   307 PWs)   bands (ev):

     6.6712  11.7658  12.3565  12.3565  12.7723  13.1686  37.8965  37.8965
    38.0633  39.9639

          k = 0.3030 0.1010-0.1010 (   306 PWs)   bands (ev):

     8.2873  11.4923  12.2639  12.5274  13.0943  13.3759  30.2098  35.8232
    37.4336  39.4249

          k = 0.4041 0.2020-0.2020 (   307 PWs)   bands (ev):

     9.9820  11.7169  12.0562  12.4000  13.7009  14.5847  23.4101  34.8995
    35.4094  37.9673

          k =-0.2020-0.4041 0.4041 (   313 PWs)   bands (ev):

    10.2491  11.7684  12.3001  12.4687  13.6301  16.2430  20.3709  32.7826
    36.8415  38.3486

          k =-0.1010-0.3030 0.3030 (   311 PWs)   bands (ev):

     9.6212  11.7242  12.0153  12.4044  13.1181  14.2879  25.5149  32.1226
    40.0823  40.2042

          k =-0.0000-0.2020 0.2020 (   315 PWs)   bands (ev):

     7.6358  11.6837  12.2748  12.4626  12.7583  13.3819  32.4777  33.2881
    43.5391  43.9267

          k = 0.4041 0.0000 0.0000 (   311 PWs)   bands (ev):

     9.1483  11.0722  12.6892  13.0639  13.0639  13.4403  32.9640  32.9640
    33.2202  35.7591

          k = 0.5051 0.1010-0.1010 (   313 PWs)   bands (ev):

    10.1601  10.8895  12.5337  13.1114  13.7336  15.0141  26.9732  29.4110
    31.9025  36.4778

          k =-0.1010-0.5051 0.5051 (   304 PWs)   bands (ev):

    10.7291  11.0676  12.1498  12.9351  13.6762  18.8227  21.3036  26.8010
    32.9075  36.8875

          k = 0.0000-0.4041 0.4041 (   303 PWs)   bands (ev):

    10.8741  11.4645  11.6257  12.7562  13.2486  16.6710  24.1665  26.2608
    35.8036  38.1572

          k = 0.6061 0.0000 0.0000 (   322 PWs)   bands (ev):

     9.9877  10.5397  13.6613  13.7675  13.7675  15.8031  25.3387  30.0833
    30.0833  34.7100

          k = 0.0000-0.6061 0.6061 (   310 PWs)   bands (ev):

    10.2199  10.6227  13.1604  13.5062  13.8082  18.3451  23.6869  25.8192
    30.4532  35.9471

          k = 0.4041 0.2020 0.0000 (   313 PWs)   bands (ev):

     9.8469  11.2480  11.9371  13.0196  13.0697  14.4074  28.4241  29.4105
    34.2888  41.9287

          k =-0.2020-0.4041 0.6061 (   307 PWs)   bands (ev):

    10.7796  11.3171  11.7785  12.7959  13.5845  17.0815  22.4874  29.2083
    31.1135  41.9653

          k =-0.1010-0.5051 0.7071 (   311 PWs)   bands (ev):

    10.4680  10.8573  12.4188  13.3436  13.7651  17.7712  25.9068  26.0519
    27.4659  40.2716

          k = 0.0000-0.4041 0.6061 (   303 PWs)   bands (ev):

    10.8515  11.1852  11.8210  13.0306  13.7619  21.0840  21.5533  24.8039
    28.2998  42.0226

 ------ SPIN DOWN ----------


          k = 0.0000 0.0000 0.0000 (   331 PWs)   bands (ev):

     5.6336  12.0865  12.0865  12.0865  13.0500  13.0500  40.4931  43.0170
    43.0170  43.0170

          k = 0.1010 0.1010-0.1010 (   310 PWs)   bands (ev):

     6.4162  11.9290  12.2208  12.2208  13.0147  13.0147  34.9635  40.9074
    41.4529  41.4529

          k = 0.2020 0.2020-0.2020 (   305 PWs)   bands (ev):

     8.4284  11.8726  12.2381  12.2381  13.2505  13.2505  27.2536  39.7943
    40.0748  40.0748

          k = 0.3030 0.3030-0.3030 (   314 PWs)   bands (ev):

     9.7635  12.0742  12.0742  13.5738  13.6511  13.6511  21.2415  38.7409
    39.6071  39.6071

          k = 0.2020 0.0000 0.0000 (   307 PWs)   bands (ev):

     6.6719  11.7668  12.3575  12.3575  12.7733  13.1696  37.8972  37.8972
    38.0644  39.9646

          k = 0.3030 0.1010-0.1010 (   306 PWs)   bands (ev):

     8.2881  11.4932  12.2649  12.5284  13.0953  13.3769  30.2106  35.8239
    37.4345  39.4256

          k = 0.4041 0.2020-0.2020 (   307 PWs)   bands (ev):

     9.9828  11.7178  12.0571  12.4010  13.7019  14.5856  23.4109  34.9003
    35.4102  37.9681

          k =-0.2020-0.4041 0.4041 (   313 PWs)   bands (ev):

    10.2500  11.7694  12.3010  12.4697  13.6311  16.2439  20.3717  32.7834
    36.8422  38.3493

          k =-0.1010-0.3030 0.3030 (   311 PWs)   bands (ev):

     9.6220  11.7252  12.0163  12.4053  13.1191  14.2889  25.5157  32.1234
    40.0830  40.2049

          k =-0.0000-0.2020 0.2020 (   315 PWs)   bands (ev):

     7.6365  11.6846  12.2758  12.4636  12.7592  13.3829  32.4786  33.2888
    43.5397  43.9274

          k = 0.4041 0.0000 0.0000 (   311 PWs)   bands (ev):

     9.1490  11.0732  12.6901  13.0649  13.0649  13.4413  32.9647  32.9647
    33.2210  35.7602

          k = 0.5051 0.1010-0.1010 (   313 PWs)   bands (ev):

    10.1609  10.8905  12.5347  13.1124  13.7346  15.0150  26.9740  29.4118
    31.9031  36.4786

          k =-0.1010-0.5051 0.5051 (   304 PWs)   bands (ev):

    10.7300  11.0685  12.1507  12.9361  13.6773  18.8236  21.3044  26.8017
    32.9082  36.8883

          k = 0.0000-0.4041 0.4041 (   303 PWs)   bands (ev):

    10.8750  11.4654  11.6267  12.7571  13.2496  16.6719  24.1674  26.2615
    35.8043  38.1581

          k = 0.6061 0.0000 0.0000 (   322 PWs)   bands (ev):

     9.9885  10.5407  13.6624  13.7685  13.7685  15.8039  25.3395  30.0840
    30.0840  34.7111

          k = 0.0000-0.6061 0.6061 (   310 PWs)   bands (ev):

    10.2208  10.6236  13.1614  13.5072  13.8093  18.3459  23.6877  25.8200
    30.4539  35.9480

          k = 0.4041 0.2020 0.0000 (   313 PWs)   bands (ev):

     9.8477  11.2489  11.9381  13.0205  13.0707  14.4084  28.4250  29.4112
    34.2896  41.9296

          k =-0.2020-0.4041 0.6061 (   307 PWs)   bands (ev):

    10.7805  11.3180  11.7795  12.7969  13.5855  17.0823  22.4882  29.2091
    31.1142  41.9661

          k =-0.1010-0.5051 0.7071 (   311 PWs)   bands (ev):

    10.4689  10.8583  12.4197  13.3445  13.7661  17.7721  25.9077  26.0527
    27.4666  40.2726

          k = 0.0000-0.4041 0.6061 (   303 PWs)   bands (ev):

    10.8524  11.1861  11.8220  13.0316  13.7629  21.0849  21.5542  24.8047
    28.3005  42.0234

     the Fermi energy is    15.8057 ev

!    total energy              =     -87.84570008 Ry
     estimated scf accuracy    <       0.00000006 Ry
     smearing contrib. (-TS)   =       0.00002673 Ry
     internal energy E=F+TS    =     -87.84572681 Ry

     The total energy is F=E-TS. E is the sum of the following terms:
     one-electron contribution =      -8.05599738 Ry
     hartree contribution      =      18.17722194 Ry
     xc contribution           =     -14.08959494 Ry
     ewald contribution        =     -83.87735643 Ry

     total magnetization       =     0.00 Bohr mag/cell
     absolute magnetization    =     0.00 Bohr mag/cell

     convergence has been achieved in   9 iterations

     Forces acting on atoms (cartesian axes, Ry/au):

     atom    1 type  1   force =     0.00000000    0.00000000    0.00000000
     The non-local contrib.  to forces
     atom    1 type  1   force =     0.00000000    0.00000000    0.00000000
     The ionic contribution  to forces
     atom    1 type  1   force =    -0.00000000   -0.00000000   -0.00000000
     The local contribution  to forces
     atom    1 type  1   force =    -0.00000000   -0.00000000    0.00000000
     The core correction contribution to forces
     atom    1 type  1   force =     0.00000000    0.00000000    0.00000000
     The Hubbard contrib.    to forces
     atom    1 type  1   force =     0.00000000    0.00000000    0.00000000
     The SCF correction term to forces
     atom    1 type  1   force =     0.00000000    0.00000000   -0.00000000

     Total force =     0.000000     Total SCF correction =     0.000000


     Computing stress (Cartesian axis) and pressure

          total   stress  (Ry/bohr**3)                   (kbar)     P=       86.50
   0.00058798   0.00000000   0.00000000           86.50        0.00        0.00
   0.00000000   0.00058798   0.00000000            0.00       86.50        0.00
   0.00000000   0.00000000   0.00058798            0.00        0.00       86.50


     BFGS Geometry Optimization
     Energy error            =      0.0E+00 Ry
     Gradient error          =      0.0E+00 Ry/Bohr
     Cell gradient error     =      8.6E+01 kbar

     number of scf cycles    =   1
     number of bfgs steps    =   0

     enthalpy           new  =     -87.8457000768 Ry

     new trust radius        =       0.0250037855 bohr
     new conv_thr            =       0.0000001000 Ry

     new unit-cell volume =     75.57066 a.u.^3 (    11.19842 Ang^3 )
     density =      9.42282 g/cm^3

CELL_PARAMETERS (angstrom)
   0.000000000   1.775724293   1.775724293
   1.775724293   0.000000000   1.775724293
   1.775724293   1.775724293   0.000000000

ATOMIC_POSITIONS (angstrom)
Cu            0.0000000000        0.0000000000        0.0000000000



     Writing config-only to output data dir /home/gridsan/epan1/labutil/lab3_samples/problem3/Lab3/Cu_a_3.5_ecut_40_nk_7/pwscf.save/
     NEW-OLD atomic charge density approx. for the potential
     extrapolated charge   11.47115, renormalised to   11.00000
     Generating pointlists ...

     total cpu time spent up to now is        1.6 secs

     Self-consistent Calculation

     iteration #  1     ecut=    40.00 Ry     beta= 0.50
     Davidson diagonalization with overlap
     ethr =  1.00E-06,  avg # of iterations =  4.3
     Minimization algorithm failed to find Fermi energy: reverting to bisection
     Possible cause: smearing is larger than the electronic band-gap.

     total cpu time spent up to now is        1.8 secs

     total energy              =     -87.67158123 Ry
     estimated scf accuracy    <       0.16686834 Ry

     total magnetization       =     0.00 Bohr mag/cell
     absolute magnetization    =     0.00 Bohr mag/cell

     iteration #  2     ecut=    40.00 Ry     beta= 0.50
     Davidson diagonalization with overlap
     ethr =  1.52E-03,  avg # of iterations =  2.0

     total cpu time spent up to now is        1.9 secs

     total energy              =     -87.85050805 Ry
     estimated scf accuracy    <       0.25221222 Ry

     total magnetization       =     0.00 Bohr mag/cell
     absolute magnetization    =     0.00 Bohr mag/cell

     iteration #  3     ecut=    40.00 Ry     beta= 0.50
     Davidson diagonalization with overlap
     ethr =  1.52E-03,  avg # of iterations =  1.0

     total cpu time spent up to now is        2.0 secs

     total energy              =     -87.84897121 Ry
     estimated scf accuracy    <       0.05583714 Ry

     total magnetization       =     0.00 Bohr mag/cell
     absolute magnetization    =     0.00 Bohr mag/cell

     iteration #  4     ecut=    40.00 Ry     beta= 0.50
     Davidson diagonalization with overlap
     ethr =  5.08E-04,  avg # of iterations =  1.0

     total cpu time spent up to now is        2.1 secs

     total energy              =     -87.84666879 Ry
     estimated scf accuracy    <       0.01566457 Ry

     total magnetization       =    -0.00 Bohr mag/cell
     absolute magnetization    =     0.00 Bohr mag/cell

     iteration #  5     ecut=    40.00 Ry     beta= 0.50
     Davidson diagonalization with overlap
     ethr =  1.42E-04,  avg # of iterations =  1.0

     total cpu time spent up to now is        2.2 secs

     total energy              =     -87.84592804 Ry
     estimated scf accuracy    <       0.00331279 Ry

     total magnetization       =    -0.00 Bohr mag/cell
     absolute magnetization    =     0.00 Bohr mag/cell

     iteration #  6     ecut=    40.00 Ry     beta= 0.50
     Davidson diagonalization with overlap
     ethr =  3.01E-05,  avg # of iterations =  1.1

     total cpu time spent up to now is        2.3 secs

     total energy              =     -87.84653943 Ry
     estimated scf accuracy    <       0.00000200 Ry

     total magnetization       =    -0.00 Bohr mag/cell
     absolute magnetization    =     0.00 Bohr mag/cell

     iteration #  7     ecut=    40.00 Ry     beta= 0.50
     Davidson diagonalization with overlap
     ethr =  1.81E-08,  avg # of iterations =  2.7

     total cpu time spent up to now is        2.5 secs

     total energy              =     -87.84653997 Ry
     estimated scf accuracy    <       0.00005152 Ry

     total magnetization       =    -0.00 Bohr mag/cell
     absolute magnetization    =     0.00 Bohr mag/cell

     iteration #  8     ecut=    40.00 Ry     beta= 0.50
     Davidson diagonalization with overlap
     ethr =  1.81E-08,  avg # of iterations =  1.7

     total cpu time spent up to now is        2.6 secs

     total energy              =     -87.84652635 Ry
     estimated scf accuracy    <       0.00002791 Ry

     total magnetization       =    -0.00 Bohr mag/cell
     absolute magnetization    =     0.00 Bohr mag/cell

     iteration #  9     ecut=    40.00 Ry     beta= 0.50
     Davidson diagonalization with overlap
     ethr =  1.81E-08,  avg # of iterations =  2.0

     Magnetic moment per site  (integrated on atomic sphere of radius R)
     atom   1 (R=0.412)  charge=  9.7333  magn= -0.0000

     total cpu time spent up to now is        2.7 secs

     End of self-consistent calculation

 ------ SPIN UP ------------


          k = 0.0000 0.0000 0.0000 (   331 PWs)   bands (ev):

     5.0919  11.3541  11.3541  11.3541  12.2541  12.2541  39.1190  41.3296
    41.3296  41.3296

          k = 0.0996 0.0996-0.0996 (   310 PWs)   bands (ev):

     5.8507  11.2080  11.4798  11.4798  12.2217  12.2217  33.5336  39.4618
    39.7871  39.7871

          k = 0.1991 0.1991-0.1991 (   305 PWs)   bands (ev):

     7.8147  11.1590  11.4966  11.4966  12.4426  12.4426  26.0005  38.4147
    38.4277  38.4277

          k = 0.2987 0.2987-0.2987 (   314 PWs)   bands (ev):

     9.1475  11.3438  11.3438  12.8159  12.8168  12.8168  20.1061  37.4137
    37.9546  37.9546

          k = 0.1991 0.0000 0.0000 (   307 PWs)   bands (ev):

     6.0989  11.0564  11.6079  11.6079  11.9967  12.3660  36.3415  36.3415
    36.6530  38.4722

          k = 0.2987 0.0996-0.0996 (   306 PWs)   bands (ev):

     7.6743  10.8017  11.5225  11.7680  12.2987  12.5602  28.8910  34.3304
    36.0507  37.7885

          k = 0.3982 0.1991-0.1991 (   307 PWs)   bands (ev):

     9.3502  11.0181  11.3288  11.6494  12.8641  13.7224  22.2474  33.5017
    33.9270  36.4342

          k =-0.1991-0.3982 0.3982 (   313 PWs)   bands (ev):

     9.6177  11.0631  11.5563  11.7279  12.7981  15.3618  19.2479  31.4063
    35.3072  36.8705

          k =-0.0996-0.2987 0.2987 (   311 PWs)   bands (ev):

     8.9858  11.0209  11.2922  11.6536  12.3202  13.4231  24.3064  30.7544
    38.4344  38.7064

          k =-0.0000-0.1991 0.1991 (   315 PWs)   bands (ev):

     7.0370  10.9804  11.5326  11.7071  11.9840  12.5661  31.1155  31.8772
    41.9618  42.3493

          k = 0.3982 0.0000 0.0000 (   311 PWs)   bands (ev):

     8.5276  10.4086  11.9204  12.2698  12.2698  12.6202  31.5698  31.5698
    31.8676  34.3510

          k = 0.4978 0.0996-0.0996 (   313 PWs)   bands (ev):

     9.5361  10.2379  11.7767  12.3143  12.8945  14.1352  25.7508  28.1004
    30.5456  34.9881

          k =-0.0996-0.4978 0.4978 (   304 PWs)   bands (ev):

    10.0837  10.4088  11.4196  12.1501  12.8412  17.8465  20.2032  25.5452
    31.5127  35.3976

          k = 0.0000-0.3982 0.3982 (   303 PWs)   bands (ev):

    10.2088  10.7818  10.9281  11.9832  12.4419  15.7221  23.0275  25.0035
    34.3060  36.6645

          k = 0.5973 0.0000 0.0000 (   322 PWs)   bands (ev):

     9.3870   9.9099  12.8268  12.9267  12.9267  14.9510  24.1119  28.7953
    28.7953  33.3016

          k = 0.0000-0.5973 0.5973 (   310 PWs)   bands (ev):

     9.6105   9.9874  12.3674  12.6827  12.9645  17.4155  22.4940  24.6121
    29.1504  34.4684

          k = 0.3982 0.1991-0.0000 (   313 PWs)   bands (ev):

     9.2060  10.5733  11.2175  12.2298  12.2751  13.5369  27.1654  28.1016
    32.8526  40.3457

          k =-0.1991-0.3982 0.5973 (   307 PWs)   bands (ev):

    10.1249  10.6434  11.0698  12.0207  12.7559  16.1343  21.3578  27.9228
    29.7426  40.3543

          k =-0.0996-0.4978 0.6969 (   311 PWs)   bands (ev):

     9.8431  10.2073  11.6712  12.5320  12.9244  16.8169  24.7062  24.8676
    26.1657  38.7235

          k = 0.0000-0.3982 0.5973 (   303 PWs)   bands (ev):

    10.2078  10.5136  11.1116  12.2392  12.9214  20.0291  20.5015  23.5786
    27.0073  40.3974

 ------ SPIN DOWN ----------


          k = 0.0000 0.0000 0.0000 (   331 PWs)   bands (ev):

     5.0919  11.3541  11.3541  11.3541  12.2541  12.2541  39.1190  41.3296
    41.3296  41.3296

          k = 0.0996 0.0996-0.0996 (   310 PWs)   bands (ev):

     5.8507  11.2080  11.4798  11.4798  12.2217  12.2217  33.5336  39.4618
    39.7871  39.7871

          k = 0.1991 0.1991-0.1991 (   305 PWs)   bands (ev):

     7.8147  11.1590  11.4966  11.4966  12.4426  12.4426  26.0005  38.4147
    38.4277  38.4277

          k = 0.2987 0.2987-0.2987 (   314 PWs)   bands (ev):

     9.1475  11.3438  11.3438  12.8159  12.8168  12.8168  20.1061  37.4137
    37.9546  37.9546

          k = 0.1991 0.0000 0.0000 (   307 PWs)   bands (ev):

     6.0989  11.0564  11.6079  11.6079  11.9967  12.3660  36.3415  36.3415
    36.6530  38.4722

          k = 0.2987 0.0996-0.0996 (   306 PWs)   bands (ev):

     7.6743  10.8017  11.5225  11.7680  12.2987  12.5602  28.8910  34.3304
    36.0507  37.7885

          k = 0.3982 0.1991-0.1991 (   307 PWs)   bands (ev):

     9.3502  11.0181  11.3288  11.6494  12.8641  13.7224  22.2474  33.5017
    33.9270  36.4342

          k =-0.1991-0.3982 0.3982 (   313 PWs)   bands (ev):

     9.6177  11.0631  11.5563  11.7279  12.7981  15.3618  19.2479  31.4063
    35.3072  36.8705

          k =-0.0996-0.2987 0.2987 (   311 PWs)   bands (ev):

     8.9858  11.0209  11.2922  11.6536  12.3202  13.4231  24.3064  30.7544
    38.4344  38.7064

          k =-0.0000-0.1991 0.1991 (   315 PWs)   bands (ev):

     7.0370  10.9804  11.5326  11.7071  11.9840  12.5661  31.1155  31.8772
    41.9618  42.3494

          k = 0.3982 0.0000 0.0000 (   311 PWs)   bands (ev):

     8.5276  10.4086  11.9204  12.2698  12.2698  12.6202  31.5698  31.5698
    31.8677  34.3510

          k = 0.4978 0.0996-0.0996 (   313 PWs)   bands (ev):

     9.5361  10.2379  11.7767  12.3143  12.8945  14.1352  25.7508  28.1004
    30.5456  34.9881

          k =-0.0996-0.4978 0.4978 (   304 PWs)   bands (ev):

    10.0837  10.4088  11.4196  12.1501  12.8412  17.8465  20.2032  25.5452
    31.5127  35.3976

          k = 0.0000-0.3982 0.3982 (   303 PWs)   bands (ev):

    10.2088  10.7818  10.9281  11.9832  12.4419  15.7221  23.0275  25.0035
    34.3060  36.6645

          k = 0.5973 0.0000 0.0000 (   322 PWs)   bands (ev):

     9.3870   9.9099  12.8268  12.9267  12.9267  14.9510  24.1119  28.7953
    28.7953  33.3016

          k = 0.0000-0.5973 0.5973 (   310 PWs)   bands (ev):

     9.6105   9.9874  12.3674  12.6827  12.9645  17.4155  22.4940  24.6121
    29.1504  34.4684

          k = 0.3982 0.1991-0.0000 (   313 PWs)   bands (ev):

     9.2060  10.5733  11.2175  12.2298  12.2751  13.5369  27.1654  28.1016
    32.8526  40.3457

          k =-0.1991-0.3982 0.5973 (   307 PWs)   bands (ev):

    10.1249  10.6434  11.0698  12.0207  12.7559  16.1343  21.3578  27.9228
    29.7426  40.3543

          k =-0.0996-0.4978 0.6969 (   311 PWs)   bands (ev):

     9.8431  10.2073  11.6712  12.5320  12.9244  16.8169  24.7062  24.8676
    26.1657  38.7235

          k = 0.0000-0.3982 0.5973 (   303 PWs)   bands (ev):

    10.2078  10.5136  11.1116  12.2392  12.9214  20.0291  20.5015  23.5786
    27.0073  40.3974

     the Fermi energy is    14.9615 ev

!    total energy              =     -87.84653220 Ry
     estimated scf accuracy    <       0.00000007 Ry
     smearing contrib. (-TS)   =       0.00005454 Ry
     internal energy E=F+TS    =     -87.84658674 Ry

     The total energy is F=E-TS. E is the sum of the following terms:
     one-electron contribution =      -9.90531631 Ry
     hartree contribution      =      18.78346300 Ry
     xc contribution           =     -14.06247875 Ry
     ewald contribution        =     -82.66225468 Ry

     total magnetization       =    -0.00 Bohr mag/cell
     absolute magnetization    =     0.00 Bohr mag/cell

     convergence has been achieved in   9 iterations

     Forces acting on atoms (cartesian axes, Ry/au):

     atom    1 type  1   force =     0.00000000    0.00000000    0.00000000
     The non-local contrib.  to forces
     atom    1 type  1   force =    -0.00000000   -0.00000000    0.00000000
     The ionic contribution  to forces
     atom    1 type  1   force =    -0.00000000   -0.00000000   -0.00000000
     The local contribution  to forces
     atom    1 type  1   force =    -0.00000000   -0.00000000    0.00000000
     The core correction contribution to forces
     atom    1 type  1   force =     0.00000000    0.00000000    0.00000000
     The Hubbard contrib.    to forces
     atom    1 type  1   force =     0.00000000    0.00000000    0.00000000
     The SCF correction term to forces
     atom    1 type  1   force =    -0.00000000   -0.00000000    0.00000000

     Total force =     0.000000     Total SCF correction =     0.000000


     Computing stress (Cartesian axis) and pressure

          total   stress  (Ry/bohr**3)                   (kbar)     P=       -8.60
  -0.00005844   0.00000000  -0.00000000           -8.60        0.00       -0.00
   0.00000000  -0.00005844  -0.00000000            0.00       -8.60       -0.00
  -0.00000000  -0.00000000  -0.00005844           -0.00       -0.00       -8.60

     Energy error            =      8.3E-04 Ry
     Gradient error          =      0.0E+00 Ry/Bohr
     Cell gradient error     =      8.6E+00 kbar

     number of scf cycles    =   2
     number of bfgs steps    =   1

     enthalpy           old  =     -87.8457000768 Ry
     enthalpy           new  =     -87.8465321991 Ry

     CASE: enthalpy          _new < enthalpy          _old

     new trust radius        =       0.0023380474 bohr
     new conv_thr            =       0.0000000010 Ry

     new unit-cell volume =     75.26619 a.u.^3 (    11.15330 Ang^3 )
     density =      9.46093 g/cm^3

CELL_PARAMETERS (angstrom)
   0.000000000   1.773336359   1.773336359
   1.773336359   0.000000000   1.773336359
   1.773336359   1.773336359   0.000000000

ATOMIC_POSITIONS (angstrom)
Cu            0.0000000000        0.0000000000        0.0000000000



     Writing config-only to output data dir /home/gridsan/epan1/labutil/lab3_samples/problem3/Lab3/Cu_a_3.5_ecut_40_nk_7/pwscf.save/
     NEW-OLD atomic charge density approx. for the potential
     extrapolated charge   10.95550, renormalised to   11.00000
     Generating pointlists ...

     total cpu time spent up to now is        2.9 secs

     Self-consistent Calculation

     iteration #  1     ecut=    40.00 Ry     beta= 0.50
     Davidson diagonalization with overlap
     ethr =  1.00E-06,  avg # of iterations =  2.0

     total cpu time spent up to now is        3.1 secs

     total energy              =     -87.84522635 Ry
     estimated scf accuracy    <       0.00124451 Ry

     total magnetization       =    -0.00 Bohr mag/cell
     absolute magnetization    =     0.00 Bohr mag/cell

     iteration #  2     ecut=    40.00 Ry     beta= 0.50
     Davidson diagonalization with overlap
     ethr =  1.13E-05,  avg # of iterations =  2.0

     total cpu time spent up to now is        3.2 secs

     total energy              =     -87.84650159 Ry
     estimated scf accuracy    <       0.00208230 Ry

     total magnetization       =    -0.00 Bohr mag/cell
     absolute magnetization    =     0.00 Bohr mag/cell

     iteration #  3     ecut=    40.00 Ry     beta= 0.50
     Davidson diagonalization with overlap
     ethr =  1.13E-05,  avg # of iterations =  1.0

     total cpu time spent up to now is        3.3 secs

     total energy              =     -87.84662006 Ry
     estimated scf accuracy    <       0.00035677 Ry

     total magnetization       =    -0.00 Bohr mag/cell
     absolute magnetization    =     0.00 Bohr mag/cell

     iteration #  4     ecut=    40.00 Ry     beta= 0.50
     Davidson diagonalization with overlap
     ethr =  3.24E-06,  avg # of iterations =  1.0

     total cpu time spent up to now is        3.4 secs

     total energy              =     -87.84647100 Ry
     estimated scf accuracy    <       0.00029947 Ry

     total magnetization       =    -0.00 Bohr mag/cell
     absolute magnetization    =     0.00 Bohr mag/cell

     iteration #  5     ecut=    40.00 Ry     beta= 0.50
     Davidson diagonalization with overlap
     ethr =  2.72E-06,  avg # of iterations =  1.1

     total cpu time spent up to now is        3.5 secs

     total energy              =     -87.84653247 Ry
     estimated scf accuracy    <       0.00000008 Ry

     total magnetization       =    -0.00 Bohr mag/cell
     absolute magnetization    =     0.00 Bohr mag/cell

     iteration #  6     ecut=    40.00 Ry     beta= 0.50
     Davidson diagonalization with overlap
     ethr =  7.20E-10,  avg # of iterations =  3.2

     total cpu time spent up to now is        3.7 secs

     total energy              =     -87.84653363 Ry
     estimated scf accuracy    <       0.00001621 Ry

     total magnetization       =     0.00 Bohr mag/cell
     absolute magnetization    =     0.00 Bohr mag/cell

     iteration #  7     ecut=    40.00 Ry     beta= 0.50
     Davidson diagonalization with overlap
     ethr =  7.20E-10,  avg # of iterations =  2.0

     total cpu time spent up to now is        3.8 secs

     total energy              =     -87.84653013 Ry
     estimated scf accuracy    <       0.00001052 Ry

     total magnetization       =     0.00 Bohr mag/cell
     absolute magnetization    =     0.00 Bohr mag/cell

     iteration #  8     ecut=    40.00 Ry     beta= 0.50
     Davidson diagonalization with overlap
     ethr =  7.20E-10,  avg # of iterations =  2.6

     total cpu time spent up to now is        3.9 secs

     total energy              =     -87.84653031 Ry
     estimated scf accuracy    <       0.00000136 Ry

     total magnetization       =    -0.00 Bohr mag/cell
     absolute magnetization    =     0.00 Bohr mag/cell

     iteration #  9     ecut=    40.00 Ry     beta= 0.50
     Davidson diagonalization with overlap
     ethr =  7.20E-10,  avg # of iterations =  2.0

     total cpu time spent up to now is        4.1 secs

     total energy              =     -87.84653056 Ry
     estimated scf accuracy    <          3.0E-09 Ry

     total magnetization       =     0.00 Bohr mag/cell
     absolute magnetization    =     0.00 Bohr mag/cell

     iteration # 10     ecut=    40.00 Ry     beta= 0.50
     Davidson diagonalization with overlap
     ethr =  2.74E-11,  avg # of iterations =  1.1

     total cpu time spent up to now is        4.2 secs

     total energy              =     -87.84653055 Ry
     estimated scf accuracy    <       0.00000001 Ry

     total magnetization       =     0.00 Bohr mag/cell
     absolute magnetization    =     0.00 Bohr mag/cell

     iteration # 11     ecut=    40.00 Ry     beta= 0.50
     Davidson diagonalization with overlap
     ethr =  2.74E-11,  avg # of iterations =  2.0

     Magnetic moment per site  (integrated on atomic sphere of radius R)
     atom   1 (R=0.412)  charge=  9.7375  magn=  0.0000

     total cpu time spent up to now is        4.3 secs

     End of self-consistent calculation

 ------ SPIN UP ------------


          k = 0.0000 0.0000 0.0000 (   331 PWs)   bands (ev):

     5.1407  11.4194  11.4194  11.4194  12.3251  12.3251  39.2438  41.4828
    41.4828  41.4828

          k = 0.0997 0.0997-0.0997 (   310 PWs)   bands (ev):

     5.9016  11.2723  11.5459  11.5459  12.2924  12.2924  33.6630  39.5931
    39.9380  39.9380

          k = 0.1994 0.1994-0.1994 (   305 PWs)   bands (ev):

     7.8700  11.2228  11.5628  11.5628  12.5146  12.5146  26.1136  38.5400
    38.5768  38.5768

          k = 0.2991 0.2991-0.2991 (   314 PWs)   bands (ev):

     9.2027  11.4090  11.4090  12.8842  12.8911  12.8911  20.2082  37.5343
    38.1042  38.1042

          k = 0.1994 0.0000 0.0000 (   307 PWs)   bands (ev):

     6.1505  11.1198  11.6748  11.6748  12.0659  12.4376  36.4823  36.4823
    36.7808  38.6080

          k = 0.2991 0.0997-0.0997 (   306 PWs)   bands (ev):

     7.7296  10.8635  11.5887  11.8358  12.3698  12.6329  29.0102  34.4655
    36.1761  37.9369

          k = 0.3987 0.1994-0.1994 (   307 PWs)   bands (ev):

     9.4070  11.0807  11.3939  11.7165  12.9387  13.7997  22.3522  33.6286
    34.0612  36.5728

          k =-0.1994-0.3987 0.3987 (   313 PWs)   bands (ev):

     9.6743  11.1262  11.6227  11.7943  12.8724  15.4410  19.3490  31.5310
    35.4461  37.0044

          k =-0.0997-0.2991 0.2991 (   311 PWs)   bands (ev):

     9.0430  11.0839  11.3568  11.7207  12.3914  13.5005  24.4155  30.8783
    38.5836  38.8422

          k =-0.0000-0.1994 0.1994 (   315 PWs)   bands (ev):

     7.0910  11.0433  11.5989  11.7746  12.0531  12.6389  31.2387  32.0051
    42.1048  42.4926

          k = 0.3987 0.0000 0.0000 (   311 PWs)   bands (ev):

     8.5836  10.4680  11.9892  12.3407  12.3407  12.6933  31.6960  31.6960
    31.9903  34.4783

          k = 0.4984 0.0997-0.0997 (   313 PWs)   bands (ev):

     9.5921  10.2962  11.8445  12.3854  12.9694  14.2140  25.8614  28.2189
    30.6684  35.1228

          k =-0.0997-0.4984 0.4984 (   304 PWs)   bands (ev):

    10.1415  10.4678  11.4850  12.2202  12.9157  17.9345  20.3024  25.6586
    31.6390  35.5324

          k = 0.0000-0.3987 0.3987 (   303 PWs)   bands (ev):

    10.2685  10.8429  10.9905  12.0523  12.5139  15.8073  23.1303  25.1171
    34.4415  36.7997

          k = 0.5981 0.0000 0.0000 (   322 PWs)   bands (ev):

     9.4409   9.9663  12.9013  13.0017  13.0017  15.0279  24.2227  28.9120
    28.9120  33.4288

          k = 0.0000-0.5981 0.5981 (   310 PWs)   bands (ev):

     9.6651  10.0443  12.4383  12.7562  13.0398  17.4993  22.6017  24.7211
    29.2683  34.6021

          k = 0.3987 0.1994 0.0000 (   313 PWs)   bands (ev):

     9.2637  10.6337  11.2818  12.3004  12.3460  13.6147  27.2790  28.2201
    32.9826  40.4891

          k =-0.1994-0.3987 0.5981 (   307 PWs)   bands (ev):

    10.1836  10.7037  11.1333  12.0899  12.8298  16.2194  21.4597  28.0392
    29.8665  40.5003

          k =-0.0997-0.4984 0.6978 (   311 PWs)   bands (ev):

     9.8991  10.2655  11.7381  12.6044  12.9994  16.9028  24.8148  24.9746
    26.2831  38.8636

          k = 0.0000-0.3987 0.5981 (   303 PWs)   bands (ev):

    10.2655  10.5737  11.1751  12.3098  12.9964  20.1242  20.5964  23.6893
    27.1240  40.5446

 ------ SPIN DOWN ----------


          k = 0.0000 0.0000 0.0000 (   331 PWs)   bands (ev):

     5.1407  11.4194  11.4194  11.4194  12.3251  12.3251  39.2438  41.4828
    41.4828  41.4828

          k = 0.0997 0.0997-0.0997 (   310 PWs)   bands (ev):

     5.9016  11.2723  11.5459  11.5459  12.2924  12.2924  33.6630  39.5931
    39.9380  39.9380

          k = 0.1994 0.1994-0.1994 (   305 PWs)   bands (ev):

     7.8700  11.2228  11.5628  11.5628  12.5146  12.5146  26.1136  38.5400
    38.5768  38.5768

          k = 0.2991 0.2991-0.2991 (   314 PWs)   bands (ev):

     9.2027  11.4090  11.4090  12.8842  12.8911  12.8911  20.2082  37.5343
    38.1042  38.1042

          k = 0.1994 0.0000 0.0000 (   307 PWs)   bands (ev):

     6.1505  11.1198  11.6748  11.6748  12.0659  12.4376  36.4823  36.4823
    36.7808  38.6080

          k = 0.2991 0.0997-0.0997 (   306 PWs)   bands (ev):

     7.7296  10.8635  11.5887  11.8358  12.3698  12.6329  29.0102  34.4655
    36.1761  37.9369

          k = 0.3987 0.1994-0.1994 (   307 PWs)   bands (ev):

     9.4070  11.0807  11.3939  11.7165  12.9387  13.7997  22.3522  33.6286
    34.0612  36.5728

          k =-0.1994-0.3987 0.3987 (   313 PWs)   bands (ev):

     9.6743  11.1262  11.6227  11.7943  12.8724  15.4410  19.3490  31.5310
    35.4461  37.0044

          k =-0.0997-0.2991 0.2991 (   311 PWs)   bands (ev):

     9.0430  11.0839  11.3568  11.7207  12.3914  13.5005  24.4155  30.8783
    38.5836  38.8422

          k =-0.0000-0.1994 0.1994 (   315 PWs)   bands (ev):

     7.0910  11.0433  11.5989  11.7746  12.0531  12.6389  31.2387  32.0051
    42.1048  42.4926

          k = 0.3987 0.0000 0.0000 (   311 PWs)   bands (ev):

     8.5836  10.4680  11.9892  12.3407  12.3407  12.6933  31.6960  31.6960
    31.9903  34.4783

          k = 0.4984 0.0997-0.0997 (   313 PWs)   bands (ev):

     9.5921  10.2962  11.8445  12.3854  12.9694  14.2140  25.8614  28.2189
    30.6684  35.1228

          k =-0.0997-0.4984 0.4984 (   304 PWs)   bands (ev):

    10.1415  10.4678  11.4850  12.2202  12.9157  17.9345  20.3024  25.6586
    31.6390  35.5324

          k = 0.0000-0.3987 0.3987 (   303 PWs)   bands (ev):

    10.2685  10.8429  10.9905  12.0523  12.5139  15.8073  23.1303  25.1171
    34.4415  36.7997

          k = 0.5981 0.0000 0.0000 (   322 PWs)   bands (ev):

     9.4409   9.9663  12.9013  13.0017  13.0017  15.0279  24.2227  28.9120
    28.9120  33.4288

          k = 0.0000-0.5981 0.5981 (   310 PWs)   bands (ev):

     9.6651  10.0443  12.4383  12.7562  13.0398  17.4993  22.6017  24.7211
    29.2683  34.6021

          k = 0.3987 0.1994 0.0000 (   313 PWs)   bands (ev):

     9.2637  10.6337  11.2818  12.3004  12.3460  13.6147  27.2790  28.2201
    32.9826  40.4891

          k =-0.1994-0.3987 0.5981 (   307 PWs)   bands (ev):

    10.1836  10.7037  11.1333  12.0899  12.8298  16.2194  21.4597  28.0392
    29.8665  40.5003

          k =-0.0997-0.4984 0.6978 (   311 PWs)   bands (ev):

     9.8991  10.2655  11.7381  12.6044  12.9994  16.9028  24.8148  24.9746
    26.2831  38.8636

          k = 0.0000-0.3987 0.5981 (   303 PWs)   bands (ev):

    10.2655  10.5737  11.1751  12.3098  12.9964  20.1242  20.5964  23.6893
    27.1240  40.5446

     the Fermi energy is    15.0378 ev

!    total energy              =     -87.84653055 Ry
     estimated scf accuracy    <          1.5E-10 Ry
     smearing contrib. (-TS)   =       0.00005241 Ry
     internal energy E=F+TS    =     -87.84658296 Ry

     The total energy is F=E-TS. E is the sum of the following terms:
     one-electron contribution =      -9.73631693 Ry
     hartree contribution      =      18.72842185 Ry
     xc contribution           =     -14.06512211 Ry
     ewald contribution        =     -82.77356576 Ry

     total magnetization       =     0.00 Bohr mag/cell
     absolute magnetization    =     0.00 Bohr mag/cell

     convergence has been achieved in  11 iterations

     Forces acting on atoms (cartesian axes, Ry/au):

     atom    1 type  1   force =     0.00000000    0.00000000    0.00000000
     The non-local contrib.  to forces
     atom    1 type  1   force =    -0.00000000    0.00000000   -0.00000000
     The ionic contribution  to forces
     atom    1 type  1   force =    -0.00000000   -0.00000000   -0.00000000
     The local contribution  to forces
     atom    1 type  1   force =     0.00000000   -0.00000000   -0.00000000
     The core correction contribution to forces
     atom    1 type  1   force =     0.00000000    0.00000000    0.00000000
     The Hubbard contrib.    to forces
     atom    1 type  1   force =     0.00000000    0.00000000    0.00000000
     The SCF correction term to forces
     atom    1 type  1   force =     0.00000000   -0.00000000    0.00000000

     Total force =     0.000000     Total SCF correction =     0.000000


     Computing stress (Cartesian axis) and pressure

          total   stress  (Ry/bohr**3)                   (kbar)     P=        4.22
   0.00002866   0.00000000  -0.00000000            4.22        0.00       -0.00
   0.00000000   0.00002866  -0.00000000            0.00        4.22       -0.00
  -0.00000000  -0.00000000   0.00002866           -0.00       -0.00        4.22

     Energy error            =      1.6E-06 Ry
     Gradient error          =      0.0E+00 Ry/Bohr
     Cell gradient error     =      4.2E+00 kbar

     number of scf cycles    =   3
     number of bfgs steps    =   2

     enthalpy           old  =     -87.8465321991 Ry
     enthalpy           new  =     -87.8465305520 Ry

     CASE: enthalpy          _new > enthalpy          _old

     new trust radius        =       0.0010693732 bohr
     new conv_thr            =       0.0000000010 Ry

     new unit-cell volume =     75.43121 a.u.^3 (    11.17775 Ang^3 )
     density =      9.44024 g/cm^3

CELL_PARAMETERS (angstrom)
   0.000000000   1.774631368   1.774631368
   1.774631368   0.000000000   1.774631368
   1.774631368   1.774631368   0.000000000

ATOMIC_POSITIONS (angstrom)
Cu            0.0000000000        0.0000000000        0.0000000000



     Writing config-only to output data dir /home/gridsan/epan1/labutil/lab3_samples/problem3/Lab3/Cu_a_3.5_ecut_40_nk_7/pwscf.save/
     NEW-OLD atomic charge density approx. for the potential
     extrapolated charge   11.02406, renormalised to   11.00000
     Generating pointlists ...

     total cpu time spent up to now is        4.5 secs

     Self-consistent Calculation

     iteration #  1     ecut=    40.00 Ry     beta= 0.50
     Davidson diagonalization with overlap
     ethr =  1.00E-06,  avg # of iterations =  2.0

     total cpu time spent up to now is        4.6 secs

     total energy              =     -87.84614644 Ry
     estimated scf accuracy    <       0.00036521 Ry

     total magnetization       =     0.00 Bohr mag/cell
     absolute magnetization    =     0.00 Bohr mag/cell

     iteration #  2     ecut=    40.00 Ry     beta= 0.50
     Davidson diagonalization with overlap
     ethr =  3.32E-06,  avg # of iterations =  2.0

     total cpu time spent up to now is        4.8 secs

     total energy              =     -87.84652714 Ry
     estimated scf accuracy    <       0.00061920 Ry

     total magnetization       =     0.00 Bohr mag/cell
     absolute magnetization    =     0.00 Bohr mag/cell

     iteration #  3     ecut=    40.00 Ry     beta= 0.50
     Davidson diagonalization with overlap
     ethr =  3.32E-06,  avg # of iterations =  1.0

     total cpu time spent up to now is        4.9 secs

     total energy              =     -87.84655344 Ry
     estimated scf accuracy    <       0.00011042 Ry

     total magnetization       =     0.00 Bohr mag/cell
     absolute magnetization    =     0.00 Bohr mag/cell

     iteration #  4     ecut=    40.00 Ry     beta= 0.50
     Davidson diagonalization with overlap
     ethr =  1.00E-06,  avg # of iterations =  1.0

     total cpu time spent up to now is        5.0 secs

     total energy              =     -87.84652849 Ry
     estimated scf accuracy    <       0.00006970 Ry

     total magnetization       =     0.00 Bohr mag/cell
     absolute magnetization    =     0.00 Bohr mag/cell

     iteration #  5     ecut=    40.00 Ry     beta= 0.50
     Davidson diagonalization with overlap
     ethr =  6.34E-07,  avg # of iterations =  1.0

     total cpu time spent up to now is        5.1 secs

     total energy              =     -87.84653081 Ry
     estimated scf accuracy    <       0.00000617 Ry

     total magnetization       =     0.00 Bohr mag/cell
     absolute magnetization    =     0.00 Bohr mag/cell

     iteration #  6     ecut=    40.00 Ry     beta= 0.50
     Davidson diagonalization with overlap
     ethr =  5.61E-08,  avg # of iterations =  2.0

     total cpu time spent up to now is        5.2 secs

     total energy              =     -87.84653298 Ry
     estimated scf accuracy    <       0.00000257 Ry

     total magnetization       =     0.00 Bohr mag/cell
     absolute magnetization    =     0.00 Bohr mag/cell

     iteration #  7     ecut=    40.00 Ry     beta= 0.50
     Davidson diagonalization with overlap
     ethr =  2.34E-08,  avg # of iterations =  1.0

     total cpu time spent up to now is        5.3 secs

     total energy              =     -87.84653323 Ry
     estimated scf accuracy    <       0.00000010 Ry

     total magnetization       =     0.00 Bohr mag/cell
     absolute magnetization    =     0.00 Bohr mag/cell

     iteration #  8     ecut=    40.00 Ry     beta= 0.50
     Davidson diagonalization with overlap
     ethr =  9.27E-10,  avg # of iterations =  1.9

     total cpu time spent up to now is        5.4 secs

     total energy              =     -87.84653327 Ry
     estimated scf accuracy    <       0.00000002 Ry

     total magnetization       =     0.00 Bohr mag/cell
     absolute magnetization    =     0.00 Bohr mag/cell

     iteration #  9     ecut=    40.00 Ry     beta= 0.50
     Davidson diagonalization with overlap
     ethr =  2.06E-10,  avg # of iterations =  1.0

     total cpu time spent up to now is        5.6 secs

     total energy              =     -87.84653327 Ry
     estimated scf accuracy    <          2.1E-09 Ry

     total magnetization       =     0.00 Bohr mag/cell
     absolute magnetization    =     0.00 Bohr mag/cell

     iteration # 10     ecut=    40.00 Ry     beta= 0.50
     Davidson diagonalization with overlap
     ethr =  1.88E-11,  avg # of iterations =  1.0

     Magnetic moment per site  (integrated on atomic sphere of radius R)
     atom   1 (R=0.412)  charge=  9.7353  magn=  0.0000

     total cpu time spent up to now is        5.7 secs

     End of self-consistent calculation

 ------ SPIN UP ------------


          k = 0.0000 0.0000 0.0000 (   331 PWs)   bands (ev):

     5.1142  11.3832  11.3832  11.3832  12.2858  12.2858  39.1762  41.3996
    41.3996  41.3996

          k = 0.0996 0.0996-0.0996 (   310 PWs)   bands (ev):

     5.8740  11.2367  11.5093  11.5093  12.2532  12.2532  33.5926  39.5219
    39.8560  39.8560

          k = 0.1992 0.1992-0.1992 (   305 PWs)   bands (ev):

     7.8399  11.1876  11.5261  11.5261  12.4747  12.4747  26.0520  38.4721
    38.4958  38.4958

          k = 0.2988 0.2988-0.2988 (   314 PWs)   bands (ev):

     9.1724  11.3729  11.3729  12.8470  12.8499  12.8499  20.1525  37.4689
    38.0229  38.0229

          k = 0.1992 0.0000 0.0000 (   307 PWs)   bands (ev):

     6.1225  11.0847  11.6378  11.6378  12.0276  12.3980  36.4058  36.4058
    36.7114  38.5343

          k = 0.2988 0.0996-0.0996 (   306 PWs)   bands (ev):

     7.6996  10.8293  11.5521  11.7983  12.3305  12.5926  28.9454  34.3920
    36.1080  37.8562

          k = 0.3985 0.1992-0.1992 (   307 PWs)   bands (ev):

     9.3759  11.0461  11.3579  11.6794  12.8974  13.7572  22.2951  33.5597
    33.9883  36.4975

          k =-0.1992-0.3985 0.3985 (   313 PWs)   bands (ev):

     9.6431  11.0913  11.5859  11.7577  12.8313  15.3977  19.2938  31.4632
    35.3706  36.9317

          k =-0.0996-0.2988 0.2988 (   311 PWs)   bands (ev):

     9.0117  11.0492  11.3211  11.6835  12.3520  13.4578  24.3561  30.8110
    38.5025  38.7685

          k =-0.0000-0.1992 0.1992 (   315 PWs)   bands (ev):

     7.0617  11.0085  11.5622  11.7372  12.0148  12.5986  31.1717  31.9356
    42.0272  42.4149

          k = 0.3985 0.0000 0.0000 (   311 PWs)   bands (ev):

     8.5531  10.4351  11.9513  12.3015  12.3015  12.6528  31.6275  31.6275
    31.9236  34.4090

          k = 0.4981 0.0996-0.0996 (   313 PWs)   bands (ev):

     9.5613  10.2639  11.8071  12.3460  12.9279  14.1708  25.8012  28.1544
    30.6016  35.0496

          k =-0.0996-0.4981 0.4981 (   304 PWs)   bands (ev):

    10.1095  10.4352  11.4489  12.1813  12.8745  17.8865  20.2483  25.5969
    31.5704  35.4591

          k = 0.0000-0.3985 0.3985 (   303 PWs)   bands (ev):

    10.2356  10.8091  10.9560  12.0141  12.4740  15.7606  23.0743  25.0553
    34.3679  36.7262

          k = 0.5977 0.0000 0.0000 (   322 PWs)   bands (ev):

     9.4111   9.9351  12.8601  12.9602  12.9602  14.9861  24.1623  28.8486
    28.8486  33.3596

          k = 0.0000-0.5977 0.5977 (   310 PWs)   bands (ev):

     9.6349  10.0129  12.3991  12.7155  12.9981  17.4537  22.5429  24.6619
    29.2043  34.5293

          k = 0.3985 0.1992 0.0000 (   313 PWs)   bands (ev):

     9.2322  10.6003  11.2462  12.2613  12.3067  13.5718  27.2172  28.1557
    32.9119  40.4112

          k =-0.1992-0.3985 0.5977 (   307 PWs)   bands (ev):

    10.1512  10.6704  11.0982  12.0516  12.7889  16.1728  21.4042  27.9759
    29.7991  40.4210

          k =-0.0996-0.4981 0.6973 (   311 PWs)   bands (ev):

     9.8682  10.2333  11.7011  12.5643  12.9579  16.8559  24.7556  24.9164
    26.2193  38.7875

          k = 0.0000-0.3985 0.5977 (   303 PWs)   bands (ev):

    10.2336  10.5405  11.1400  12.2707  12.9549  20.0724  20.5447  23.6290
    27.0605  40.4646

 ------ SPIN DOWN ----------


          k = 0.0000 0.0000 0.0000 (   331 PWs)   bands (ev):

     5.1142  11.3832  11.3832  11.3832  12.2858  12.2858  39.1762  41.3996
    41.3996  41.3996

          k = 0.0996 0.0996-0.0996 (   310 PWs)   bands (ev):

     5.8740  11.2367  11.5093  11.5093  12.2532  12.2532  33.5926  39.5219
    39.8560  39.8560

          k = 0.1992 0.1992-0.1992 (   305 PWs)   bands (ev):

     7.8399  11.1876  11.5261  11.5261  12.4747  12.4747  26.0520  38.4721
    38.4958  38.4958

          k = 0.2988 0.2988-0.2988 (   314 PWs)   bands (ev):

     9.1724  11.3729  11.3729  12.8470  12.8499  12.8499  20.1525  37.4689
    38.0229  38.0229

          k = 0.1992 0.0000 0.0000 (   307 PWs)   bands (ev):

     6.1225  11.0847  11.6378  11.6378  12.0276  12.3980  36.4058  36.4058
    36.7114  38.5343

          k = 0.2988 0.0996-0.0996 (   306 PWs)   bands (ev):

     7.6996  10.8293  11.5521  11.7983  12.3305  12.5926  28.9454  34.3920
    36.1080  37.8562

          k = 0.3985 0.1992-0.1992 (   307 PWs)   bands (ev):

     9.3759  11.0461  11.3579  11.6794  12.8974  13.7572  22.2951  33.5597
    33.9883  36.4975

          k =-0.1992-0.3985 0.3985 (   313 PWs)   bands (ev):

     9.6431  11.0913  11.5859  11.7577  12.8313  15.3977  19.2938  31.4632
    35.3706  36.9317

          k =-0.0996-0.2988 0.2988 (   311 PWs)   bands (ev):

     9.0117  11.0492  11.3211  11.6835  12.3520  13.4578  24.3561  30.8110
    38.5025  38.7685

          k =-0.0000-0.1992 0.1992 (   315 PWs)   bands (ev):

     7.0617  11.0085  11.5622  11.7372  12.0148  12.5986  31.1717  31.9356
    42.0272  42.4149

          k = 0.3985 0.0000 0.0000 (   311 PWs)   bands (ev):

     8.5531  10.4351  11.9513  12.3015  12.3015  12.6528  31.6275  31.6275
    31.9236  34.4090

          k = 0.4981 0.0996-0.0996 (   313 PWs)   bands (ev):

     9.5613  10.2639  11.8071  12.3460  12.9279  14.1708  25.8012  28.1544
    30.6016  35.0496

          k =-0.0996-0.4981 0.4981 (   304 PWs)   bands (ev):

    10.1095  10.4352  11.4489  12.1813  12.8745  17.8865  20.2483  25.5969
    31.5704  35.4591

          k = 0.0000-0.3985 0.3985 (   303 PWs)   bands (ev):

    10.2356  10.8091  10.9560  12.0141  12.4740  15.7606  23.0743  25.0553
    34.3679  36.7262

          k = 0.5977 0.0000 0.0000 (   322 PWs)   bands (ev):

     9.4111   9.9351  12.8601  12.9602  12.9602  14.9861  24.1623  28.8486
    28.8486  33.3596

          k = 0.0000-0.5977 0.5977 (   310 PWs)   bands (ev):

     9.6349  10.0129  12.3991  12.7155  12.9981  17.4537  22.5429  24.6619
    29.2043  34.5293

          k = 0.3985 0.1992 0.0000 (   313 PWs)   bands (ev):

     9.2322  10.6003  11.2462  12.2613  12.3067  13.5718  27.2172  28.1557
    32.9119  40.4112

          k =-0.1992-0.3985 0.5977 (   307 PWs)   bands (ev):

    10.1512  10.6704  11.0982  12.0516  12.7889  16.1728  21.4042  27.9759
    29.7991  40.4210

          k =-0.0996-0.4981 0.6973 (   311 PWs)   bands (ev):

     9.8682  10.2333  11.7011  12.5643  12.9579  16.8559  24.7556  24.9164
    26.2193  38.7875

          k = 0.0000-0.3985 0.5977 (   303 PWs)   bands (ev):

    10.2336  10.5405  11.1400  12.2707  12.9549  20.0724  20.5447  23.6290
    27.0605  40.4646

     the Fermi energy is    14.9964 ev

!    total energy              =     -87.84653327 Ry
     estimated scf accuracy    <          4.8E-10 Ry
     smearing contrib. (-TS)   =       0.00005374 Ry
     internal energy E=F+TS    =     -87.84658701 Ry

     The total energy is F=E-TS. E is the sum of the following terms:
     one-electron contribution =      -9.82872193 Ry
     hartree contribution      =      18.75916785 Ry
     xc contribution           =     -14.06386984 Ry
     ewald contribution        =     -82.71316309 Ry

     total magnetization       =     0.00 Bohr mag/cell
     absolute magnetization    =     0.00 Bohr mag/cell

     convergence has been achieved in  10 iterations

     Forces acting on atoms (cartesian axes, Ry/au):

     atom    1 type  1   force =     0.00000000    0.00000000    0.00000000
     The non-local contrib.  to forces
     atom    1 type  1   force =     0.00000000    0.00000000   -0.00000000
     The ionic contribution  to forces
     atom    1 type  1   force =    -0.00000000   -0.00000000   -0.00000000
     The local contribution  to forces
     atom    1 type  1   force =    -0.00000000   -0.00000000   -0.00000000
     The core correction contribution to forces
     atom    1 type  1   force =     0.00000000    0.00000000    0.00000000
     The Hubbard contrib.    to forces
     atom    1 type  1   force =     0.00000000    0.00000000    0.00000000
     The SCF correction term to forces
     atom    1 type  1   force =     0.00000000    0.00000000    0.00000000

     Total force =     0.000000     Total SCF correction =     0.000000


     Computing stress (Cartesian axis) and pressure

          total   stress  (Ry/bohr**3)                   (kbar)     P=        1.02
   0.00000691  -0.00000000  -0.00000000            1.02       -0.00       -0.00
  -0.00000000   0.00000691  -0.00000000           -0.00        1.02       -0.00
  -0.00000000  -0.00000000   0.00000691           -0.00       -0.00        1.02

     Energy error            =      1.1E-06 Ry
     Gradient error          =      0.0E+00 Ry/Bohr
     Cell gradient error     =      1.0E+00 kbar

     number of scf cycles    =   4
     number of bfgs steps    =   2

     enthalpy           old  =     -87.8465321991 Ry
     enthalpy           new  =     -87.8465332692 Ry

     CASE: enthalpy          _new < enthalpy          _old

     new trust radius        =       0.0001129878 bohr
     new conv_thr            =       0.0000000010 Ry

     new unit-cell volume =     75.44593 a.u.^3 (    11.17993 Ang^3 )
     density =      9.43839 g/cm^3

CELL_PARAMETERS (angstrom)
   0.000000000   1.774746802   1.774746802
   1.774746802   0.000000000   1.774746802
   1.774746802   1.774746802   0.000000000

ATOMIC_POSITIONS (angstrom)
Cu            0.0000000000        0.0000000000        0.0000000000



     Writing config-only to output data dir /home/gridsan/epan1/labutil/lab3_samples/problem3/Lab3/Cu_a_3.5_ecut_40_nk_7/pwscf.save/
     NEW-OLD atomic charge density approx. for the potential
     extrapolated charge   11.00215, renormalised to   11.00000
     Generating pointlists ...

     total cpu time spent up to now is        5.8 secs

     Self-consistent Calculation

     iteration #  1     ecut=    40.00 Ry     beta= 0.50
     Davidson diagonalization with overlap
     ethr =  1.00E-06,  avg # of iterations =  2.0

     Threshold (ethr) on eigenvalues was too large:
     Diagonalizing with lowered threshold

     Davidson diagonalization with overlap
     ethr =  2.74E-08,  avg # of iterations =  1.0

     total cpu time spent up to now is        6.1 secs

     total energy              =     -87.84653015 Ry
     estimated scf accuracy    <       0.00000303 Ry

     total magnetization       =     0.00 Bohr mag/cell
     absolute magnetization    =     0.00 Bohr mag/cell

     iteration #  2     ecut=    40.00 Ry     beta= 0.50
     Davidson diagonalization with overlap
     ethr =  2.76E-08,  avg # of iterations =  2.0

     total cpu time spent up to now is        6.2 secs

     total energy              =     -87.84653324 Ry
     estimated scf accuracy    <       0.00000499 Ry

     total magnetization       =     0.00 Bohr mag/cell
     absolute magnetization    =     0.00 Bohr mag/cell

     iteration #  3     ecut=    40.00 Ry     beta= 0.50
     Davidson diagonalization with overlap
     ethr =  2.76E-08,  avg # of iterations =  1.0

     total cpu time spent up to now is        6.3 secs

     total energy              =     -87.84653348 Ry
     estimated scf accuracy    <       0.00000086 Ry

     total magnetization       =     0.00 Bohr mag/cell
     absolute magnetization    =     0.00 Bohr mag/cell

     iteration #  4     ecut=    40.00 Ry     beta= 0.50
     Davidson diagonalization with overlap
     ethr =  7.82E-09,  avg # of iterations =  1.0

     total cpu time spent up to now is        6.4 secs

     total energy              =     -87.84653323 Ry
     estimated scf accuracy    <       0.00000061 Ry

     total magnetization       =     0.00 Bohr mag/cell
     absolute magnetization    =     0.00 Bohr mag/cell

     iteration #  5     ecut=    40.00 Ry     beta= 0.50
     Davidson diagonalization with overlap
     ethr =  5.52E-09,  avg # of iterations =  1.0

     total cpu time spent up to now is        6.5 secs

     total energy              =     -87.84653330 Ry
     estimated scf accuracy    <       0.00000002 Ry

     total magnetization       =     0.00 Bohr mag/cell
     absolute magnetization    =     0.00 Bohr mag/cell

     iteration #  6     ecut=    40.00 Ry     beta= 0.50
     Davidson diagonalization with overlap
     ethr =  1.47E-10,  avg # of iterations =  2.0

     total cpu time spent up to now is        6.6 secs

     total energy              =     -87.84653330 Ry
     estimated scf accuracy    <       0.00000002 Ry

     total magnetization       =     0.00 Bohr mag/cell
     absolute magnetization    =     0.00 Bohr mag/cell

     iteration #  7     ecut=    40.00 Ry     beta= 0.50
     Davidson diagonalization with overlap
     ethr =  1.47E-10,  avg # of iterations =  1.1

     Magnetic moment per site  (integrated on atomic sphere of radius R)
     atom   1 (R=0.412)  charge=  9.7351  magn=  0.0000

     total cpu time spent up to now is        6.7 secs

     End of self-consistent calculation

 ------ SPIN UP ------------


          k = 0.0000 0.0000 0.0000 (   331 PWs)   bands (ev):

     5.1119  11.3802  11.3802  11.3802  12.2825  12.2825  39.1702  41.3922
    41.3922  41.3922

          k = 0.0996 0.0996-0.0996 (   310 PWs)   bands (ev):

     5.8715  11.2337  11.5063  11.5063  12.2499  12.2499  33.5864  39.5155
    39.8488  39.8488

          k = 0.1992 0.1992-0.1992 (   305 PWs)   bands (ev):

     7.8373  11.1846  11.5230  11.5230  12.4714  12.4714  26.0466  38.4660
    38.4886  38.4886

          k = 0.2988 0.2988-0.2988 (   314 PWs)   bands (ev):

     9.1697  11.3699  11.3699  12.8437  12.8465  12.8465  20.1476  37.4631
    38.0157  38.0157

          k = 0.1992 0.0000 0.0000 (   307 PWs)   bands (ev):

     6.1200  11.0817  11.6347  11.6347  12.0243  12.3946  36.3990  36.3990
    36.7052  38.5277

          k = 0.2988 0.0996-0.0996 (   306 PWs)   bands (ev):

     7.6969  10.8264  11.5490  11.7951  12.3272  12.5892  28.9396  34.3855
    36.1019  37.8491

          k = 0.3984 0.1992-0.1992 (   307 PWs)   bands (ev):

     9.3732  11.0432  11.3549  11.6762  12.8939  13.7535  22.2901  33.5536
    33.9818  36.4908

          k =-0.1992-0.3984 0.3984 (   313 PWs)   bands (ev):

     9.6405  11.0884  11.5828  11.7546  12.8278  15.3939  19.2889  31.4572
    35.3639  36.9252

          k =-0.0996-0.2988 0.2988 (   311 PWs)   bands (ev):

     9.0090  11.0462  11.3181  11.6804  12.3487  13.4542  24.3508  30.8050
    38.4953  38.7619

          k =-0.0000-0.1992 0.1992 (   315 PWs)   bands (ev):

     7.0591  11.0056  11.5591  11.7340  12.0116  12.5952  31.1658  31.9294
    42.0203  42.4079

          k = 0.3984 0.0000 0.0000 (   311 PWs)   bands (ev):

     8.5504  10.4324  11.9480  12.2982  12.2982  12.6494  31.6214  31.6214
    31.9177  34.4029

          k = 0.4980 0.0996-0.0996 (   313 PWs)   bands (ev):

     9.5587  10.2612  11.8039  12.3427  12.9244  14.1670  25.7959  28.1487
    30.5957  35.0431

          k =-0.0996-0.4980 0.4980 (   304 PWs)   bands (ev):

    10.1068  10.4324  11.4458  12.1781  12.8710  17.8823  20.2436  25.5914
    31.5643  35.4526

          k = 0.0000-0.3984 0.3984 (   303 PWs)   bands (ev):

    10.2328  10.8062  10.9531  12.0108  12.4706  15.7566  23.0694  25.0498
    34.3614  36.7197

          k = 0.5976 0.0000 0.0000 (   322 PWs)   bands (ev):

     9.4086   9.9324  12.8566  12.9567  12.9567  14.9824  24.1570  28.8430
    28.8430  33.3535

          k = 0.0000-0.5976 0.5976 (   310 PWs)   bands (ev):

     9.6324  10.0102  12.3958  12.7121  12.9946  17.4497  22.5378  24.6566
    29.1986  34.5229

          k = 0.3984 0.1992 0.0000 (   313 PWs)   bands (ev):

     9.2295  10.5975  11.2432  12.2580  12.3034  13.5682  27.2117  28.1500
    32.9056  40.4043

          k =-0.1992-0.3984 0.5976 (   307 PWs)   bands (ev):

    10.1485  10.6676  11.0952  12.0483  12.7854  16.1688  21.3993  27.9703
    29.7932  40.4140

          k =-0.0996-0.4980 0.6972 (   311 PWs)   bands (ev):

     9.8656  10.2305  11.6980  12.5609  12.9544  16.8518  24.7504  24.9112
    26.2136  38.7807

          k = 0.0000-0.3984 0.5976 (   303 PWs)   bands (ev):

    10.2309  10.5377  11.1371  12.2674  12.9514  20.0678  20.5402  23.6237
    27.0549  40.4575

 ------ SPIN DOWN ----------


          k = 0.0000 0.0000 0.0000 (   331 PWs)   bands (ev):

     5.1119  11.3802  11.3802  11.3802  12.2825  12.2825  39.1702  41.3922
    41.3922  41.3922

          k = 0.0996 0.0996-0.0996 (   310 PWs)   bands (ev):

     5.8715  11.2337  11.5063  11.5063  12.2499  12.2499  33.5864  39.5155
    39.8488  39.8488

          k = 0.1992 0.1992-0.1992 (   305 PWs)   bands (ev):

     7.8373  11.1846  11.5230  11.5230  12.4714  12.4714  26.0466  38.4660
    38.4886  38.4886

          k = 0.2988 0.2988-0.2988 (   314 PWs)   bands (ev):

     9.1697  11.3699  11.3699  12.8437  12.8465  12.8465  20.1476  37.4631
    38.0157  38.0157

          k = 0.1992 0.0000 0.0000 (   307 PWs)   bands (ev):

     6.1200  11.0817  11.6347  11.6347  12.0243  12.3946  36.3990  36.3990
    36.7052  38.5277

          k = 0.2988 0.0996-0.0996 (   306 PWs)   bands (ev):

     7.6969  10.8264  11.5490  11.7951  12.3272  12.5892  28.9396  34.3855
    36.1019  37.8491

          k = 0.3984 0.1992-0.1992 (   307 PWs)   bands (ev):

     9.3732  11.0432  11.3549  11.6762  12.8939  13.7535  22.2901  33.5536
    33.9818  36.4908

          k =-0.1992-0.3984 0.3984 (   313 PWs)   bands (ev):

     9.6405  11.0884  11.5828  11.7546  12.8278  15.3939  19.2889  31.4572
    35.3639  36.9252

          k =-0.0996-0.2988 0.2988 (   311 PWs)   bands (ev):

     9.0090  11.0462  11.3181  11.6804  12.3487  13.4542  24.3508  30.8050
    38.4953  38.7619

          k =-0.0000-0.1992 0.1992 (   315 PWs)   bands (ev):

     7.0591  11.0056  11.5591  11.7340  12.0116  12.5952  31.1658  31.9294
    42.0203  42.4079

          k = 0.3984 0.0000 0.0000 (   311 PWs)   bands (ev):

     8.5504  10.4324  11.9480  12.2982  12.2982  12.6494  31.6214  31.6214
    31.9177  34.4029

          k = 0.4980 0.0996-0.0996 (   313 PWs)   bands (ev):

     9.5587  10.2612  11.8039  12.3427  12.9244  14.1670  25.7959  28.1487
    30.5957  35.0431

          k =-0.0996-0.4980 0.4980 (   304 PWs)   bands (ev):

    10.1068  10.4324  11.4458  12.1781  12.8710  17.8823  20.2436  25.5914
    31.5643  35.4526

          k = 0.0000-0.3984 0.3984 (   303 PWs)   bands (ev):

    10.2328  10.8062  10.9531  12.0108  12.4706  15.7566  23.0694  25.0498
    34.3614  36.7197

          k = 0.5976 0.0000 0.0000 (   322 PWs)   bands (ev):

     9.4086   9.9324  12.8566  12.9567  12.9567  14.9824  24.1570  28.8430
    28.8430  33.3535

          k = 0.0000-0.5976 0.5976 (   310 PWs)   bands (ev):

     9.6324  10.0102  12.3958  12.7121  12.9946  17.4497  22.5378  24.6566
    29.1986  34.5229

          k = 0.3984 0.1992 0.0000 (   313 PWs)   bands (ev):

     9.2295  10.5975  11.2432  12.2580  12.3034  13.5682  27.2117  28.1500
    32.9056  40.4043

          k =-0.1992-0.3984 0.5976 (   307 PWs)   bands (ev):

    10.1485  10.6676  11.0952  12.0483  12.7854  16.1688  21.3993  27.9703
    29.7932  40.4140

          k =-0.0996-0.4980 0.6972 (   311 PWs)   bands (ev):

     9.8656  10.2305  11.6980  12.5609  12.9544  16.8518  24.7504  24.9112
    26.2136  38.7807

          k = 0.0000-0.3984 0.5976 (   303 PWs)   bands (ev):

    10.2309  10.5377  11.1371  12.2674  12.9514  20.0678  20.5402  23.6237
    27.0549  40.4575

     the Fermi energy is    14.9927 ev

!    total energy              =     -87.84653330 Ry
     estimated scf accuracy    <          2.7E-10 Ry
     smearing contrib. (-TS)   =       0.00005382 Ry
     internal energy E=F+TS    =     -87.84658712 Ry

     The total energy is F=E-TS. E is the sum of the following terms:
     one-electron contribution =      -9.83677521 Ry
     hartree contribution      =      18.76168397 Ry
     xc contribution           =     -14.06371267 Ry
     ewald contribution        =     -82.70778321 Ry

     total magnetization       =     0.00 Bohr mag/cell
     absolute magnetization    =     0.00 Bohr mag/cell

     convergence has been achieved in   7 iterations

     Forces acting on atoms (cartesian axes, Ry/au):

     atom    1 type  1   force =     0.00000000    0.00000000    0.00000000
     The non-local contrib.  to forces
     atom    1 type  1   force =    -0.00000000    0.00000000    0.00000000
     The ionic contribution  to forces
     atom    1 type  1   force =    -0.00000000   -0.00000000   -0.00000000
     The local contribution  to forces
     atom    1 type  1   force =    -0.00000000   -0.00000000    0.00000000
     The core correction contribution to forces
     atom    1 type  1   force =     0.00000000    0.00000000    0.00000000
     The Hubbard contrib.    to forces
     atom    1 type  1   force =     0.00000000    0.00000000    0.00000000
     The SCF correction term to forces
     atom    1 type  1   force =    -0.00000000   -0.00000000    0.00000000

     Total force =     0.000000     Total SCF correction =     0.000000


     Computing stress (Cartesian axis) and pressure

          total   stress  (Ry/bohr**3)                   (kbar)     P=       -0.21
  -0.00000142  -0.00000000   0.00000000           -0.21       -0.00        0.00
  -0.00000000  -0.00000142   0.00000000           -0.00       -0.21        0.00
   0.00000000  -0.00000000  -0.00000142            0.00       -0.00       -0.21

     Energy error            =      3.4E-08 Ry
     Gradient error          =      0.0E+00 Ry/Bohr
     Cell gradient error     =      2.1E-01 kbar
Begin final coordinates
     new unit-cell volume =     75.44593 a.u.^3 (    11.17993 Ang^3 )
     density =      9.43839 g/cm^3

CELL_PARAMETERS (angstrom)
   0.000000000   1.774746802   1.774746802
   1.774746802   0.000000000   1.774746802
   1.774746802   1.774746802   0.000000000

ATOMIC_POSITIONS (angstrom)
Cu            0.0000000000        0.0000000000        0.0000000000
End final coordinates



     Writing config-only to output data dir /home/gridsan/epan1/labutil/lab3_samples/problem3/Lab3/Cu_a_3.5_ecut_40_nk_7/pwscf.save/

     lsda relaxation :  a final configuration with zero
                        absolute magnetization has been found

     the program is checking if it is really the minimum energy structure
     by performing a new scf iteration without any "electronic" history

     Initial potential from superposition of free atoms

     starting charge      10.9997, renormalised to      11.0000

     total cpu time spent up to now is        6.9 secs

     Self-consistent Calculation

     iteration #  1     ecut=    40.00 Ry     beta= 0.50
     Davidson diagonalization with overlap
     ethr =  1.00E-06,  avg # of iterations =  4.1

     total cpu time spent up to now is        7.1 secs

     total energy              =     -86.88747999 Ry
     estimated scf accuracy    <       1.52033463 Ry

     total magnetization       =     1.93 Bohr mag/cell
     absolute magnetization    =     1.99 Bohr mag/cell

     iteration #  2     ecut=    40.00 Ry     beta= 0.50
     Davidson diagonalization with overlap
     ethr =  1.00E-02,  avg # of iterations =  1.6

     total cpu time spent up to now is        7.2 secs

     total energy              =     -87.59992523 Ry
     estimated scf accuracy    <       0.83996524 Ry

     total magnetization       =     0.28 Bohr mag/cell
     absolute magnetization    =     0.49 Bohr mag/cell

     iteration #  3     ecut=    40.00 Ry     beta= 0.50
     Davidson diagonalization with overlap
     ethr =  7.64E-03,  avg # of iterations =  1.0

     negative rho (up, down):  0.000E+00 9.387E-07

     total cpu time spent up to now is        7.3 secs

     total energy              =     -87.78801163 Ry
     estimated scf accuracy    <       0.24128837 Ry

     total magnetization       =     0.32 Bohr mag/cell
     absolute magnetization    =     0.51 Bohr mag/cell

     iteration #  4     ecut=    40.00 Ry     beta= 0.50
     Davidson diagonalization with overlap
     ethr =  2.19E-03,  avg # of iterations =  1.5

     negative rho (up, down):  0.000E+00 1.795E-07

     total cpu time spent up to now is        7.4 secs

     total energy              =     -87.82928713 Ry
     estimated scf accuracy    <       0.05917909 Ry

     total magnetization       =    -0.02 Bohr mag/cell
     absolute magnetization    =     0.06 Bohr mag/cell

     iteration #  5     ecut=    40.00 Ry     beta= 0.50
     Davidson diagonalization with overlap
     ethr =  5.38E-04,  avg # of iterations =  1.2

     total cpu time spent up to now is        7.5 secs

     total energy              =     -87.84508326 Ry
     estimated scf accuracy    <       0.00307173 Ry

     total magnetization       =    -0.01 Bohr mag/cell
     absolute magnetization    =     0.01 Bohr mag/cell

     iteration #  6     ecut=    40.00 Ry     beta= 0.50
     Davidson diagonalization with overlap
     ethr =  2.79E-05,  avg # of iterations =  1.3

     total cpu time spent up to now is        7.6 secs

     total energy              =     -87.84640842 Ry
     estimated scf accuracy    <       0.00074879 Ry

     total magnetization       =     0.00 Bohr mag/cell
     absolute magnetization    =     0.05 Bohr mag/cell

     iteration #  7     ecut=    40.00 Ry     beta= 0.50
     Davidson diagonalization with overlap
     ethr =  6.81E-06,  avg # of iterations =  1.1

     total cpu time spent up to now is        7.7 secs

     total energy              =     -87.84653093 Ry
     estimated scf accuracy    <       0.00002411 Ry

     total magnetization       =    -0.00 Bohr mag/cell
     absolute magnetization    =     0.00 Bohr mag/cell

     iteration #  8     ecut=    40.00 Ry     beta= 0.50
     Davidson diagonalization with overlap
     ethr =  2.19E-07,  avg # of iterations =  1.2

     total cpu time spent up to now is        7.8 secs

     total energy              =     -87.84653223 Ry
     estimated scf accuracy    <       0.00000440 Ry

     total magnetization       =    -0.00 Bohr mag/cell
     absolute magnetization    =     0.00 Bohr mag/cell

     iteration #  9     ecut=    40.00 Ry     beta= 0.50
     Davidson diagonalization with overlap
     ethr =  4.00E-08,  avg # of iterations =  1.4

     total cpu time spent up to now is        8.0 secs

     total energy              =     -87.84653329 Ry
     estimated scf accuracy    <       0.00000004 Ry

     total magnetization       =    -0.00 Bohr mag/cell
     absolute magnetization    =     0.00 Bohr mag/cell

     iteration # 10     ecut=    40.00 Ry     beta= 0.50
     Davidson diagonalization with overlap
     ethr =  3.48E-10,  avg # of iterations =  1.7

     total cpu time spent up to now is        8.1 secs

     total energy              =     -87.84653330 Ry
     estimated scf accuracy    <          2.2E-09 Ry

     total magnetization       =     0.00 Bohr mag/cell
     absolute magnetization    =     0.00 Bohr mag/cell

     iteration # 11     ecut=    40.00 Ry     beta= 0.50
     Davidson diagonalization with overlap
     ethr =  2.03E-11,  avg # of iterations =  1.7

     total cpu time spent up to now is        8.2 secs

     total energy              =     -87.84653330 Ry
     estimated scf accuracy    <          5.4E-09 Ry

     total magnetization       =     0.00 Bohr mag/cell
     absolute magnetization    =     0.00 Bohr mag/cell

     iteration # 12     ecut=    40.00 Ry     beta= 0.50
     Davidson diagonalization with overlap
     ethr =  2.03E-11,  avg # of iterations =  1.6

     Magnetic moment per site  (integrated on atomic sphere of radius R)
     atom   1 (R=0.412)  charge=  9.7351  magn=  0.0000

     total cpu time spent up to now is        8.3 secs

     End of self-consistent calculation

 ------ SPIN UP ------------


          k = 0.0000 0.0000 0.0000 (   331 PWs)   bands (ev):

     5.1119  11.3801  11.3801  11.3801  12.2824  12.2824  39.1702  41.3922
    41.3922  41.3922

          k = 0.0996 0.0996-0.0996 (   310 PWs)   bands (ev):

[...]
Begin final coordinates
     new unit-cell volume =     75.44593 a.u.^3 (    11.17993 Ang^3 )
     density =      9.43839 g/cm^3

CELL_PARAMETERS (angstrom)
   0.000000000   1.774746802   1.774746802
   1.774746802   0.000000000   1.774746802
   1.774746802   1.774746802   0.000000000

ATOMIC_POSITIONS (angstrom)
Cu            0.0000000000        0.0000000000        0.0000000000
End final coordinates



     Writing config-only to output data dir /home/gridsan/epan1/labutil/lab3_samples/problem3/Lab3/Cu_a_3.5_ecut_40_nk_7/pwscf.save/

     Final scf calculation at the relaxed structure.
     The G-vectors are recalculated for the final unit cell
     Results may differ from those at the preceding step.

     Parallelization info
     --------------------
     sticks:   dense  smooth     PW     G-vecs:    dense   smooth      PW
     Min          62      31     10                  922      329      65
     Max          63      32     11                  926      331      68
     Sum         499     253     85                 7391     2637     531

     Using Slab Decomposition



     bravais-lattice index     =            0
     lattice parameter (alat)  =       4.6768  a.u.
     unit-cell volume          =      75.4459 (a.u.)^3
     number of atoms/cell      =            1
     number of atomic types    =            1
     number of electrons       =        11.00
     number of Kohn-Sham states=           10
     kinetic-energy cutoff     =      40.0000  Ry
     charge density cutoff     =     320.0000  Ry
     scf convergence threshold =      1.0E-09
     mixing beta               =       0.5000
     number of iterations used =            8  plain     mixing
     press convergence thresh. =      5.0E-01
     Exchange-correlation=  SLA  PZ   NOGX NOGC
                           (   1   1   0   0   0   0   0)

     celldm(1)=   4.676834  celldm(2)=   0.000000  celldm(3)=   0.000000
     celldm(4)=   0.000000  celldm(5)=   0.000000  celldm(6)=   0.000000

     crystal axes: (cart. coord. in units of alat)
               a(1) = (   0.000000   0.717106   0.717106 )  
               a(2) = (   0.717106   0.000000   0.717106 )  
               a(3) = (   0.717106   0.717106   0.000000 )  

     reciprocal axes: (cart. coord. in units 2 pi/alat)
               b(1) = ( -0.697247  0.697247  0.697247 )  
               b(2) = (  0.697247 -0.697247  0.697247 )  
               b(3) = (  0.697247  0.697247 -0.697247 )  


     PseudoPot. # 1 for Cu read from file:
     /home/gridsan/epan1/labutil/lab3_samples/pseudopotentials/Cu.pz-d-rrkjus.UPF
     MD5 check sum: fd38ae683e239c95a66f426e1f8e5fc7
     Pseudo is Ultrasoft, Zval = 11.0
     Generated by new atomic code, or converted to UPF format
     Using radial grid of  899 points,  3 beta functions with: 
                l(1) =   2
                l(2) =   2
                l(3) =   1
     Q(r) pseudized with 0 coefficients 


     atomic species   valence    mass     pseudopotential
        Cu            11.00    63.54600     Cu( 1.00)

     Starting magnetic structure 
     atomic species   magnetization
        Cu           0.000

     48 Sym. Ops., with inversion, found



   Cartesian axes

     site n.     atom                  positions (alat units)
         1           Cu  tau(   1) = (   0.0000000   0.0000000   0.0000000  )

     number of k points=    20  Methfessel-Paxton smearing, width (Ry)=  0.0200
                       cart. coord. in units 2pi/alat
        k(    1) = (   0.0000000   0.0000000   0.0000000), wk =   0.0029155
        k(    2) = (   0.0996067   0.0996067  -0.0996067), wk =   0.0233236
        k(    3) = (   0.1992134   0.1992134  -0.1992134), wk =   0.0233236
        k(    4) = (   0.2988201   0.2988201  -0.2988201), wk =   0.0233236
        k(    5) = (   0.1992134   0.0000000   0.0000000), wk =   0.0174927
        k(    6) = (   0.2988201   0.0996067  -0.0996067), wk =   0.0699708
        k(    7) = (   0.3984269   0.1992134  -0.1992134), wk =   0.0699708
        k(    8) = (  -0.1992134  -0.3984269   0.3984269), wk =   0.0699708
        k(    9) = (  -0.0996067  -0.2988201   0.2988201), wk =   0.0699708
        k(   10) = (  -0.0000000  -0.1992134   0.1992134), wk =   0.0349854
        k(   11) = (   0.3984269   0.0000000   0.0000000), wk =   0.0174927
        k(   12) = (   0.4980336   0.0996067  -0.0996067), wk =   0.0699708
        k(   13) = (  -0.0996067  -0.4980336   0.4980336), wk =   0.0699708
        k(   14) = (   0.0000000  -0.3984269   0.3984269), wk =   0.0349854
        k(   15) = (   0.5976403   0.0000000   0.0000000), wk =   0.0174927
        k(   16) = (   0.0000000  -0.5976403   0.5976403), wk =   0.0349854
        k(   17) = (   0.3984269   0.1992134   0.0000000), wk =   0.0699708
        k(   18) = (  -0.1992134  -0.3984269   0.5976403), wk =   0.1399417
        k(   19) = (  -0.0996067  -0.4980336   0.6972470), wk =   0.0699708
        k(   20) = (   0.0000000  -0.3984269   0.5976403), wk =   0.0699708

     Dense  grid:     7391 G-vectors     FFT dimensions: (  27,  27,  27)

     Smooth grid:     2637 G-vectors     FFT dimensions: (  20,  20,  20)

     Estimated max dynamical RAM per process >       3.78 MB

     Estimated total dynamical RAM >      30.26 MB
     Generating pointlists ...

     Initial potential from superposition of free atoms

     starting charge      10.9997, renormalised to      11.0000
     Starting wfcs are    6 randomized atomic wfcs +    4 random wfcs

     total cpu time spent up to now is        8.6 secs

     Self-consistent Calculation

     iteration #  1     ecut=    40.00 Ry     beta= 0.50
     Davidson diagonalization with overlap
     c_bands:  1 eigenvalues not converged
     c_bands:  1 eigenvalues not converged
     c_bands:  1 eigenvalues not converged
     ethr =  1.00E-06,  avg # of iterations = 13.1

     total cpu time spent up to now is        9.0 secs

     total energy              =     -87.76562198 Ry
     estimated scf accuracy    <       0.24317288 Ry

     total magnetization       =     0.00 Bohr mag/cell
     absolute magnetization    =     0.00 Bohr mag/cell

     iteration #  2     ecut=    40.00 Ry     beta= 0.50
     Davidson diagonalization with overlap
     ethr =  2.21E-03,  avg # of iterations =  1.6

     total cpu time spent up to now is        9.1 secs

     total energy              =     -87.84002030 Ry
     estimated scf accuracy    <       0.03841776 Ry

     total magnetization       =     0.00 Bohr mag/cell
     absolute magnetization    =     0.00 Bohr mag/cell

     iteration #  3     ecut=    40.00 Ry     beta= 0.50
     Davidson diagonalization with overlap
     ethr =  3.49E-04,  avg # of iterations =  1.0

     total cpu time spent up to now is        9.2 secs

     total energy              =     -87.84645305 Ry
     estimated scf accuracy    <       0.00023559 Ry

     total magnetization       =     0.00 Bohr mag/cell
     absolute magnetization    =     0.00 Bohr mag/cell

     iteration #  4     ecut=    40.00 Ry     beta= 0.50
     Davidson diagonalization with overlap
     ethr =  2.14E-06,  avg # of iterations =  2.2

     total cpu time spent up to now is        9.5 secs

     total energy              =     -87.84653569 Ry
     estimated scf accuracy    <       0.00007597 Ry

     total magnetization       =     0.00 Bohr mag/cell
     absolute magnetization    =     0.00 Bohr mag/cell

     iteration #  5     ecut=    40.00 Ry     beta= 0.50
     Davidson diagonalization with overlap
     ethr =  6.91E-07,  avg # of iterations =  1.0

     total cpu time spent up to now is        9.7 secs

     total energy              =     -87.84654685 Ry
     estimated scf accuracy    <       0.00000051 Ry

     total magnetization       =     0.00 Bohr mag/cell
     absolute magnetization    =     0.00 Bohr mag/cell

     iteration #  6     ecut=    40.00 Ry     beta= 0.50
     Davidson diagonalization with overlap
     ethr =  4.68E-09,  avg # of iterations =  2.0

     total cpu time spent up to now is        9.9 secs

     total energy              =     -87.84654703 Ry
     estimated scf accuracy    <       0.00000003 Ry

     total magnetization       =    -0.00 Bohr mag/cell
     absolute magnetization    =     0.00 Bohr mag/cell

     iteration #  7     ecut=    40.00 Ry     beta= 0.50
     Davidson diagonalization with overlap
     ethr =  2.61E-10,  avg # of iterations =  1.1

     total cpu time spent up to now is       10.0 secs

     total energy              =     -87.84654704 Ry
     estimated scf accuracy    <          1.0E-09 Ry

     total magnetization       =    -0.00 Bohr mag/cell
     absolute magnetization    =     0.00 Bohr mag/cell

     iteration #  8     ecut=    40.00 Ry     beta= 0.50
     Davidson diagonalization with overlap
     ethr =  9.39E-12,  avg # of iterations =  1.8

     Magnetic moment per site  (integrated on atomic sphere of radius R)
     atom   1 (R=0.412)  charge=  9.7352  magn=  0.0000

     total cpu time spent up to now is       10.1 secs

     End of self-consistent calculation

 ------ SPIN UP ------------


          k = 0.0000 0.0000 0.0000 (   331 PWs)   bands (ev):

     5.1119  11.3800  11.3800  11.3800  12.2823  12.2823  39.1702  41.3922
    41.3922  41.3922

          k = 0.0996 0.0996-0.0996 (   320 PWs)   bands (ev):

     5.8715  11.2335  11.5061  11.5061  12.2497  12.2497  33.5863  39.5155
    39.8485  39.8485

          k = 0.1992 0.1992-0.1992 (   317 PWs)   bands (ev):

     7.8372  11.1844  11.5229  11.5229  12.4712  12.4712  26.0465  38.4660
    38.4885  38.4885

          k = 0.2988 0.2988-0.2988 (   329 PWs)   bands (ev):

     9.1696  11.3697  11.3697  12.8437  12.8463  12.8463  20.1475  37.4631
    38.0156  38.0156

          k = 0.1992 0.0000 0.0000 (   323 PWs)   bands (ev):

     6.1200  11.0815  11.6345  11.6345  12.0242  12.3944  36.3987  36.3987
    36.7049  38.5277

          k = 0.2988 0.0996-0.0996 (   321 PWs)   bands (ev):

     7.6969  10.8262  11.5488  11.7949  12.3270  12.5891  28.9395  34.3853
    36.1016  37.8488

          k = 0.3984 0.1992-0.1992 (   321 PWs)   bands (ev):

     9.3731  11.0430  11.3547  11.6760  12.8937  13.7534  22.2900  33.5534
    33.9817  36.4906

          k =-0.1992-0.3984 0.3984 (   325 PWs)   bands (ev):

     9.6403  11.0882  11.5827  11.7544  12.8276  15.3939  19.2888  31.4571
    35.3638  36.9252

          k =-0.0996-0.2988 0.2988 (   319 PWs)   bands (ev):

     9.0090  11.0461  11.3179  11.6802  12.3485  13.4540  24.3508  30.8050
    38.4951  38.7619

          k =-0.0000-0.1992 0.1992 (   319 PWs)   bands (ev):

     7.0591  11.0054  11.5590  11.7339  12.0114  12.5950  31.1658  31.9294
    42.0202  42.4080

          k = 0.3984 0.0000 0.0000 (   315 PWs)   bands (ev):

     8.5504  10.4322  11.9479  12.2980  12.2980  12.6492  31.6214  31.6214
    31.9177  34.4029

          k = 0.4980 0.0996-0.0996 (   327 PWs)   bands (ev):

     9.5586  10.2611  11.8038  12.3425  12.9242  14.1669  25.7959  28.1486
    30.5957  35.0430

          k =-0.0996-0.4980 0.4980 (   320 PWs)   bands (ev):

    10.1067  10.4323  11.4456  12.1779  12.8708  17.8822  20.2435  25.5913
    31.5642  35.4525

          k = 0.0000-0.3984 0.3984 (   325 PWs)   bands (ev):

    10.2327  10.8061  10.9529  12.0106  12.4704  15.7565  23.0693  25.0497
    34.3612  36.7195

          k = 0.5976 0.0000 0.0000 (   322 PWs)   bands (ev):

     9.4085   9.9323  12.8564  12.9565  12.9565  14.9824  24.1569  28.8430
    28.8430  33.3534

          k = 0.0000-0.5976 0.5976 (   322 PWs)   bands (ev):

     9.6322  10.0100  12.3956  12.7119  12.9944  17.4496  22.5376  24.6566
    29.1986  34.5228

          k = 0.3984 0.1992 0.0000 (   324 PWs)   bands (ev):

     9.2294  10.5973  11.2430  12.2578  12.3032  13.5680  27.2117  28.1500
    32.9056  40.4041

          k =-0.1992-0.3984 0.5976 (   327 PWs)   bands (ev):

    10.1483  10.6674  11.0951  12.0481  12.7852  16.1687  21.3992  27.9702
    29.7930  40.4139

          k =-0.0996-0.4980 0.6972 (   322 PWs)   bands (ev):

     9.8654  10.2304  11.6978  12.5608  12.9542  16.8518  24.7504  24.9112
    26.2136  38.7806

          k = 0.0000-0.3984 0.5976 (   319 PWs)   bands (ev):

    10.2307  10.5375  11.1369  12.2672  12.9512  20.0677  20.5401  23.6236
    27.0549  40.4573

 ------ SPIN DOWN ----------


          k = 0.0000 0.0000 0.0000 (   331 PWs)   bands (ev):

     5.1119  11.3800  11.3800  11.3800  12.2823  12.2823  39.1702  41.3922
    41.3922  41.3922

          k = 0.0996 0.0996-0.0996 (   320 PWs)   bands (ev):

     5.8715  11.2335  11.5061  11.5061  12.2497  12.2497  33.5863  39.5155
    39.8485  39.8485

          k = 0.1992 0.1992-0.1992 (   317 PWs)   bands (ev):

     7.8372  11.1844  11.5229  11.5229  12.4712  12.4712  26.0465  38.4660
    38.4885  38.4885

          k = 0.2988 0.2988-0.2988 (   329 PWs)   bands (ev):

     9.1696  11.3697  11.3697  12.8437  12.8463  12.8463  20.1475  37.4631
    38.0156  38.0156

          k = 0.1992 0.0000 0.0000 (   323 PWs)   bands (ev):

     6.1200  11.0815  11.6345  11.6345  12.0242  12.3944  36.3987  36.3987
    36.7049  38.5277

          k = 0.2988 0.0996-0.0996 (   321 PWs)   bands (ev):

     7.6969  10.8262  11.5488  11.7949  12.3270  12.5891  28.9395  34.3853
    36.1016  37.8488

          k = 0.3984 0.1992-0.1992 (   321 PWs)   bands (ev):

     9.3731  11.0430  11.3547  11.6760  12.8937  13.7534  22.2900  33.5534
    33.9817  36.4906

          k =-0.1992-0.3984 0.3984 (   325 PWs)   bands (ev):

     9.6403  11.0882  11.5827  11.7544  12.8276  15.3939  19.2888  31.4571
    35.3638  36.9252

          k =-0.0996-0.2988 0.2988 (   319 PWs)   bands (ev):

     9.0090  11.0461  11.3179  11.6802  12.3485  13.4540  24.3508  30.8050
    38.4951  38.7619

          k =-0.0000-0.1992 0.1992 (   319 PWs)   bands (ev):

     7.0591  11.0054  11.5590  11.7339  12.0114  12.5950  31.1658  31.9294
    42.0202  42.4080

          k = 0.3984 0.0000 0.0000 (   315 PWs)   bands (ev):

     8.5504  10.4322  11.9479  12.2980  12.2980  12.6492  31.6214  31.6214
    31.9177  34.4029

          k = 0.4980 0.0996-0.0996 (   327 PWs)   bands (ev):

     9.5586  10.2611  11.8038  12.3425  12.9242  14.1669  25.7959  28.1486
    30.5957  35.0430

          k =-0.0996-0.4980 0.4980 (   320 PWs)   bands (ev):

    10.1067  10.4323  11.4456  12.1779  12.8708  17.8822  20.2435  25.5913
    31.5642  35.4525

          k = 0.0000-0.3984 0.3984 (   325 PWs)   bands (ev):

    10.2327  10.8061  10.9529  12.0106  12.4704  15.7565  23.0693  25.0497
    34.3612  36.7195

          k = 0.5976 0.0000 0.0000 (   322 PWs)   bands (ev):

     9.4085   9.9323  12.8564  12.9565  12.9565  14.9824  24.1569  28.8430
    28.8430  33.3534

          k = 0.0000-0.5976 0.5976 (   322 PWs)   bands (ev):

     9.6322  10.0100  12.3956  12.7119  12.9944  17.4496  22.5376  24.6566
    29.1986  34.5228

          k = 0.3984 0.1992 0.0000 (   324 PWs)   bands (ev):

     9.2294  10.5973  11.2430  12.2578  12.3032  13.5680  27.2117  28.1500
    32.9056  40.4041

          k =-0.1992-0.3984 0.5976 (   327 PWs)   bands (ev):

    10.1483  10.6674  11.0951  12.0481  12.7852  16.1687  21.3992  27.9702
    29.7930  40.4139

          k =-0.0996-0.4980 0.6972 (   322 PWs)   bands (ev):

     9.8654  10.2304  11.6978  12.5608  12.9542  16.8518  24.7504  24.9112
    26.2136  38.7806

          k = 0.0000-0.3984 0.5976 (   319 PWs)   bands (ev):

    10.2307  10.5375  11.1369  12.2672  12.9512  20.0677  20.5401  23.6236
    27.0549  40.4573

     the Fermi energy is    14.9927 ev

!    total energy              =     -87.84654704 Ry
     estimated scf accuracy    <          2.2E-12 Ry
     smearing contrib. (-TS)   =       0.00005386 Ry
     internal energy E=F+TS    =     -87.84660090 Ry

     The total energy is F=E-TS. E is the sum of the following terms:
     one-electron contribution =      -9.83680372 Ry
     hartree contribution      =      18.76168614 Ry
     xc contribution           =     -14.06370010 Ry
     ewald contribution        =     -82.70778321 Ry

     total magnetization       =    -0.00 Bohr mag/cell
     absolute magnetization    =     0.00 Bohr mag/cell

     convergence has been achieved in   8 iterations

     Forces acting on atoms (cartesian axes, Ry/au):

     atom    1 type  1   force =     0.00000000    0.00000000    0.00000000
     The non-local contrib.  to forces
     atom    1 type  1   force =     0.00000000    0.00000000   -0.00000000
     The ionic contribution  to forces
     atom    1 type  1   force =    -0.00000000   -0.00000000   -0.00000000
     The local contribution  to forces
     atom    1 type  1   force =     0.00000000   -0.00000000   -0.00000000
     The core correction contribution to forces
     atom    1 type  1   force =     0.00000000    0.00000000    0.00000000
     The Hubbard contrib.    to forces
     atom    1 type  1   force =     0.00000000    0.00000000    0.00000000
     The SCF correction term to forces
     atom    1 type  1   force =    -0.00000000   -0.00000000    0.00000000

     Total force =     0.000000     Total SCF correction =     0.000000


     Computing stress (Cartesian axis) and pressure

          total   stress  (Ry/bohr**3)                   (kbar)     P=        0.24
   0.00000164   0.00000000   0.00000000            0.24        0.00        0.00
   0.00000000   0.00000164   0.00000000            0.00        0.24        0.00
   0.00000000   0.00000000   0.00000164            0.00        0.00        0.24


     init_run     :      0.41s CPU      0.40s WALL (       2 calls)
     electrons    :      8.73s CPU      8.68s WALL (       7 calls)
     update_pot   :      0.20s CPU      0.16s WALL (       4 calls)
     forces       :      0.25s CPU      0.21s WALL (       7 calls)
     stress       :      0.56s CPU      0.51s WALL (       7 calls)

     Called by init_run:
     wfcinit      :      0.06s CPU      0.06s WALL (       2 calls)
     potinit      :      0.15s CPU      0.15s WALL (       3 calls)
     hinit0       :      0.21s CPU      0.18s WALL (       2 calls)

     Called by electrons:
     c_bands      :      7.12s CPU      7.25s WALL (      67 calls)
     sum_band     :      1.21s CPU      1.07s WALL (      67 calls)
     v_of_rho     :      0.11s CPU      0.10s WALL (      73 calls)
     newd         :      0.16s CPU      0.13s WALL (      73 calls)
     mix_rho      :      0.07s CPU      0.06s WALL (      67 calls)

     Called by c_bands:
     init_us_2    :      0.15s CPU      0.14s WALL (    6000 calls)
     init_us_2:cp :      0.14s CPU      0.13s WALL (    6000 calls)
     cegterg      :      5.97s CPU      5.68s WALL (    2680 calls)

     Called by *egterg:
     cdiaghg      :      1.39s CPU      1.33s WALL (    7345 calls)
     h_psi        :      3.46s CPU      3.30s WALL (    7665 calls)
     s_psi        :      0.06s CPU      0.05s WALL (    7665 calls)
     g_psi        :      0.02s CPU      0.02s WALL (    4905 calls)

     Called by h_psi:
     h_psi:calbec :      0.33s CPU      0.32s WALL (    7665 calls)
     vloc_psi     :      3.02s CPU      2.88s WALL (    7665 calls)
     add_vuspsi   :      0.06s CPU      0.06s WALL (    7665 calls)

     General routines
     calbec       :      0.53s CPU      0.49s WALL (   11745 calls)
     fft          :      0.17s CPU      0.15s WALL (     815 calls)
     ffts         :      0.13s CPU      0.12s WALL (     280 calls)
     fftw         :      3.06s CPU      2.88s WALL (  156480 calls)
     interpolate  :      0.14s CPU      0.14s WALL (     146 calls)

     Parallel routines

     PWSCF        :     10.37s CPU     10.32s WALL


   This run was terminated on:  10:53:37   3Nov2023            

=------------------------------------------------------------------------------=
   JOB DONE.
=------------------------------------------------------------------------------=
