
     Program PWSCF v.7.2 starts on  1Nov2023 at 16:59:25 

     This program is part of the open-source Quantum ESPRESSO suite
     for quantum simulation of materials; please cite
         "P. Giannozzi et al., J. Phys.:Condens. Matter 21 395502 (2009);
         "P. Giannozzi et al., J. Phys.:Condens. Matter 29 465901 (2017);
         "P. Giannozzi et al., J. Chem. Phys. 152 154105 (2020);
          URL http://www.quantum-espresso.org", 
     in publications or presentations arising from this work. More details at
     http://www.quantum-espresso.org/quote

     Parallel version (MPI), running on     4 processors

     MPI processes distributed on     4 nodes
     186632 MiB available memory on the printing compute node when the environment starts

     Waiting for input...
     Reading input from standard input
Warning: card &CELL ignored
Warning: card / ignored

     Current dimensions of program PWSCF are:
     Max number of different atomic species (ntypx) = 10
     Max number of k-points (npk) =  40000
     Max angular momentum in pseudopotentials (lmaxx) =  4
     file Fe.pbe-nd-rrkjus.UPF: wavefunction(s)  4S renormalized
     Message from routine setup:
     using ibrav=0 with symmetry is DISCOURAGED, use correct ibrav instead

     R & G space division:  proc/nbgrp/npool/nimage =       4
     Subspace diagonalization in iterative solution of the eigenvalue problem:
     a serial algorithm will be used


     Parallelization info
     --------------------
     sticks:   dense  smooth     PW     G-vecs:    dense   smooth      PW
     Min         139      69     29                 2097      724     197
     Max         140      70     30                 2099      726     199
     Sum         557     277    117                 8391     2899     791

     Using Slab Decomposition



     bravais-lattice index     =            0
     lattice parameter (alat)  =       5.5643  a.u.
     unit-cell volume          =     132.6183 (a.u.)^3
     number of atoms/cell      =            1
     number of atomic types    =            1
     number of electrons       =         8.00
     number of Kohn-Sham states=            8
     kinetic-energy cutoff     =      30.0000  Ry
     charge density cutoff     =     240.0000  Ry
     scf convergence threshold =      1.0E-07
     mixing beta               =       0.5000
     number of iterations used =            8  plain     mixing
     Exchange-correlation=  SLA  PW   PBE  PBE
                           (   1   4   3   4   0   0   0)

     celldm(1)=   5.564273  celldm(2)=   0.000000  celldm(3)=   0.000000
     celldm(4)=   0.000000  celldm(5)=   0.000000  celldm(6)=   0.000000

     crystal axes: (cart. coord. in units of alat)
               a(1) = (  -0.577350   0.577350   0.577350 )  
               a(2) = (   0.577350  -0.577350   0.577350 )  
               a(3) = (   0.577350   0.577350  -0.577350 )  

     reciprocal axes: (cart. coord. in units 2 pi/alat)
               b(1) = (  0.000000  0.866025  0.866025 )  
               b(2) = (  0.866025  0.000000  0.866025 )  
               b(3) = (  0.866025  0.866025  0.000000 )  


     PseudoPot. # 1 for Fe read from file:
     /home/gridsan/epan1/labutil/lab3_samples/pseudopotentials/Fe.pbe-nd-rrkjus.UPF
     MD5 check sum: 398036227a04b607635f6f5e8dfd8242
     Pseudo is Ultrasoft + core correction, Zval =  8.0
     Generated by new atomic code, or converted to UPF format
     Using radial grid of  957 points,  6 beta functions with: 
                l(1) =   0
                l(2) =   0
                l(3) =   1
                l(4) =   1
                l(5) =   2
                l(6) =   2
     Q(r) pseudized with 0 coefficients 


     atomic species   valence    mass     pseudopotential
        Fe             8.00    55.84500     Fe( 1.00)

     Starting magnetic structure 
     atomic species   magnetization
        Fe           0.700

     48 Sym. Ops., with inversion, found



   Cartesian axes

     site n.     atom                  positions (alat units)
         1           Fe  tau(   1) = (   0.0000000   0.0000000   0.0000000  )

     number of k points=    47  Methfessel-Paxton smearing, width (Ry)=  0.0200
                       cart. coord. in units 2pi/alat
        k(    1) = (   0.0000000   0.0000000   0.0000000), wk =   0.0010000
        k(    2) = (   0.0866025   0.0866025   0.0000000), wk =   0.0120000
        k(    3) = (   0.1732051   0.1732051   0.0000000), wk =   0.0120000
        k(    4) = (   0.2598076   0.2598076   0.0000000), wk =   0.0120000
        k(    5) = (   0.3464102   0.3464102   0.0000000), wk =   0.0120000
        k(    6) = (  -0.4330127  -0.4330127   0.0000000), wk =   0.0060000
        k(    7) = (   0.1732051   0.0866025   0.0866025), wk =   0.0240000
        k(    8) = (   0.2598076   0.1732051   0.0866025), wk =   0.0480000
        k(    9) = (   0.3464102   0.2598076   0.0866025), wk =   0.0480000
        k(   10) = (   0.4330127   0.3464102   0.0866025), wk =   0.0480000
        k(   11) = (   0.3464102   0.1732051   0.1732051), wk =   0.0240000
        k(   12) = (   0.4330127   0.2598076   0.1732051), wk =   0.0480000
        k(   13) = (   0.5196152   0.3464102   0.1732051), wk =   0.0240000
        k(   14) = (   0.5196152   0.2598076   0.2598076), wk =   0.0240000
        k(   15) = (   0.1732051   0.1732051   0.1732051), wk =   0.0080000
        k(   16) = (   0.2598076   0.2598076   0.1732051), wk =   0.0240000
        k(   17) = (   0.3464102   0.3464102   0.1732051), wk =   0.0240000
        k(   18) = (   0.4330127   0.4330127   0.1732051), wk =   0.0120000
        k(   19) = (   0.0000000   0.0000000   0.1732051), wk =   0.0060000
        k(   20) = (   0.3464102   0.2598076   0.2598076), wk =   0.0240000
        k(   21) = (   0.4330127   0.3464102   0.2598076), wk =   0.0480000
        k(   22) = (   0.0000000  -0.0866025   0.2598076), wk =   0.0240000
        k(   23) = (   0.5196152   0.3464102   0.3464102), wk =   0.0080000
        k(   24) = (  -0.0000000  -0.1732051   0.3464102), wk =   0.0240000
        k(   25) = (   0.0866025  -0.0866025   0.3464102), wk =   0.0240000
        k(   26) = (   0.0000000  -0.2598076   0.4330127), wk =   0.0240000
        k(   27) = (   0.0866025  -0.1732051   0.4330127), wk =   0.0480000
        k(   28) = (  -0.8660254  -0.3464102  -0.3464102), wk =   0.0120000
        k(   29) = (  -0.7794229  -0.2598076  -0.3464102), wk =   0.0480000
        k(   30) = (  -0.6928203  -0.1732051  -0.3464102), wk =   0.0240000
        k(   31) = (  -0.6928203  -0.2598076  -0.2598076), wk =   0.0240000
        k(   32) = (   0.3464102   0.3464102   0.3464102), wk =   0.0080000
        k(   33) = (   0.4330127   0.4330127   0.3464102), wk =   0.0120000
        k(   34) = (   0.0000000   0.0000000   0.3464102), wk =   0.0060000
        k(   35) = (  -0.0000000  -0.0866025   0.4330127), wk =   0.0240000
        k(   36) = (   0.0000000  -0.1732051   0.5196152), wk =   0.0240000
        k(   37) = (   0.0866025  -0.0866025   0.5196152), wk =   0.0240000
        k(   38) = (  -0.8660254  -0.2598076  -0.2598076), wk =   0.0120000
        k(   39) = (  -0.7794229  -0.1732051  -0.2598076), wk =   0.0480000
        k(   40) = (  -0.6928203  -0.1732051  -0.1732051), wk =   0.0080000
        k(   41) = (  -0.0000000  -0.0000000   0.5196152), wk =   0.0060000
        k(   42) = (   0.0000000  -0.0866025   0.6062178), wk =   0.0240000
        k(   43) = (  -0.8660254  -0.1732051  -0.1732051), wk =   0.0120000
        k(   44) = (  -0.7794229  -0.0866025  -0.1732051), wk =   0.0240000
        k(   45) = (   0.0000000   0.0000000   0.6928203), wk =   0.0060000
        k(   46) = (  -0.8660254  -0.0866025  -0.0866025), wk =   0.0120000
        k(   47) = (  -0.8660254  -0.8660254  -0.8660254), wk =   0.0010000

     Dense  grid:     8391 G-vectors     FFT dimensions: (  27,  27,  27)

     Smooth grid:     2899 G-vectors     FFT dimensions: (  20,  20,  20)

     Estimated max dynamical RAM per process >      10.87 MB

     Estimated total dynamical RAM >      43.46 MB

     Check: negative core charge=   -0.000003
     Generating pointlists ...
     new r_m :   0.4125 (alat units)  2.2953 (a.u.) for type    1

     Initial potential from superposition of free atoms

     starting charge       7.9994, renormalised to       8.0000
     Starting wfcs are    6 randomized atomic wfcs +    2 random wfcs

     total cpu time spent up to now is        1.2 secs

     Self-consistent Calculation

     iteration #  1     ecut=    30.00 Ry     beta= 0.50
     Davidson diagonalization with overlap
     ethr =  1.00E-02,  avg # of iterations =  4.6

     total cpu time spent up to now is        2.0 secs

     total energy              =     -55.54103179 Ry
     estimated scf accuracy    <       0.41912249 Ry

     total magnetization       =     3.79 Bohr mag/cell
     absolute magnetization    =     3.79 Bohr mag/cell

     iteration #  2     ecut=    30.00 Ry     beta= 0.50
     Davidson diagonalization with overlap
     ethr =  5.24E-03,  avg # of iterations =  1.9

     total cpu time spent up to now is        2.7 secs

     total energy              =     -55.67361211 Ry
     estimated scf accuracy    <       0.24211832 Ry

     total magnetization       =     3.09 Bohr mag/cell
     absolute magnetization    =     3.10 Bohr mag/cell

     iteration #  3     ecut=    30.00 Ry     beta= 0.50
     Davidson diagonalization with overlap
     ethr =  3.03E-03,  avg # of iterations =  1.0

     total cpu time spent up to now is        3.3 secs

     total energy              =     -55.72094041 Ry
     estimated scf accuracy    <       0.00445273 Ry

     total magnetization       =     3.28 Bohr mag/cell
     absolute magnetization    =     3.34 Bohr mag/cell

     iteration #  4     ecut=    30.00 Ry     beta= 0.50
     Davidson diagonalization with overlap
     ethr =  5.57E-05,  avg # of iterations =  3.5

     total cpu time spent up to now is        4.0 secs

     total energy              =     -55.72446772 Ry
     estimated scf accuracy    <       0.00085247 Ry

     total magnetization       =     3.17 Bohr mag/cell
     absolute magnetization    =     3.35 Bohr mag/cell

     iteration #  5     ecut=    30.00 Ry     beta= 0.50
     Davidson diagonalization with overlap
     ethr =  1.07E-05,  avg # of iterations =  4.0

     total cpu time spent up to now is        4.4 secs

     total energy              =     -55.72537415 Ry
     estimated scf accuracy    <       0.00067457 Ry

     total magnetization       =     3.03 Bohr mag/cell
     absolute magnetization    =     3.30 Bohr mag/cell

     iteration #  6     ecut=    30.00 Ry     beta= 0.50
     Davidson diagonalization with overlap
     ethr =  8.43E-06,  avg # of iterations =  1.2

     total cpu time spent up to now is        4.7 secs

     total energy              =     -55.72548183 Ry
     estimated scf accuracy    <       0.00010021 Ry

     total magnetization       =     3.01 Bohr mag/cell
     absolute magnetization    =     3.31 Bohr mag/cell

     iteration #  7     ecut=    30.00 Ry     beta= 0.50
     Davidson diagonalization with overlap
     ethr =  1.25E-06,  avg # of iterations =  3.9

     total cpu time spent up to now is        4.9 secs

     total energy              =     -55.72559489 Ry
     estimated scf accuracy    <       0.00002719 Ry

     total magnetization       =     2.97 Bohr mag/cell
     absolute magnetization    =     3.32 Bohr mag/cell

     iteration #  8     ecut=    30.00 Ry     beta= 0.50
     Davidson diagonalization with overlap
     ethr =  3.40E-07,  avg # of iterations =  2.3

     total cpu time spent up to now is        5.3 secs

     total energy              =     -55.72560524 Ry
     estimated scf accuracy    <       0.00000470 Ry

     total magnetization       =     2.97 Bohr mag/cell
     absolute magnetization    =     3.32 Bohr mag/cell

     iteration #  9     ecut=    30.00 Ry     beta= 0.50
     Davidson diagonalization with overlap
     ethr =  5.88E-08,  avg # of iterations =  2.6

     Magnetic moment per site  (integrated on atomic sphere of radius R)
     atom   1 (R=0.413)  charge=  6.7910  magn=  3.1343

     total cpu time spent up to now is        5.7 secs

     End of self-consistent calculation

 ------ SPIN UP ------------


          k = 0.0000 0.0000 0.0000 (   369 PWs)   bands (ev):

     0.4600   3.8626   3.8626   3.8626   4.3276   4.3276  25.9268  25.9270

          k = 0.0866 0.0866 0.0000 (   370 PWs)   bands (ev):

     0.7347   3.8221   3.8649   3.9558   4.2931   4.3306  22.7782  24.6490

          k = 0.1732 0.1732 0.0000 (   368 PWs)   bands (ev):

     1.5110   3.7178   3.8667   4.2101   4.2578   4.3405  18.6515  22.6500

          k = 0.2598 0.2598 0.0000 (   366 PWs)   bands (ev):

     2.4644   3.5909   4.1197   4.3231   4.3564   4.5474  14.8295  20.8943

          k = 0.3464 0.3464 0.0000 (   364 PWs)   bands (ev):

     2.8083   3.4901   4.3243   4.3727   4.8426   5.5469  11.4845  19.7357

          k =-0.4330-0.4330 0.0000 (   360 PWs)   bands (ev):

     2.8267   3.4521   4.3518   4.3800   4.9614   7.0150   9.4398  19.3273

          k = 0.1732 0.0866 0.0866 (   361 PWs)   bands (ev):

     1.2641   3.7790   3.8106   4.1552   4.2451   4.3493  20.7775  20.9134

          k = 0.2598 0.1732 0.0866 (   368 PWs)   bands (ev):

     2.1867   3.6662   3.8016   4.2404   4.3772   4.5364  16.8577  19.2668

          k = 0.3464 0.2598 0.0866 (   367 PWs)   bands (ev):

     2.8508   3.5499   4.1118   4.3262   4.4764   5.2615  13.2525  18.1204

          k = 0.4330 0.3464 0.0866 (   366 PWs)   bands (ev):

     2.9249   3.4829   4.2748   4.3495   4.7577   6.8850  10.2602  17.5009

          k = 0.3464 0.1732 0.1732 (   369 PWs)   bands (ev):

     2.9482   3.6030   3.7649   4.2597   4.4368   5.2880  15.3975  15.6217

          k = 0.4330 0.2598 0.1732 (   368 PWs)   bands (ev):

     3.1694   3.5352   3.9584   4.3314   4.5334   6.7748  12.1542  14.6583

          k = 0.5196 0.3464 0.1732 (   366 PWs)   bands (ev):

     3.1576   3.5208   4.0290   4.3604   4.6148   8.5056   9.8318  14.3566

          k = 0.5196 0.2598 0.2598 (   369 PWs)   bands (ev):

     3.3258   3.5821   3.7984   4.4112   4.5201   8.8719  11.5411  11.6087

          k = 0.1732 0.1732 0.1732 (   363 PWs)   bands (ev):

     1.9928   3.6807   3.6807   4.3099   4.3099   4.5430  19.0788  19.0830

          k = 0.2598 0.2598 0.1732 (   364 PWs)   bands (ev):

     2.8756   3.5586   3.7018   4.3192   4.3545   5.2095  15.2734  17.6444

          k = 0.3464 0.3464 0.1732 (   364 PWs)   bands (ev):

     3.0969   3.4756   4.1800   4.3569   4.3771   6.5311  11.9261  16.7281

          k = 0.4330 0.4330 0.1732 (   366 PWs)   bands (ev):

     3.0778   3.4464   4.3733   4.3837   4.4099   8.1183   9.6946  16.4070

          k = 0.0000 0.0000 0.1732 (   365 PWs)   bands (ev):

     1.0047   3.8779   3.8779   3.9573   4.2029   4.3774  22.8190  22.8192

          k = 0.3464 0.2598 0.2598 (   366 PWs)   bands (ev):

     3.3237   3.5302   3.7304   4.3494   4.3884   6.4551  14.0273  14.3403

          k = 0.4330 0.3464 0.2598 (   364 PWs)   bands (ev):

     3.3127   3.5043   3.9757   4.3821   4.4135   8.3762  11.1111  13.6187

          k = 0.0000-0.0866 0.2598 (   367 PWs)   bands (ev):

     1.7606   3.8058   3.8759   4.1278   4.1897   4.4351  18.8751  20.9440

          k = 0.5196 0.3464 0.3464 (   357 PWs)   bands (ev):

     3.3598   3.7218   3.7218   4.4100   4.4100  10.6668  10.6668  11.0199

          k =-0.0000-0.1732 0.3464 (   365 PWs)   bands (ev):

     2.6546   3.6901   3.8868   4.2514   4.5299   4.6754  15.0609  19.4265

          k = 0.0866-0.0866 0.3464 (   369 PWs)   bands (ev):

     2.5746   3.7347   3.8559   4.1142   4.4178   4.6897  17.2475  17.3498

          k = 0.0000-0.2598 0.4330 (   370 PWs)   bands (ev):

     2.9390   3.5966   4.0376   4.3082   4.8298   5.9729  11.7008  18.4080

          k = 0.0866-0.1732 0.4330 (   370 PWs)   bands (ev):

     3.0934   3.6279   3.8574   4.2421   4.6181   5.7120  13.7082  16.1684

          k =-0.8660-0.3464-0.3464 (   372 PWs)   bands (ev):

     2.9412   3.5611   4.1113   4.2954   4.9509   7.5270   9.5541  18.0445

          k =-0.7794-0.2598-0.3464 (   369 PWs)   bands (ev):

     3.1189   3.6444   3.8604   4.2925   4.8187   7.5900  10.6435  15.5577

          k =-0.6928-0.1732-0.3464 (   374 PWs)   bands (ev):

     3.3543   3.4779   3.8005   4.3587   4.6660   7.4945  12.7923  12.9031

          k =-0.6928-0.2598-0.2598 (   370 PWs)   bands (ev):

     3.3590   3.6105   3.6318   4.4457   4.6844   9.5387  10.2986  12.5412

          k = 0.3464 0.3464 0.3464 (   366 PWs)   bands (ev):

     3.5085   3.5085   3.7539   4.3845   4.3845   8.2112  13.0673  13.5528

          k = 0.4330 0.4330 0.3464 (   354 PWs)   bands (ev):

     3.5078   3.5292   3.7969   4.3905   4.3928  10.3637  10.7106  12.9617

          k = 0.0000 0.0000 0.3464 (   366 PWs)   bands (ev):

     2.4208   3.8646   3.9792   3.9792   4.2057   4.6283  19.0425  19.0426

          k =-0.0000-0.0866 0.4330 (   370 PWs)   bands (ev):

     3.0596   3.6418   3.9574   4.1488   4.4903   5.2595  15.7099  17.5208

          k = 0.0000-0.1732 0.5196 (   371 PWs)   bands (ev):

     3.1853   3.6010   3.8925   4.2370   4.7971   6.8642  12.3544  16.5093

          k = 0.0866-0.0866 0.5196 (   370 PWs)   bands (ev):

     3.2916   3.4335   4.0049   4.2864   4.6627   6.6312  14.4897  14.6239

          k =-0.8660-0.2598-0.2598 (   368 PWs)   bands (ev):

     3.1470   3.6358   3.8660   4.2471   4.9246   8.7223   9.9505  16.1495

          k =-0.7794-0.1732-0.2598 (   374 PWs)   bands (ev):

     3.2509   3.4205   3.9400   4.4132   4.8171   8.7099  11.4774  13.9296

          k =-0.6928-0.1732-0.1732 (   373 PWs)   bands (ev):

     3.3152   3.3152   3.9001   4.6791   4.6791  11.0080  11.0080  11.3699

          k =-0.0000-0.0000 0.5196 (   370 PWs)   bands (ev):

     3.2417   3.4254   4.2520   4.2520   4.5127   6.3393  15.9554  15.9554

          k = 0.0000-0.0866 0.6062 (   372 PWs)   bands (ev):

     3.2036   3.2625   4.2990   4.4013   4.7591   8.1187  13.3606  14.9030

          k =-0.8660-0.1732-0.1732 (   370 PWs)   bands (ev):

     3.1365   3.2402   4.2899   4.4497   4.8917  10.2732  10.7610  14.5255

          k =-0.7794-0.0866-0.1732 (   374 PWs)   bands (ev):

     3.1215   3.1381   4.3439   4.6550   4.8198  10.1839  12.6917  12.7024

          k = 0.0000 0.0000 0.6928 (   374 PWs)   bands (ev):

     3.0575   3.0620   4.6436   4.6436   4.7606   9.8481  13.8037  13.8038

          k =-0.8660-0.0866-0.0866 (   370 PWs)   bands (ev):

     2.9863   2.9961   4.6864   4.7379   4.8653  11.9649  12.0314  13.4041

          k =-0.8660-0.8660-0.8660 (   370 PWs)   bands (ev):

     2.9147   2.9147   4.8552   4.8552   4.8552  12.9939  12.9939  16.9487

 ------ SPIN DOWN ----------


          k = 0.0000 0.0000 0.0000 (   369 PWs)   bands (ev):

     0.4369   6.9214   6.9214   6.9214   7.9939   7.9939  25.2921  25.2922

          k = 0.0866 0.0866 0.0000 (   370 PWs)   bands (ev):

     0.7130   6.8565   6.9053   7.0395   7.9313   7.9990  22.9116  24.4879

          k = 0.1732 0.1732 0.0000 (   368 PWs)   bands (ev):

     1.5183   6.6906   6.8124   7.3664   7.8343   8.0181  19.0984  22.6773

          k = 0.2598 0.2598 0.0000 (   366 PWs)   bands (ev):

     2.7591   6.4916   6.6371   7.8135   7.8280   8.0522  15.5148  21.1495

          k = 0.3464 0.3464 0.0000 (   364 PWs)   bands (ev):

     4.1210   6.3356   6.6012   7.8730   8.0893   8.2208  12.5664  20.2699

          k =-0.4330-0.4330 0.0000 (   360 PWs)   bands (ev):

     4.7545   6.2773   6.8112   7.8859   8.1062   8.3900  11.1756  19.8233

          k = 0.1732 0.0866 0.0866 (   361 PWs)   bands (ev):

     1.2544   6.7702   6.8093   7.2784   7.8369   8.0240  20.9769  21.3801

          k = 0.2598 0.1732 0.0866 (   368 PWs)   bands (ev):

     2.2856   6.5858   6.6531   7.6900   7.7768   8.0656  17.4026  19.6734

          k = 0.3464 0.2598 0.0866 (   367 PWs)   bands (ev):

     3.6370   6.3977   6.4956   7.8172   8.0764   8.2068  14.0604  18.5366

          k = 0.4330 0.3464 0.0866 (   366 PWs)   bands (ev):

     4.7440   6.2930   6.5450   7.8683   8.1364   8.6440  11.6228  17.9013

          k = 0.3464 0.1732 0.1732 (   369 PWs)   bands (ev):

     3.4572   6.3977   6.4818   7.7631   8.0610   8.2590  16.0132  16.1842

          k = 0.4330 0.2598 0.1732 (   368 PWs)   bands (ev):

     4.7222   6.2180   6.3768   7.8334   8.0933   8.9400  13.0303  15.2473

          k = 0.5196 0.3464 0.1732 (   366 PWs)   bands (ev):

     5.3063   6.2468   6.2849   7.8775   8.1092   9.6863  11.2941  14.9333

          k = 0.5196 0.2598 0.2598 (   369 PWs)   bands (ev):

     5.6108   6.0708   6.2202   7.9219   8.0474  10.2392  12.4324  12.4872

          k = 0.1732 0.1732 0.1732 (   363 PWs)   bands (ev):

     2.0363   6.5961   6.5961   7.6893   7.9447   7.9447  19.3668  19.3673

          k = 0.2598 0.2598 0.1732 (   364 PWs)   bands (ev):

     3.2376   6.3832   6.4018   7.9206   8.0357   8.2104  15.8889  18.1591

          k = 0.3464 0.3464 0.1732 (   364 PWs)   bands (ev):

     4.5429   6.2343   6.3042   7.9456   8.0932   8.8150  12.8505  17.2702

          k = 0.4330 0.4330 0.1732 (   366 PWs)   bands (ev):

     5.1288   6.1812   6.3936   7.9615   8.1130   9.3581  11.2394  16.9276

          k = 0.0000 0.0000 0.1732 (   365 PWs)   bands (ev):

     0.9862   6.9089   6.9089   7.0466   7.7787   8.0695  22.6996  23.2591

          k = 0.3464 0.2598 0.2598 (   366 PWs)   bands (ev):

     4.4572   6.1792   6.2337   7.9749   8.0802   8.8910  14.6675  14.9646

          k = 0.4330 0.3464 0.2598 (   364 PWs)   bands (ev):

     5.4111   6.0931   6.1616   8.0139   8.1062   9.8957  12.0983  14.2486

          k = 0.0000-0.0866 0.2598 (   367 PWs)   bands (ev):

     1.7817   6.7912   6.8551   7.3398   7.5995   8.1195  19.3230  21.5052

          k = 0.5196 0.3464 0.3464 (   357 PWs)   bands (ev):

     5.8390   6.0376   6.0376   8.0744   8.0744  11.6241  11.6241  12.0097

          k =-0.0000-0.1732 0.3464 (   365 PWs)   bands (ev):

     3.0023   6.6103   6.6513   7.6134   7.7887   8.1596  15.7268  19.9978

          k = 0.0866-0.0866 0.3464 (   369 PWs)   bands (ev):

     2.7786   6.7010   6.7617   7.4639   7.6624   8.1841  17.8211  17.8358

          k = 0.0000-0.2598 0.4330 (   370 PWs)   bands (ev):

     4.3346   6.4654   6.4892   7.7252   8.2028   8.3091  12.7219  18.9260

          k = 0.0866-0.1732 0.4330 (   370 PWs)   bands (ev):

     4.0643   6.4286   6.6480   7.5645   8.0238   8.4074  14.4513  16.7128

          k =-0.8660-0.3464-0.3464 (   372 PWs)   bands (ev):

     4.9600   6.4109   6.5165   7.7425   8.3759   8.6229  11.2069  18.5290

          k =-0.7794-0.2598-0.3464 (   369 PWs)   bands (ev):

     5.1170   6.2741   6.5220   7.6624   8.2004   9.1325  11.8307  16.0823

          k =-0.6928-0.1732-0.3464 (   374 PWs)   bands (ev):

     5.1684   6.1772   6.5515   7.6855   8.0583   9.2912  13.5292  13.6833

          k =-0.6928-0.2598-0.2598 (   370 PWs)   bands (ev):

     5.7587   6.0857   6.3438   7.7954   8.0613  10.5693  11.5146  13.2860

          k = 0.3464 0.3464 0.3464 (   366 PWs)   bands (ev):

     5.4535   6.0563   6.0563   8.0903   8.0903   9.8845  13.6899  14.2154

          k = 0.4330 0.4330 0.3464 (   354 PWs)   bands (ev):

     5.8486   6.0186   6.0357   8.1006   8.1251  11.3424  11.7530  13.6058

          k = 0.0000 0.0000 0.3464 (   366 PWs)   bands (ev):

     2.5422   6.9709   6.9710   7.1956   7.3760   8.2023  19.6184  19.6184

          k =-0.0000-0.0866 0.4330 (   370 PWs)   bands (ev):

     3.6825   6.6740   6.9313   7.2699   7.7379   8.2974  16.3220  18.0753

          k = 0.0000-0.1732 0.5196 (   371 PWs)   bands (ev):

     4.8750   6.3004   6.8347   7.4559   8.1570   8.7720  13.2120  17.0032

          k = 0.0866-0.0866 0.5196 (   370 PWs)   bands (ev):

     4.7627   6.3463   6.9728   7.4229   7.9845   8.7108  15.1026  15.2558

          k =-0.8660-0.2598-0.2598 (   368 PWs)   bands (ev):

     5.4604   6.1085   6.7948   7.4676   8.3406   9.6806  11.3402  16.6066

          k =-0.7794-0.1732-0.2598 (   374 PWs)   bands (ev):

     5.5906   6.0521   6.8427   7.6065   8.1769   9.9353  12.3649  14.5179

          k =-0.6928-0.1732-0.1732 (   373 PWs)   bands (ev):

     5.9370   5.9370   6.6745   7.9753   7.9754  11.8211  11.8211  12.2648

          k =-0.0000-0.0000 0.5196 (   370 PWs)   bands (ev):

     4.6045   6.4520   7.2838   7.2838   7.7864   8.5374  16.4609  16.4609

          k = 0.0000-0.0866 0.6062 (   372 PWs)   bands (ev):

     5.3825   6.0974   7.3696   7.4941   8.1064   9.4088  13.9680  15.3201

          k =-0.8660-0.1732-0.1732 (   370 PWs)   bands (ev):

     5.7905   5.8226   7.3641   7.5371   8.2964  10.9824  11.7066  14.8898

          k =-0.7794-0.0866-0.1732 (   374 PWs)   bands (ev):

     5.7025   5.8657   7.3817   7.8950   8.1773  10.9706  13.2297  13.2340

          k = 0.0000 0.0000 0.6928 (   374 PWs)   bands (ev):

     5.5890   5.8475   7.8623   7.8623   8.1198  10.5679  14.0879  14.0880

          k =-0.8660-0.0866-0.0866 (   370 PWs)   bands (ev):

     5.6665   5.7017   7.9606   8.0161   8.2610  12.3408  12.4657  13.6062

          k =-0.8660-0.8660-0.8660 (   370 PWs)   bands (ev):

     5.6180   5.6180   8.2475   8.2475   8.2475  13.0915  13.0915  13.0915

     the Fermi energy is     6.6822 ev

!    total energy              =     -55.72560716 Ry
     estimated scf accuracy    <       0.00000003 Ry
     smearing contrib. (-TS)   =      -0.00040143 Ry
     internal energy E=F+TS    =     -55.72520573 Ry

     The total energy is F=E-TS. E is the sum of the following terms:
     one-electron contribution =      -2.82036763 Ry
     hartree contribution      =       9.62921237 Ry
     xc contribution           =     -26.28370869 Ry
     ewald contribution        =     -36.25034178 Ry

     total magnetization       =     2.97 Bohr mag/cell
     absolute magnetization    =     3.32 Bohr mag/cell

     convergence has been achieved in   9 iterations

     Forces acting on atoms (cartesian axes, Ry/au):

     atom    1 type  1   force =     0.00000000    0.00000000    0.00000000
     The non-local contrib.  to forces
     atom    1 type  1   force =     0.00000000    0.00000000    0.00000000
     The ionic contribution  to forces
     atom    1 type  1   force =    -0.00000000   -0.00000000   -0.00000000
     The local contribution  to forces
     atom    1 type  1   force =     0.00000000    0.00000000    0.00000000
     The core correction contribution to forces
     atom    1 type  1   force =     0.00000000    0.00000000    0.00000000
     The Hubbard contrib.    to forces
     atom    1 type  1   force =     0.00000000    0.00000000    0.00000000
     The SCF correction term to forces
     atom    1 type  1   force =     0.00000000   -0.00000000    0.00000000

     Total force =     0.000000     Total SCF correction =     0.000000


     Computing stress (Cartesian axis) and pressure

          total   stress  (Ry/bohr**3)                   (kbar)     P=     -268.12
  -0.00182262   0.00000000   0.00000000         -268.12        0.00        0.00
   0.00000000  -0.00182262   0.00000000            0.00     -268.12        0.00
   0.00000000   0.00000000  -0.00182262            0.00        0.00     -268.12


     init_run     :      0.40s CPU      0.67s WALL (       1 calls)
     electrons    :      2.80s CPU      4.52s WALL (       1 calls)
     forces       :      0.05s CPU      0.05s WALL (       1 calls)
     stress       :      0.28s CPU      0.32s WALL (       1 calls)

     Called by init_run:
     wfcinit      :      0.12s CPU      0.25s WALL (       1 calls)
     potinit      :      0.12s CPU      0.21s WALL (       1 calls)
     hinit0       :      0.15s CPU      0.18s WALL (       1 calls)

     Called by electrons:
     c_bands      :      2.25s CPU      3.76s WALL (       9 calls)
     sum_band     :      0.38s CPU      0.50s WALL (       9 calls)
     v_of_rho     :      0.08s CPU      0.12s WALL (      10 calls)
     newd         :      0.08s CPU      0.07s WALL (      10 calls)
     mix_rho      :      0.03s CPU      0.02s WALL (       9 calls)

     Called by c_bands:
     init_us_2    :      0.09s CPU      0.11s WALL (    1974 calls)
     init_us_2:cp :      0.09s CPU      0.11s WALL (    1974 calls)
     cegterg      :      1.92s CPU      2.13s WALL (     846 calls)

     Called by *egterg:
     cdiaghg      :      0.35s CPU      0.39s WALL (    3204 calls)
     h_psi        :      1.31s CPU      1.54s WALL (    3298 calls)
     s_psi        :      0.04s CPU      0.04s WALL (    3298 calls)
     g_psi        :      0.01s CPU      0.01s WALL (    2358 calls)

     Called by h_psi:
     h_psi:calbec :      0.10s CPU      0.10s WALL (    3298 calls)
     vloc_psi     :      1.16s CPU      1.36s WALL (    3298 calls)
     add_vuspsi   :      0.03s CPU      0.06s WALL (    3298 calls)

     General routines
     calbec       :      0.14s CPU      0.15s WALL (    4614 calls)
     fft          :      0.11s CPU      0.11s WALL (     288 calls)
     ffts         :      0.11s CPU      0.19s WALL (      38 calls)
     fftw         :      1.15s CPU      1.38s WALL (   42178 calls)
     interpolate  :      0.11s CPU      0.20s WALL (      20 calls)

     Parallel routines

     PWSCF        :      3.79s CPU      6.08s WALL


   This run was terminated on:  16:59:31   1Nov2023            

=------------------------------------------------------------------------------=
   JOB DONE.
=------------------------------------------------------------------------------=
