
     Program PWSCF v.7.2 starts on  2Nov2023 at 17:42:52 

     This program is part of the open-source Quantum ESPRESSO suite
     for quantum simulation of materials; please cite
         "P. Giannozzi et al., J. Phys.:Condens. Matter 21 395502 (2009);
         "P. Giannozzi et al., J. Phys.:Condens. Matter 29 465901 (2017);
         "P. Giannozzi et al., J. Chem. Phys. 152 154105 (2020);
          URL http://www.quantum-espresso.org", 
     in publications or presentations arising from this work. More details at
     http://www.quantum-espresso.org/quote

     Parallel version (MPI), running on     2 processors

     MPI processes distributed on     2 nodes
     187212 MiB available memory on the printing compute node when the environment starts

     Waiting for input...
     Reading input from standard input
Warning: card &CELL ignored
Warning: card / ignored

     Current dimensions of program PWSCF are:
     Max number of different atomic species (ntypx) = 10
     Max number of k-points (npk) =  40000
     Max angular momentum in pseudopotentials (lmaxx) =  4
     file O.pz-rrkjus.UPF: wavefunction(s)  2S renormalized
     Message from routine setup:
     using ibrav=0 with symmetry is DISCOURAGED, use correct ibrav instead

     R & G space division:  proc/nbgrp/npool/nimage =       2
     Subspace diagonalization in iterative solution of the eigenvalue problem:
     a serial algorithm will be used


     Parallelization info
     --------------------
     sticks:   dense  smooth     PW     G-vecs:    dense   smooth      PW
     Min         502     252     72                11935     4204     682
     Max         503     253     73                11936     4205     683
     Sum        1005     505    145                23871     8409    1365

     Using Slab Decomposition



     bravais-lattice index     =            0
     lattice parameter (alat)  =       7.2565  a.u.
     unit-cell volume          =     382.1116 (a.u.)^3
     number of atoms/cell      =            5
     number of atomic types    =            3
     number of electrons       =        44.00
     number of Kohn-Sham states=           22
     kinetic-energy cutoff     =      30.0000  Ry
     charge density cutoff     =     240.0000  Ry
     scf convergence threshold =      1.0E-07
     mixing beta               =       0.7000
     number of iterations used =            8  plain     mixing
     Exchange-correlation= SLA  PZ   NOGX NOGC
                           (   1   1   0   0   0   0   0)

     celldm(1)=   7.256548  celldm(2)=   0.000000  celldm(3)=   0.000000
     celldm(4)=   0.000000  celldm(5)=   0.000000  celldm(6)=   0.000000

     crystal axes: (cart. coord. in units of alat)
               a(1) = (   1.000000   0.000000   0.000000 )  
               a(2) = (   0.000000   1.000000   0.000000 )  
               a(3) = (   0.000000   0.000000   1.000000 )  

     reciprocal axes: (cart. coord. in units 2 pi/alat)
               b(1) = (  1.000000  0.000000  0.000000 )  
               b(2) = (  0.000000  1.000000  0.000000 )  
               b(3) = (  0.000000  0.000000  1.000000 )  


     PseudoPot. # 1 for O  read from file:
     /home/gridsan/epan1/labutil/lab3_samples/pseudopotentials/O.pz-rrkjus.UPF
     MD5 check sum: 24fb942a68ef5d262e498166c462ef4a
     Pseudo is Ultrasoft, Zval =  6.0
     Generated by new atomic code, or converted to UPF format
     Using radial grid of 1269 points,  4 beta functions with: 
                l(1) =   0
                l(2) =   0
                l(3) =   1
                l(4) =   1
     Q(r) pseudized with 0 coefficients 


     PseudoPot. # 2 for Pb read from file:
     /home/gridsan/epan1/labutil/lab3_samples/pseudopotentials/Pb.pz-d-van.UPF
     MD5 check sum: 4e1e5920686a026ae26139ac417581ff
     Pseudo is Ultrasoft, Zval = 14.0
     Generated by new atomic code, or converted to UPF format
     Using radial grid of  899 points,  6 beta functions with: 
                l(1) =   0
                l(2) =   0
                l(3) =   1
                l(4) =   1
                l(5) =   2
                l(6) =   2
     Q(r) pseudized with  8 coefficients,  rinner =    1.000   1.000   1.000
                                                       1.000   1.000

     PseudoPot. # 3 for Ti read from file:
     /home/gridsan/epan1/labutil/lab3_samples/pseudopotentials/Ti.pz-sp-van_ak.UPF
     MD5 check sum: 545d0e6e05332b8871a8093f427cb0ca
     Pseudo is Ultrasoft, Zval = 12.0
     Generated by new atomic code, or converted to UPF format
     Using radial grid of  851 points,  6 beta functions with: 
                l(1) =   0
                l(2) =   0
                l(3) =   1
                l(4) =   1
                l(5) =   2
                l(6) =   2
     Q(r) pseudized with  8 coefficients,  rinner =    1.000   1.000   1.000
                                                       1.000   1.000

     atomic species   valence    mass     pseudopotential
        O              6.00    15.99900     O ( 1.00)
        Pb            14.00   207.20000     Pb( 1.00)
        Ti            12.00    47.86700     Ti( 1.00)

     48 Sym. Ops., with inversion, found



   Cartesian axes

     site n.     atom                  positions (alat units)
         1           Pb  tau(   1) = (   0.0000000   0.0000000   0.0000000  )
         2           Ti  tau(   2) = (   0.5000000   0.5000000   0.5000000  )
         3           O   tau(   3) = (   0.0000000   0.5000000   0.5000000  )
         4           O   tau(   4) = (   0.5000000   0.0000000   0.5000000  )
         5           O   tau(   5) = (   0.5000000   0.5000000   0.0000000  )

     number of k points=     4
                       cart. coord. in units 2pi/alat
        k(    1) = (   0.1250000   0.1250000   0.1250000), wk =   0.2500000
        k(    2) = (   0.1250000   0.1250000   0.3750000), wk =   0.7500000
        k(    3) = (   0.1250000   0.3750000   0.3750000), wk =   0.7500000
        k(    4) = (   0.3750000   0.3750000   0.3750000), wk =   0.2500000

     Dense  grid:    23871 G-vectors     FFT dimensions: (  36,  36,  36)

     Smooth grid:     8409 G-vectors     FFT dimensions: (  25,  25,  25)

     Estimated max dynamical RAM per process >      48.95 MB

     Estimated total dynamical RAM >      97.90 MB

     Initial potential from superposition of free atoms

     starting charge      42.9982, renormalised to      44.0000
     Starting wfcs are   31 randomized atomic wfcs

     total cpu time spent up to now is        1.0 secs

     Self-consistent Calculation

     iteration #  1     ecut=    30.00 Ry     beta= 0.70
     Davidson diagonalization with overlap
     ethr =  1.00E-02,  avg # of iterations =  2.0

     total cpu time spent up to now is        1.2 secs

     total energy              =    -332.62834663 Ry
     estimated scf accuracy    <       1.08770897 Ry

     iteration #  2     ecut=    30.00 Ry     beta= 0.70
     Davidson diagonalization with overlap
     ethr =  2.47E-03,  avg # of iterations =  6.8

     total cpu time spent up to now is        1.5 secs

     total energy              =    -332.47000239 Ry
     estimated scf accuracy    <       3.59261198 Ry

     iteration #  3     ecut=    30.00 Ry     beta= 0.70
     Davidson diagonalization with overlap
     ethr =  2.47E-03,  avg # of iterations =  5.5

     total cpu time spent up to now is        1.7 secs

     total energy              =    -333.15983245 Ry
     estimated scf accuracy    <       0.19458543 Ry

     iteration #  4     ecut=    30.00 Ry     beta= 0.70
     Davidson diagonalization with overlap
     ethr =  4.42E-04,  avg # of iterations =  2.5

     total cpu time spent up to now is        1.9 secs

     total energy              =    -333.15769031 Ry
     estimated scf accuracy    <       0.04828094 Ry

     iteration #  5     ecut=    30.00 Ry     beta= 0.70
     Davidson diagonalization with overlap
     ethr =  1.10E-04,  avg # of iterations =  5.5

     total cpu time spent up to now is        2.2 secs

     total energy              =    -333.18041604 Ry
     estimated scf accuracy    <       0.02443052 Ry

     iteration #  6     ecut=    30.00 Ry     beta= 0.70
     Davidson diagonalization with overlap
     ethr =  5.55E-05,  avg # of iterations =  2.5

     total cpu time spent up to now is        2.4 secs

     total energy              =    -333.17945855 Ry
     estimated scf accuracy    <       0.00764065 Ry

     iteration #  7     ecut=    30.00 Ry     beta= 0.70
     Davidson diagonalization with overlap
     ethr =  1.74E-05,  avg # of iterations =  4.8

     total cpu time spent up to now is        2.6 secs

     total energy              =    -333.18207240 Ry
     estimated scf accuracy    <       0.00058950 Ry

     iteration #  8     ecut=    30.00 Ry     beta= 0.70
     Davidson diagonalization with overlap
     ethr =  1.34E-06,  avg # of iterations =  1.8

     total cpu time spent up to now is        2.8 secs

     total energy              =    -333.18195893 Ry
     estimated scf accuracy    <       0.00044727 Ry

     iteration #  9     ecut=    30.00 Ry     beta= 0.70
     Davidson diagonalization with overlap
     ethr =  1.02E-06,  avg # of iterations =  4.2

     total cpu time spent up to now is        3.0 secs

     total energy              =    -333.18200106 Ry
     estimated scf accuracy    <       0.00003506 Ry

     iteration # 10     ecut=    30.00 Ry     beta= 0.70
     Davidson diagonalization with overlap
     ethr =  7.97E-08,  avg # of iterations =  4.8

     total cpu time spent up to now is        3.3 secs

     total energy              =    -333.18202403 Ry
     estimated scf accuracy    <       0.00001149 Ry

     iteration # 11     ecut=    30.00 Ry     beta= 0.70
     Davidson diagonalization with overlap
     ethr =  2.61E-08,  avg # of iterations =  1.2

     total cpu time spent up to now is        3.4 secs

     total energy              =    -333.18201941 Ry
     estimated scf accuracy    <       0.00001198 Ry

     iteration # 12     ecut=    30.00 Ry     beta= 0.70
     Davidson diagonalization with overlap
     ethr =  2.61E-08,  avg # of iterations =  4.2

     total cpu time spent up to now is        3.7 secs

     total energy              =    -333.18202121 Ry
     estimated scf accuracy    <       0.00000022 Ry

     iteration # 13     ecut=    30.00 Ry     beta= 0.70
     Davidson diagonalization with overlap
     ethr =  4.98E-10,  avg # of iterations =  5.0

     total cpu time spent up to now is        3.9 secs

     End of self-consistent calculation

          k = 0.1250 0.1250 0.1250 (  1060 PWs)   bands (ev):

   -44.0987 -20.7332 -20.7319 -20.7319  -6.0106  -4.8830  -4.8830  -3.4463
    -3.4463  -3.4310  -3.2606  -3.2606   5.1131   7.6759   7.6759   8.5551
     9.5466   9.5466  10.3032  10.4104  10.4104  10.5722

          k = 0.1250 0.1250 0.3750 (  1065 PWs)   bands (ev):

   -44.0973 -20.7986 -20.7301 -20.7294  -5.5777  -4.7580  -4.6839  -3.5149
    -3.4417  -3.4294  -3.3641  -3.2225   4.3296   7.2142   7.6778   8.2498
     8.8788   9.1366   9.8367  10.3612  10.5520  11.3999

          k = 0.1250 0.3750 0.3750 (  1058 PWs)   bands (ev):

   -44.0958 -20.7951 -20.7938 -20.7271  -5.3482  -4.5997  -4.5240  -3.4856
    -3.4383  -3.3836  -3.2862  -3.1330   3.9163   7.1859   7.2066   7.5287
     7.8463   9.1253   9.8898   9.8901  10.5553  11.1744

          k = 0.3750 0.3750 0.3750 (  1046 PWs)   bands (ev):

   -44.0943 -20.7911 -20.7911 -20.7910  -4.9060  -4.7230  -4.7230  -3.3865
    -3.3865  -3.0886  -3.0187  -3.0187   4.5444   6.2366   6.2366   7.1304
     7.3918   7.3918   8.4533  11.1300  11.1300  11.2020

     highest occupied level (ev):    11.3999

!    total energy              =    -333.18202129 Ry
     estimated scf accuracy    <       0.00000008 Ry

     The total energy is the sum of the following terms:
     one-electron contribution =     -72.80302405 Ry
     hartree contribution      =      65.18276629 Ry
     xc contribution           =     -49.75322102 Ry
     ewald contribution        =    -275.80854250 Ry

     convergence has been achieved in  13 iterations

     Forces acting on atoms (cartesian axes, Ry/au):

     atom    1 type  2   force =     0.00000000    0.00000000    0.00000000
     atom    2 type  3   force =     0.00000000    0.00000000    0.00000000
     atom    3 type  1   force =     0.00000000    0.00000000    0.00000000
     atom    4 type  1   force =     0.00000000    0.00000000    0.00000000
     atom    5 type  1   force =     0.00000000    0.00000000    0.00000000
     The non-local contrib.  to forces
     atom    1 type  2   force =     0.00000000    0.00000000    0.00000000
     atom    2 type  3   force =     0.00000000    0.00000000    0.00000000
     atom    3 type  1   force =     0.00000000    0.00000000    0.00000000
     atom    4 type  1   force =     0.00000000    0.00000000    0.00000000
     atom    5 type  1   force =     0.00000000    0.00000000    0.00000000
     The ionic contribution  to forces
     atom    1 type  2   force =     0.00000000    0.00000000    0.00000000
     atom    2 type  3   force =     0.00000000    0.00000000    0.00000000
     atom    3 type  1   force =     0.00000000   -0.00000000   -0.00000000
     atom    4 type  1   force =    -0.00000000    0.00000000   -0.00000000
     atom    5 type  1   force =    -0.00000000   -0.00000000    0.00000000
     The local contribution  to forces
     atom    1 type  2   force =     0.00000000    0.00000000    0.00000000
     atom    2 type  3   force =    -0.00000000   -0.00000000   -0.00000000
     atom    3 type  1   force =    -0.00000000   -0.00000000   -0.00000000
     atom    4 type  1   force =    -0.00000000    0.00000000   -0.00000000
     atom    5 type  1   force =    -0.00000000   -0.00000000    0.00000000
     The core correction contribution to forces
     atom    1 type  2   force =     0.00000000    0.00000000    0.00000000
     atom    2 type  3   force =     0.00000000    0.00000000    0.00000000
     atom    3 type  1   force =     0.00000000    0.00000000    0.00000000
     atom    4 type  1   force =     0.00000000    0.00000000    0.00000000
     atom    5 type  1   force =     0.00000000    0.00000000    0.00000000
     The Hubbard contrib.    to forces
     atom    1 type  2   force =     0.00000000    0.00000000    0.00000000
     atom    2 type  3   force =     0.00000000    0.00000000    0.00000000
     atom    3 type  1   force =     0.00000000    0.00000000    0.00000000
     atom    4 type  1   force =     0.00000000    0.00000000    0.00000000
     atom    5 type  1   force =     0.00000000    0.00000000    0.00000000
     The SCF correction term to forces
     atom    1 type  2   force =    -0.00000000   -0.00000000   -0.00000000
     atom    2 type  3   force =     0.00000000    0.00000000   -0.00000000
     atom    3 type  1   force =     0.00000000    0.00000000    0.00000000
     atom    4 type  1   force =     0.00000000    0.00000000    0.00000000
     atom    5 type  1   force =     0.00000000    0.00000000   -0.00000000

     Total force =     0.000000     Total SCF correction =     0.000000


     Computing stress (Cartesian axis) and pressure

          total   stress  (Ry/bohr**3)                   (kbar)     P=       45.01
   0.00030596   0.00000000   0.00000000           45.01        0.00        0.00
   0.00000000   0.00030596   0.00000000            0.00       45.01        0.00
   0.00000000   0.00000000   0.00030596            0.00        0.00       45.01


     init_run     :      0.64s CPU      0.65s WALL (       1 calls)
     electrons    :      3.78s CPU      2.93s WALL (       1 calls)
     forces       :      0.14s CPU      0.09s WALL (       1 calls)
     stress       :      0.94s CPU      0.75s WALL (       1 calls)

     Called by init_run:
     wfcinit      :      0.04s CPU      0.05s WALL (       1 calls)
     potinit      :      0.03s CPU      0.04s WALL (       1 calls)
     hinit0       :      0.44s CPU      0.45s WALL (       1 calls)

     Called by electrons:
     c_bands      :      1.79s CPU      1.38s WALL (      13 calls)
     sum_band     :      1.20s CPU      0.93s WALL (      13 calls)
     v_of_rho     :      0.04s CPU      0.03s WALL (      14 calls)
     newd         :      0.77s CPU      0.60s WALL (      14 calls)
     mix_rho      :      0.03s CPU      0.02s WALL (      13 calls)

     Called by c_bands:
     init_us_2    :      0.06s CPU      0.05s WALL (     116 calls)
     init_us_2:cp :      0.06s CPU      0.05s WALL (     116 calls)
     cegterg      :      1.66s CPU      1.26s WALL (      52 calls)

     Called by *egterg:
     cdiaghg      :      0.27s CPU      0.22s WALL (     255 calls)
     h_psi        :      1.15s CPU      0.89s WALL (     259 calls)
     s_psi        :      0.05s CPU      0.04s WALL (     259 calls)
     g_psi        :      0.01s CPU      0.01s WALL (     203 calls)

     Called by h_psi:
     h_psi:calbec :      0.07s CPU      0.05s WALL (     259 calls)
     vloc_psi     :      1.02s CPU      0.79s WALL (     259 calls)
     add_vuspsi   :      0.05s CPU      0.04s WALL (     259 calls)

     General routines
     calbec       :      0.09s CPU      0.07s WALL (     331 calls)
     fft          :      0.20s CPU      0.19s WALL (      87 calls)
     ffts         :      0.03s CPU      0.04s WALL (      27 calls)
     fftw         :      0.98s CPU      0.78s WALL (    7758 calls)
     interpolate  :      0.03s CPU      0.04s WALL (      14 calls)

     Parallel routines

     PWSCF        :      5.80s CPU      4.76s WALL


   This run was terminated on:  17:42:57   2Nov2023            

=------------------------------------------------------------------------------=
   JOB DONE.
=------------------------------------------------------------------------------=
