
     Program PWSCF v.7.2 starts on  1Nov2023 at 16:49:53 

     This program is part of the open-source Quantum ESPRESSO suite
     for quantum simulation of materials; please cite
         "P. Giannozzi et al., J. Phys.:Condens. Matter 21 395502 (2009);
         "P. Giannozzi et al., J. Phys.:Condens. Matter 29 465901 (2017);
         "P. Giannozzi et al., J. Chem. Phys. 152 154105 (2020);
          URL http://www.quantum-espresso.org", 
     in publications or presentations arising from this work. More details at
     http://www.quantum-espresso.org/quote

     Parallel version (MPI), running on     4 processors

     MPI processes distributed on     4 nodes
     185699 MiB available memory on the printing compute node when the environment starts

     Waiting for input...
     Reading input from standard input
Warning: card &CELL ignored
Warning: card / ignored

     Current dimensions of program PWSCF are:
     Max number of different atomic species (ntypx) = 10
     Max number of k-points (npk) =  40000
     Max angular momentum in pseudopotentials (lmaxx) =  4
     file Fe.pbe-nd-rrkjus.UPF: wavefunction(s)  4S renormalized
     Message from routine setup:
     using ibrav=0 with symmetry is DISCOURAGED, use correct ibrav instead

     R & G space division:  proc/nbgrp/npool/nimage =       4
     Subspace diagonalization in iterative solution of the eigenvalue problem:
     a serial algorithm will be used


     Parallelization info
     --------------------
     sticks:   dense  smooth     PW     G-vecs:    dense   smooth      PW
     Min          70      37     13                 1588      567     115
     Max          71      38     14                 1593      570     116
     Sum         283     151     55                 6363     2273     463

     Using Slab Decomposition



     bravais-lattice index     =            0
     lattice parameter (alat)  =       4.1574  a.u.
     unit-cell volume          =     101.6201 (a.u.)^3
     number of atoms/cell      =            2
     number of atomic types    =            1
     number of electrons       =        16.00
     number of Kohn-Sham states=           12
     kinetic-energy cutoff     =      30.0000  Ry
     charge density cutoff     =     240.0000  Ry
     scf convergence threshold =      1.0E-07
     mixing beta               =       0.5000
     number of iterations used =            8  plain     mixing
     Exchange-correlation=  SLA  PW   PBE  PBE
                           (   1   4   3   4   0   0   0)

     celldm(1)=   4.157397  celldm(2)=   0.000000  celldm(3)=   0.000000
     celldm(4)=   0.000000  celldm(5)=   0.000000  celldm(6)=   0.000000

     crystal axes: (cart. coord. in units of alat)
               a(1) = (   1.000000   0.000000   0.000000 )  
               a(2) = (  -0.500000   0.866025   0.000000 )  
               a(3) = (   0.000000   0.000000   1.632993 )  

     reciprocal axes: (cart. coord. in units 2 pi/alat)
               b(1) = (  1.000000  0.577350 -0.000000 )  
               b(2) = (  0.000000  1.154701  0.000000 )  
               b(3) = (  0.000000 -0.000000  0.612372 )  


     PseudoPot. # 1 for Fe read from file:
     /home/gridsan/epan1/labutil/lab3_samples/pseudopotentials/Fe.pbe-nd-rrkjus.UPF
     MD5 check sum: 398036227a04b607635f6f5e8dfd8242
     Pseudo is Ultrasoft + core correction, Zval =  8.0
     Generated by new atomic code, or converted to UPF format
     Using radial grid of  957 points,  6 beta functions with: 
                l(1) =   0
                l(2) =   0
                l(3) =   1
                l(4) =   1
                l(5) =   2
                l(6) =   2
     Q(r) pseudized with 0 coefficients 


     atomic species   valence    mass     pseudopotential
        Fe             8.00    55.84500     Fe( 1.00)

     Starting magnetic structure 
     atomic species   magnetization
        Fe           0.700

     24 Sym. Ops., with inversion, found (12 have fractional translation)



   Cartesian axes

     site n.     atom                  positions (alat units)
         1           Fe  tau(   1) = (   0.0000000   0.0000000   0.0000000  )
         2           Fe  tau(   2) = (   0.0000000   0.5773500   0.8164955  )

     number of k points=    32  Methfessel-Paxton smearing, width (Ry)=  0.0200
                       cart. coord. in units 2pi/alat
        k(    1) = (   0.0000000   0.0000000   0.0000000), wk =   0.0029155
        k(    2) = (   0.0000000   0.0000000   0.0874818), wk =   0.0058309
        k(    3) = (   0.0000000   0.0000000   0.1749636), wk =   0.0058309
        k(    4) = (   0.0000000   0.0000000   0.2624453), wk =   0.0058309
        k(    5) = (   0.0000000   0.1649572   0.0000000), wk =   0.0174927
        k(    6) = (   0.0000000   0.1649572   0.0874818), wk =   0.0349854
        k(    7) = (   0.0000000   0.1649572   0.1749636), wk =   0.0349854
        k(    8) = (   0.0000000   0.1649572   0.2624453), wk =   0.0349854
        k(    9) = (   0.0000000   0.3299144   0.0000000), wk =   0.0174927
        k(   10) = (   0.0000000   0.3299144   0.0874818), wk =   0.0349854
        k(   11) = (   0.0000000   0.3299144   0.1749636), wk =   0.0349854
        k(   12) = (   0.0000000   0.3299144   0.2624453), wk =   0.0349854
        k(   13) = (   0.0000000   0.4948717   0.0000000), wk =   0.0174927
        k(   14) = (   0.0000000   0.4948717   0.0874818), wk =   0.0349854
        k(   15) = (   0.0000000   0.4948717   0.1749636), wk =   0.0349854
        k(   16) = (   0.0000000   0.4948717   0.2624453), wk =   0.0349854
        k(   17) = (   0.1428571   0.2474358   0.0000000), wk =   0.0174927
        k(   18) = (   0.1428571   0.2474358   0.0874818), wk =   0.0349854
        k(   19) = (   0.1428571   0.2474358   0.1749636), wk =   0.0349854
        k(   20) = (   0.1428571   0.2474358   0.2624453), wk =   0.0349854
        k(   21) = (   0.1428571   0.4123930   0.0000000), wk =   0.0349854
        k(   22) = (   0.1428571   0.4123930   0.0874818), wk =   0.0699708
        k(   23) = (   0.1428571   0.4123930   0.1749636), wk =   0.0699708
        k(   24) = (   0.1428571   0.4123930   0.2624453), wk =   0.0699708
        k(   25) = (   0.1428571   0.5773503   0.0000000), wk =   0.0174927
        k(   26) = (   0.1428571   0.5773503   0.0874818), wk =   0.0349854
        k(   27) = (   0.1428571   0.5773503   0.1749636), wk =   0.0349854
        k(   28) = (   0.1428571   0.5773503   0.2624453), wk =   0.0349854
        k(   29) = (   0.2857143   0.4948717   0.0000000), wk =   0.0174927
        k(   30) = (   0.2857143   0.4948717   0.0874818), wk =   0.0349854
        k(   31) = (   0.2857143   0.4948717   0.1749636), wk =   0.0349854
        k(   32) = (   0.2857143   0.4948717   0.2624453), wk =   0.0349854

     Dense  grid:     6363 G-vectors     FFT dimensions: (  24,  24,  36)

     Smooth grid:     2273 G-vectors     FFT dimensions: (  15,  15,  24)

     Estimated max dynamical RAM per process >       8.71 MB

     Estimated total dynamical RAM >      34.85 MB
     Generating pointlists ...
     new r_m :   0.4125 (alat units)  1.7149 (a.u.) for type    1

     Initial potential from superposition of free atoms

     starting charge      15.9987, renormalised to      16.0000
     Starting wfcs are   12 randomized atomic wfcs

     total cpu time spent up to now is        0.5 secs

     Self-consistent Calculation

     iteration #  1     ecut=    30.00 Ry     beta= 0.50
     Davidson diagonalization with overlap
     ethr =  1.00E-02,  avg # of iterations =  3.6

     total cpu time spent up to now is        0.8 secs

     total energy              =    -111.10685340 Ry
     estimated scf accuracy    <       0.41625226 Ry

     total magnetization       =     5.11 Bohr mag/cell
     absolute magnetization    =     5.11 Bohr mag/cell

     iteration #  2     ecut=    30.00 Ry     beta= 0.50
     Davidson diagonalization with overlap
     ethr =  2.60E-03,  avg # of iterations =  1.7

     total cpu time spent up to now is        1.1 secs

     total energy              =    -111.24278349 Ry
     estimated scf accuracy    <       0.06836613 Ry

     total magnetization       =     4.61 Bohr mag/cell
     absolute magnetization    =     4.61 Bohr mag/cell

     iteration #  3     ecut=    30.00 Ry     beta= 0.50
     Davidson diagonalization with overlap
     ethr =  4.27E-04,  avg # of iterations =  1.4

     total cpu time spent up to now is        1.3 secs

     total energy              =    -111.32733681 Ry
     estimated scf accuracy    <       0.06302421 Ry

     total magnetization       =     3.04 Bohr mag/cell
     absolute magnetization    =     3.08 Bohr mag/cell

     iteration #  4     ecut=    30.00 Ry     beta= 0.50
     Davidson diagonalization with overlap
     ethr =  3.94E-04,  avg # of iterations =  1.1

     total cpu time spent up to now is        1.6 secs

     total energy              =    -111.38977309 Ry
     estimated scf accuracy    <       0.02673260 Ry

     total magnetization       =     1.45 Bohr mag/cell
     absolute magnetization    =     1.65 Bohr mag/cell

     iteration #  5     ecut=    30.00 Ry     beta= 0.50
     Davidson diagonalization with overlap
     ethr =  1.67E-04,  avg # of iterations =  1.5

     total cpu time spent up to now is        1.8 secs

     total energy              =    -111.40375552 Ry
     estimated scf accuracy    <       0.01111554 Ry

     total magnetization       =     0.88 Bohr mag/cell
     absolute magnetization    =     0.96 Bohr mag/cell

     iteration #  6     ecut=    30.00 Ry     beta= 0.50
     Davidson diagonalization with overlap
     ethr =  6.95E-05,  avg # of iterations =  1.5

     total cpu time spent up to now is        2.1 secs

     total energy              =    -111.40356934 Ry
     estimated scf accuracy    <       0.00171922 Ry

     total magnetization       =     0.72 Bohr mag/cell
     absolute magnetization    =     0.78 Bohr mag/cell

     iteration #  7     ecut=    30.00 Ry     beta= 0.50
     Davidson diagonalization with overlap
     ethr =  1.07E-05,  avg # of iterations =  2.7

     total cpu time spent up to now is        2.4 secs

     total energy              =    -111.40962833 Ry
     estimated scf accuracy    <       0.00034595 Ry

     total magnetization       =     0.19 Bohr mag/cell
     absolute magnetization    =     0.21 Bohr mag/cell

     iteration #  8     ecut=    30.00 Ry     beta= 0.50
     Davidson diagonalization with overlap
     ethr =  2.16E-06,  avg # of iterations =  2.6

     total cpu time spent up to now is        2.7 secs

     total energy              =    -111.40956900 Ry
     estimated scf accuracy    <       0.00034824 Ry

     total magnetization       =     0.19 Bohr mag/cell
     absolute magnetization    =     0.20 Bohr mag/cell

     iteration #  9     ecut=    30.00 Ry     beta= 0.50
     Davidson diagonalization with overlap
     ethr =  2.16E-06,  avg # of iterations =  1.5

     total cpu time spent up to now is        3.0 secs

     total energy              =    -111.40272806 Ry
     estimated scf accuracy    <       0.00034062 Ry

     total magnetization       =     0.18 Bohr mag/cell
     absolute magnetization    =     0.22 Bohr mag/cell

     iteration # 10     ecut=    30.00 Ry     beta= 0.50
     Davidson diagonalization with overlap
     ethr =  2.13E-06,  avg # of iterations =  3.4

     total cpu time spent up to now is        3.4 secs

     total energy              =    -111.40711269 Ry
     estimated scf accuracy    <       0.00387943 Ry

     total magnetization       =     0.58 Bohr mag/cell
     absolute magnetization    =     0.68 Bohr mag/cell

     iteration # 11     ecut=    30.00 Ry     beta= 0.50
     Davidson diagonalization with overlap
     ethr =  2.13E-06,  avg # of iterations =  2.3

     total cpu time spent up to now is        3.7 secs

     total energy              =    -111.40234984 Ry
     estimated scf accuracy    <       0.00180320 Ry

     total magnetization       =     0.52 Bohr mag/cell
     absolute magnetization    =     0.60 Bohr mag/cell

     iteration # 12     ecut=    30.00 Ry     beta= 0.50
     Davidson diagonalization with overlap
     ethr =  2.13E-06,  avg # of iterations =  2.6

     total cpu time spent up to now is        4.0 secs

     total energy              =    -111.40455770 Ry
     estimated scf accuracy    <       0.00608087 Ry

     total magnetization       =     0.71 Bohr mag/cell
     absolute magnetization    =     0.84 Bohr mag/cell

     iteration # 13     ecut=    30.00 Ry     beta= 0.50
     Davidson diagonalization with overlap
     ethr =  2.13E-06,  avg # of iterations =  1.5

     total cpu time spent up to now is        4.3 secs

     total energy              =    -111.40706467 Ry
     estimated scf accuracy    <       0.00457500 Ry

     total magnetization       =     0.65 Bohr mag/cell
     absolute magnetization    =     0.78 Bohr mag/cell

     iteration # 14     ecut=    30.00 Ry     beta= 0.50
     Davidson diagonalization with overlap
     ethr =  2.13E-06,  avg # of iterations =  2.6

     total cpu time spent up to now is        4.6 secs

     total energy              =    -111.40818424 Ry
     estimated scf accuracy    <       0.00155187 Ry

     total magnetization       =     0.50 Bohr mag/cell
     absolute magnetization    =     0.58 Bohr mag/cell

     iteration # 15     ecut=    30.00 Ry     beta= 0.50
     Davidson diagonalization with overlap
     ethr =  2.13E-06,  avg # of iterations =  3.0

     total cpu time spent up to now is        5.0 secs

     total energy              =    -111.40792068 Ry
     estimated scf accuracy    <       0.00008929 Ry

     total magnetization       =     0.26 Bohr mag/cell
     absolute magnetization    =     0.28 Bohr mag/cell

     iteration # 16     ecut=    30.00 Ry     beta= 0.50
     Davidson diagonalization with overlap
     ethr =  5.58E-07,  avg # of iterations =  3.2

     total cpu time spent up to now is        5.4 secs

     total energy              =    -111.40858993 Ry
     estimated scf accuracy    <       0.00102340 Ry

     total magnetization       =     0.43 Bohr mag/cell
     absolute magnetization    =     0.48 Bohr mag/cell

     iteration # 17     ecut=    30.00 Ry     beta= 0.50
     Davidson diagonalization with overlap
     ethr =  5.58E-07,  avg # of iterations =  3.8

     total cpu time spent up to now is        5.8 secs

     total energy              =    -111.40999008 Ry
     estimated scf accuracy    <       0.00003774 Ry

     total magnetization       =     0.19 Bohr mag/cell
     absolute magnetization    =     0.20 Bohr mag/cell

     iteration # 18     ecut=    30.00 Ry     beta= 0.50
     Davidson diagonalization with overlap
     ethr =  2.36E-07,  avg # of iterations =  1.0

     total cpu time spent up to now is        6.0 secs

     total energy              =    -111.40999893 Ry
     estimated scf accuracy    <       0.00003698 Ry

     total magnetization       =     0.19 Bohr mag/cell
     absolute magnetization    =     0.20 Bohr mag/cell

     iteration # 19     ecut=    30.00 Ry     beta= 0.50
     Davidson diagonalization with overlap
     ethr =  2.31E-07,  avg # of iterations =  1.0

     total cpu time spent up to now is        6.2 secs

     total energy              =    -111.40997401 Ry
     estimated scf accuracy    <       0.00003474 Ry

     total magnetization       =     0.18 Bohr mag/cell
     absolute magnetization    =     0.19 Bohr mag/cell

     iteration # 20     ecut=    30.00 Ry     beta= 0.50
     Davidson diagonalization with overlap
     ethr =  2.17E-07,  avg # of iterations =  1.0

     total cpu time spent up to now is        6.5 secs

     total energy              =    -111.40999931 Ry
     estimated scf accuracy    <       0.00004214 Ry

     total magnetization       =     0.20 Bohr mag/cell
     absolute magnetization    =     0.21 Bohr mag/cell

     iteration # 21     ecut=    30.00 Ry     beta= 0.50
     Davidson diagonalization with overlap
     ethr =  2.17E-07,  avg # of iterations =  1.0

     total cpu time spent up to now is        6.7 secs

     total energy              =    -111.41002140 Ry
     estimated scf accuracy    <       0.00003526 Ry

     total magnetization       =     0.18 Bohr mag/cell
     absolute magnetization    =     0.19 Bohr mag/cell

     iteration # 22     ecut=    30.00 Ry     beta= 0.50
     Davidson diagonalization with overlap
     ethr =  2.17E-07,  avg # of iterations =  1.0

     total cpu time spent up to now is        7.0 secs

     total energy              =    -111.40974673 Ry
     estimated scf accuracy    <       0.00002917 Ry

     total magnetization       =     0.16 Bohr mag/cell
     absolute magnetization    =     0.17 Bohr mag/cell

     iteration # 23     ecut=    30.00 Ry     beta= 0.50
     Davidson diagonalization with overlap
     ethr =  1.82E-07,  avg # of iterations =  3.3

     total cpu time spent up to now is        7.3 secs

     total energy              =    -111.41011779 Ry
     estimated scf accuracy    <       0.00000088 Ry

     total magnetization       =     0.01 Bohr mag/cell
     absolute magnetization    =     0.01 Bohr mag/cell

     iteration # 24     ecut=    30.00 Ry     beta= 0.50
     Davidson diagonalization with overlap
     ethr =  5.48E-09,  avg # of iterations =  4.0

     total cpu time spent up to now is        7.7 secs

     total energy              =    -111.41009683 Ry
     estimated scf accuracy    <       0.00000060 Ry

     total magnetization       =     0.01 Bohr mag/cell
     absolute magnetization    =     0.01 Bohr mag/cell

     iteration # 25     ecut=    30.00 Ry     beta= 0.50
     Davidson diagonalization with overlap
     ethr =  3.73E-09,  avg # of iterations =  4.8

     total cpu time spent up to now is        8.3 secs

     total energy              =    -111.41011605 Ry
     estimated scf accuracy    <       0.00000132 Ry

     total magnetization       =    -0.03 Bohr mag/cell
     absolute magnetization    =     0.03 Bohr mag/cell

     iteration # 26     ecut=    30.00 Ry     beta= 0.50
     Davidson diagonalization with overlap
     ethr =  3.73E-09,  avg # of iterations =  3.3

     total cpu time spent up to now is        8.7 secs

     total energy              =    -111.41011977 Ry
     estimated scf accuracy    <       0.00000021 Ry

     total magnetization       =    -0.01 Bohr mag/cell
     absolute magnetization    =     0.01 Bohr mag/cell

     iteration # 27     ecut=    30.00 Ry     beta= 0.50
     Davidson diagonalization with overlap
     ethr =  1.28E-09,  avg # of iterations =  3.3

     Magnetic moment per site  (integrated on atomic sphere of radius R)
     atom   1 (R=0.412)  charge=  6.3759  magn= -0.0012
     atom   2 (R=0.412)  charge=  6.3759  magn= -0.0012

     total cpu time spent up to now is        9.1 secs

     End of self-consistent calculation

 ------ SPIN UP ------------


          k = 0.0000 0.0000 0.0000 (   287 PWs)   bands (ev):

    11.9097  15.4622  19.7466  19.8987  19.8987  20.5645  20.5645  21.3606
    21.3606  22.9954  23.5262  23.5262

          k = 0.0000 0.0000 0.0875 (   294 PWs)   bands (ev):

    12.1943  15.5005  19.6358  19.8109  19.8109  20.4520  20.4520  21.5987
    21.5987  22.2187  23.5138  23.5138

          k = 0.0000 0.0000 0.1750 (   288 PWs)   bands (ev):

    12.9969  15.5090  19.3655  19.7044  19.7044  20.1866  20.1866  20.6497
    22.1236  22.1236  23.4184  23.4184

          k = 0.0000 0.0000 0.2624 (   294 PWs)   bands (ev):

    14.1252  15.1231  19.1495  19.4454  19.7298  19.7298  19.9085  19.9085
    22.6909  22.6909  23.1485  23.1485

          k = 0.0000 0.1650 0.0000 (   286 PWs)   bands (ev):

    12.8837  16.1041  18.9653  19.8342  20.1490  20.5547  20.6265  20.9441
    21.1511  21.2368  23.7026  27.1294

          k = 0.0000 0.1650 0.0875 (   283 PWs)   bands (ev):

    13.1392  16.1776  19.0117  19.4080  19.9308  20.3507  20.6352  20.9799
    21.3732  21.5462  23.6561  26.3435

          k = 0.0000 0.1650 0.1750 (   286 PWs)   bands (ev):

    13.8625  16.2746  18.7009  19.1809  19.3371  20.2023  20.4654  20.7264
    21.9680  22.1736  23.4785  24.9929

          k = 0.0000 0.1650 0.2624 (   290 PWs)   bands (ev):

    14.9033  15.9030  18.3711  18.7189  19.5222  20.0026  20.2395  20.4386
    22.5895  22.9584  23.1186  23.8673

          k = 0.0000 0.3299 0.0000 (   276 PWs)   bands (ev):

    15.0553  16.5470  17.4897  18.6398  19.9313  20.1975  20.5487  22.1931
    22.2280  22.5931  23.9224  31.3878

          k = 0.0000 0.3299 0.0875 (   284 PWs)   bands (ev):

    15.1165  16.6544  17.4773  18.6127  19.6871  20.2995  20.8180  22.2440
    22.2715  22.4874  23.8333  29.6450

          k = 0.0000 0.3299 0.1750 (   285 PWs)   bands (ev):

    15.3321  16.7525  17.4017  18.6040  19.5841  20.5924  20.9178  22.0399
    22.5519  22.6642  23.5883  27.2787

          k = 0.0000 0.3299 0.2624 (   280 PWs)   bands (ev):

    15.7387  16.2953  17.7790  18.2936  20.0007  20.5629  21.0344  21.5526
    22.8707  23.2433  23.6712  25.2358

          k = 0.0000 0.4949 0.0000 (   276 PWs)   bands (ev):

    15.6456  16.2188  16.3365  19.6965  19.7751  20.0663  20.5966  23.6892
    23.9738  24.0123  25.3083  31.2445

          k = 0.0000 0.4949 0.0875 (   278 PWs)   bands (ev):

    15.5342  15.8325  17.1172  18.5687  19.8641  20.5826  21.4699  23.5944
    23.7485  24.0698  25.0429  30.4118

          k = 0.0000 0.4949 0.1750 (   285 PWs)   bands (ev):

    15.2705  15.9442  17.4815  17.8723  20.3486  20.8340  22.9030  23.1146
    23.7858  24.0344  24.2707  28.6220

          k = 0.0000 0.4949 0.2624 (   278 PWs)   bands (ev):

    15.3582  15.7255  17.4028  17.7549  21.0937  21.7871  21.9969  23.0962
    23.8673  23.9576  24.8462  26.6836

          k = 0.1429 0.2474 0.0000 (   279 PWs)   bands (ev):

    14.5649  16.9364  18.0795  18.1390  19.9527  19.9534  21.0809  21.0985
    21.8809  22.5571  23.7650  30.2778

          k = 0.1429 0.2474 0.0875 (   282 PWs)   bands (ev):

    14.7301  17.0635  17.9356  18.1598  19.7875  20.0046  20.8569  21.2792
    22.1394  22.4525  23.7381  28.8957

          k = 0.1429 0.2474 0.1750 (   287 PWs)   bands (ev):

    15.1945  17.3733  17.4427  18.4056  19.3506  19.9632  20.6470  21.5715
    22.4839  22.5576  23.6216  26.7802

          k = 0.1429 0.2474 0.2624 (   292 PWs)   bands (ev):

    15.8731  16.6485  17.9708  18.5307  19.0538  19.5212  20.8941  21.3035
    22.9550  23.1801  23.5869  24.9238

          k = 0.1429 0.4124 0.0000 (   282 PWs)   bands (ev):

    16.3998  16.6882  16.7693  18.3526  19.4029  20.3500  20.4028  22.3403
    23.5075  23.7825  24.9780  34.0650

          k = 0.1429 0.4124 0.0875 (   283 PWs)   bands (ev):

    16.1193  16.7636  17.1091  18.2139  19.5361  20.3772  20.4961  22.3383
    23.4410  23.6397  25.0734  31.5803

          k = 0.1429 0.4124 0.1750 (   284 PWs)   bands (ev):

    15.9337  16.7521  17.3375  18.4757  19.4270  20.3666  20.8829  22.3057
    22.9858  23.9211  25.2141  29.0794

          k = 0.1429 0.4124 0.2624 (   284 PWs)   bands (ev):

    16.0204  16.3472  17.8449  18.4111  19.7069  20.2315  21.1327  21.6459
    23.5939  24.0383  25.6253  26.9654

          k = 0.1429 0.5774 0.0000 (   278 PWs)   bands (ev):

    16.1512  16.1615  16.8503  19.3381  19.4096  19.8693  20.8022  23.6273
    23.7828  23.8487  27.6233  30.4432

          k = 0.1429 0.5774 0.0875 (   279 PWs)   bands (ev):

    15.8514  16.2675  17.3959  18.4459  19.3381  20.6932  20.9324  23.4299
    23.6125  23.9338  27.5840  30.2434

          k = 0.1429 0.5774 0.1750 (   278 PWs)   bands (ev):

    15.6496  16.4588  17.5915  18.1851  19.1803  21.3062  21.3840  22.6865
    23.5896  24.0448  27.5666  29.6461

          k = 0.1429 0.5774 0.2624 (   278 PWs)   bands (ev):

    15.7769  16.1898  17.6003  18.1064  19.8114  20.8574  21.9852  22.3135
    23.6513  23.9061  27.9377  28.7648

          k = 0.2857 0.4949 0.0000 (   280 PWs)   bands (ev):

    16.2978  17.2888  17.5834  17.9974  19.1577  19.7382  21.0001  22.7957
    23.5460  23.7749  28.4286  33.5605

          k = 0.2857 0.4949 0.0875 (   281 PWs)   bands (ev):

    16.3688  17.3547  17.7070  17.7463  19.4089  19.5730  20.9823  22.8483
    23.1895  23.8570  28.6395  33.1707

          k = 0.2857 0.4949 0.1750 (   283 PWs)   bands (ev):

    16.5365  17.2517  17.6747  18.0451  19.2227  19.6592  20.9714  22.3060
    23.1611  23.9728  29.1265  32.0711

          k = 0.2857 0.4949 0.2624 (   275 PWs)   bands (ev):

    16.7316  16.9555  17.9943  18.2679  19.1249  19.5105  21.0970  21.5272
    23.5721  23.9020  29.8143  30.8078

 ------ SPIN DOWN ----------


          k = 0.0000 0.0000 0.0000 (   287 PWs)   bands (ev):

    11.9098  15.4612  19.7450  19.8970  19.8970  20.5628  20.5628  21.3593
    21.3593  22.9957  23.5248  23.5248

          k = 0.0000 0.0000 0.0875 (   294 PWs)   bands (ev):

    12.1944  15.4995  19.6342  19.8092  19.8092  20.4502  20.4502  21.5974
    21.5974  22.2188  23.5123  23.5123

          k = 0.0000 0.0000 0.1750 (   288 PWs)   bands (ev):

    12.9969  15.5082  19.3640  19.7028  19.7028  20.1849  20.1849  20.6494
    22.1221  22.1221  23.4169  23.4169

          k = 0.0000 0.0000 0.2624 (   294 PWs)   bands (ev):

    14.1251  15.1227  19.1482  19.4446  19.7282  19.7282  19.9069  19.9069
    22.6894  22.6894  23.1471  23.1471

          k = 0.0000 0.1650 0.0000 (   286 PWs)   bands (ev):

    12.8838  16.1030  18.9638  19.8334  20.1474  20.5530  20.6248  20.9428
    21.1493  21.2358  23.7012  27.1288

          k = 0.0000 0.1650 0.0875 (   283 PWs)   bands (ev):

    13.1393  16.1765  19.0102  19.4072  19.9292  20.3491  20.6338  20.9782
    21.3717  21.5448  23.6546  26.3427

          k = 0.0000 0.1650 0.1750 (   286 PWs)   bands (ev):

    13.8625  16.2737  18.7001  19.1793  19.3356  20.2007  20.4640  20.7247
    21.9665  22.1721  23.4770  24.9918

          k = 0.0000 0.1650 0.2624 (   290 PWs)   bands (ev):

    14.9032  15.9026  18.3700  18.7176  19.5207  20.0011  20.2379  20.4369
    22.5880  22.9570  23.1171  23.8660

          k = 0.0000 0.3299 0.0000 (   276 PWs)   bands (ev):

    15.0551  16.5458  17.4890  18.6386  19.9298  20.1963  20.5477  22.1913
    22.2263  22.5913  23.9210  31.3873

          k = 0.0000 0.3299 0.0875 (   284 PWs)   bands (ev):

    15.1163  16.6532  17.4767  18.6115  19.6857  20.2983  20.8169  22.2422
    22.2698  22.4856  23.8318  29.6443

          k = 0.0000 0.3299 0.1750 (   285 PWs)   bands (ev):

    15.3318  16.7516  17.4008  18.6027  19.5828  20.5911  20.9167  22.0382
    22.5501  22.6626  23.5867  27.2778

          k = 0.0000 0.3299 0.2624 (   280 PWs)   bands (ev):

    15.7382  16.2947  17.7778  18.2922  19.9995  20.5617  21.0331  21.5511
    22.8689  23.2416  23.6699  25.2347

          k = 0.0000 0.4949 0.0000 (   276 PWs)   bands (ev):

    15.6445  16.2181  16.3356  19.6953  19.7745  20.0652  20.5951  23.6873
    23.9718  24.0109  25.3068  31.2436

          k = 0.0000 0.4949 0.0875 (   278 PWs)   bands (ev):

    15.5334  15.8314  17.1163  18.5678  19.8629  20.5811  21.4690  23.5928
    23.7466  24.0679  25.0415  30.4111

          k = 0.0000 0.4949 0.1750 (   285 PWs)   bands (ev):

    15.2698  15.9432  17.4806  17.8711  20.3474  20.8327  22.9015  23.1139
    23.7838  24.0325  24.2694  28.6213

          k = 0.0000 0.4949 0.2624 (   278 PWs)   bands (ev):

    15.3574  15.7247  17.4015  17.7536  21.0925  21.7860  21.9956  23.0950
    23.8654  23.9557  24.8455  26.6829

          k = 0.1429 0.2474 0.0000 (   279 PWs)   bands (ev):

    14.5649  16.9352  18.0781  18.1383  19.9515  19.9518  21.0791  21.0974
    21.8791  22.5553  23.7636  30.2772

          k = 0.1429 0.2474 0.0875 (   282 PWs)   bands (ev):

    14.7301  17.0622  17.9349  18.1584  19.7862  20.0030  20.8556  21.2776
    22.1377  22.4507  23.7366  28.8950

          k = 0.1429 0.2474 0.1750 (   287 PWs)   bands (ev):

    15.1944  17.3727  17.4415  18.4042  19.3493  19.9617  20.6457  21.5700
    22.4823  22.5559  23.6200  26.7792

          k = 0.1429 0.2474 0.2624 (   292 PWs)   bands (ev):

    15.8729  16.6482  17.9695  18.5294  19.0523  19.5198  20.8927  21.3021
    22.9533  23.1784  23.5855  24.9226

          k = 0.1429 0.4124 0.0000 (   282 PWs)   bands (ev):

    16.3991  16.6875  16.7682  18.3517  19.4018  20.3485  20.4017  22.3384
    23.5056  23.7811  24.9764  34.0643

          k = 0.1429 0.4124 0.0875 (   283 PWs)   bands (ev):

    16.1187  16.7626  17.1084  18.2128  19.5349  20.3760  20.4947  22.3365
    23.4395  23.6379  25.0718  31.5797

          k = 0.1429 0.4124 0.1750 (   284 PWs)   bands (ev):

    15.9330  16.7514  17.3363  18.4745  19.4258  20.3654  20.8817  22.3042
    22.9842  23.9192  25.2126  29.0787

          k = 0.1429 0.4124 0.2624 (   284 PWs)   bands (ev):

    16.0197  16.3465  17.8436  18.4098  19.7058  20.2303  21.1313  21.6445
    23.5922  24.0365  25.6242  26.9646

          k = 0.1429 0.5774 0.0000 (   278 PWs)   bands (ev):

    16.1504  16.1603  16.8494  19.3374  19.4085  19.8683  20.8007  23.6254
    23.7814  23.8468  27.6221  30.4422

          k = 0.1429 0.5774 0.0875 (   279 PWs)   bands (ev):

    15.8506  16.2663  17.3949  18.4451  19.3369  20.6922  20.9309  23.4285
    23.6106  23.9319  27.5829  30.2424

          k = 0.1429 0.5774 0.1750 (   278 PWs)   bands (ev):

    15.6488  16.4578  17.5905  18.1840  19.1792  21.3052  21.3826  22.6850
    23.5878  24.0429  27.5657  29.6452

          k = 0.1429 0.5774 0.2624 (   278 PWs)   bands (ev):

    15.7762  16.1890  17.5991  18.1050  19.8104  20.8564  21.9838  22.3120
    23.6495  23.9044  27.9370  28.7640

          k = 0.2857 0.4949 0.0000 (   280 PWs)   bands (ev):

    16.2970  17.2877  17.5823  17.9967  19.1567  19.7372  20.9985  22.7939
    23.5446  23.7730  28.4275  33.5598

          k = 0.2857 0.4949 0.0875 (   281 PWs)   bands (ev):

    16.3680  17.3537  17.7058  17.7456  19.4079  19.5719  20.9808  22.8465
    23.1881  23.8551  28.6384  33.1701

          k = 0.2857 0.4949 0.1750 (   283 PWs)   bands (ev):

    16.5357  17.2509  17.6736  18.0440  19.2215  19.6581  20.9699  22.3045
    23.1594  23.9710  29.1255  32.0705

          k = 0.2857 0.4949 0.2624 (   275 PWs)   bands (ev):

    16.7308  16.9547  17.9933  18.2669  19.1236  19.5093  21.0955  21.5257
    23.5704  23.9002  29.8134  30.8070

     the Fermi energy is    22.4193 ev

!    total energy              =    -111.41012115 Ry
     estimated scf accuracy    <          3.2E-09 Ry
     smearing contrib. (-TS)   =      -0.00077857 Ry
     internal energy E=F+TS    =    -111.40934258 Ry

     The total energy is F=E-TS. E is the sum of the following terms:
     one-electron contribution =      32.89667089 Ry
     hartree contribution      =       8.92452829 Ry
     xc contribution           =     -53.41860283 Ry
     ewald contribution        =     -99.81193893 Ry

     total magnetization       =    -0.00 Bohr mag/cell
     absolute magnetization    =     0.00 Bohr mag/cell

     convergence has been achieved in  27 iterations

     Forces acting on atoms (cartesian axes, Ry/au):

     atom    1 type  1   force =     0.00000000    0.00000000    0.00000000
     atom    2 type  1   force =     0.00000000   -0.00000000    0.00000000
     The non-local contrib.  to forces
     atom    1 type  1   force =     0.00000000   -0.00000000    0.00000000
     atom    2 type  1   force =     0.00000000    0.00000000    0.00000000
     The ionic contribution  to forces
     atom    1 type  1   force =    -0.00000000   -0.00000081   -0.00006735
     atom    2 type  1   force =    -0.00000000    0.00000081    0.00006735
     The local contribution  to forces
     atom    1 type  1   force =    -0.00000048    0.00000082   -0.00002655
     atom    2 type  1   force =    -0.00000048    0.00002842    0.00008916
     The core correction contribution to forces
     atom    1 type  1   force =    -0.00000013    0.00000026   -0.00000339
     atom    2 type  1   force =    -0.00000013    0.00000546    0.00001843
     The Hubbard contrib.    to forces
     atom    1 type  1   force =     0.00000000    0.00000000    0.00000000
     atom    2 type  1   force =     0.00000000    0.00000000    0.00000000
     The SCF correction term to forces
     atom    1 type  1   force =     0.00000000    0.00000000    0.00000000
     atom    2 type  1   force =     0.00000000   -0.00000000   -0.00000000

     Total force =     0.000000     Total SCF correction =     0.000000


     Computing stress (Cartesian axis) and pressure

          total   stress  (Ry/bohr**3)                   (kbar)     P=     1655.22
   0.01198789  -0.00000000   0.00000000         1763.48       -0.00        0.00
  -0.00000000   0.01198789  -0.00000000           -0.00     1763.48       -0.00
   0.00000000  -0.00000000   0.00978010            0.00       -0.00     1438.70


     init_run     :      0.31s CPU      0.32s WALL (       1 calls)
     electrons    :      9.26s CPU      8.62s WALL (       1 calls)
     forces       :      0.07s CPU      0.07s WALL (       1 calls)
     stress       :      0.25s CPU      0.24s WALL (       1 calls)

     Called by init_run:
     wfcinit      :      0.07s CPU      0.08s WALL (       1 calls)
     potinit      :      0.04s CPU      0.04s WALL (       1 calls)
     hinit0       :      0.19s CPU      0.19s WALL (       1 calls)

     Called by electrons:
     c_bands      :      7.48s CPU      7.13s WALL (      27 calls)
     sum_band     :      1.29s CPU      1.06s WALL (      27 calls)
     v_of_rho     :      0.24s CPU      0.22s WALL (      28 calls)
     newd         :      0.17s CPU      0.14s WALL (      28 calls)
     mix_rho      :      0.05s CPU      0.04s WALL (      27 calls)

     Called by c_bands:
     init_us_2    :      0.19s CPU      0.17s WALL (    3648 calls)
     init_us_2:cp :      0.18s CPU      0.16s WALL (    3648 calls)
     cegterg      :      6.55s CPU      6.06s WALL (    1728 calls)

     Called by *egterg:
     cdiaghg      :      1.63s CPU      1.53s WALL (    5822 calls)
     h_psi        :      3.91s CPU      3.60s WALL (    5886 calls)
     s_psi        :      0.15s CPU      0.13s WALL (    5886 calls)
     g_psi        :      0.02s CPU      0.02s WALL (    4094 calls)

     Called by h_psi:
     h_psi:calbec :      0.41s CPU      0.39s WALL (    5886 calls)
     vloc_psi     :      3.32s CPU      3.04s WALL (    5886 calls)
     add_vuspsi   :      0.14s CPU      0.13s WALL (    5886 calls)

     General routines
     calbec       :      0.56s CPU      0.53s WALL (    7934 calls)
     fft          :      0.24s CPU      0.22s WALL (     738 calls)
     ffts         :      0.04s CPU      0.04s WALL (     110 calls)
     fftw         :      3.30s CPU      2.97s WALL (  131558 calls)
     interpolate  :      0.05s CPU      0.04s WALL (      56 calls)

     Parallel routines

     PWSCF        :     10.04s CPU      9.62s WALL


   This run was terminated on:  16:50: 3   1Nov2023            

=------------------------------------------------------------------------------=
   JOB DONE.
=------------------------------------------------------------------------------=
