
     Program PWSCF v.7.2 starts on  3Nov2023 at 11:11: 0 

     This program is part of the open-source Quantum ESPRESSO suite
     for quantum simulation of materials; please cite
         "P. Giannozzi et al., J. Phys.:Condens. Matter 21 395502 (2009);
         "P. Giannozzi et al., J. Phys.:Condens. Matter 29 465901 (2017);
         "P. Giannozzi et al., J. Chem. Phys. 152 154105 (2020);
          URL http://www.quantum-espresso.org", 
     in publications or presentations arising from this work. More details at
     http://www.quantum-espresso.org/quote

     Parallel version (MPI), running on     8 processors

     MPI processes distributed on     8 nodes
     185420 MiB available memory on the printing compute node when the environment starts

     Waiting for input...
     Reading input from standard input

     Current dimensions of program PWSCF are:
     Max number of different atomic species (ntypx) = 10
     Max number of k-points (npk) =  40000
     Max angular momentum in pseudopotentials (lmaxx) =  4
     Message from routine setup:
     using ibrav=0 with symmetry is DISCOURAGED, use correct ibrav instead

     R & G space division:  proc/nbgrp/npool/nimage =       8
     Subspace diagonalization in iterative solution of the eigenvalue problem:
     a serial algorithm will be used


     Parallelization info
     --------------------
     sticks:   dense  smooth     PW     G-vecs:    dense   smooth      PW
     Min          79      39     13                 1301      461      90
     Max          80      40     14                 1303      463      91
     Sum         637     313    109                10417     3695     725

     Using Slab Decomposition



     bravais-lattice index     =            0
     lattice parameter (alat)  =       5.3450  a.u.
     unit-cell volume          =     107.9734 (a.u.)^3
     number of atoms/cell      =            1
     number of atomic types    =            1
     number of electrons       =        11.00
     number of Kohn-Sham states=           10
     kinetic-energy cutoff     =      40.0000  Ry
     charge density cutoff     =     320.0000  Ry
     scf convergence threshold =      1.0E-07
     mixing beta               =       0.5000
     number of iterations used =            8  plain     mixing
     energy convergence thresh.=      1.0E-04
     force convergence thresh. =      1.0E-03
     press convergence thresh. =      5.0E-01
     Exchange-correlation=  SLA  PZ   NOGX NOGC
                           (   1   1   0   0   0   0   0)
     nstep                     =           50


     celldm(1)=   5.344953  celldm(2)=   0.000000  celldm(3)=   0.000000
     celldm(4)=   0.000000  celldm(5)=   0.000000  celldm(6)=   0.000000

     crystal axes: (cart. coord. in units of alat)
               a(1) = (   0.000000   0.707107   0.707107 )  
               a(2) = (   0.707107   0.000000   0.707107 )  
               a(3) = (   0.707107   0.707107   0.000000 )  

     reciprocal axes: (cart. coord. in units 2 pi/alat)
               b(1) = ( -0.707107  0.707107  0.707107 )  
               b(2) = (  0.707107 -0.707107  0.707107 )  
               b(3) = (  0.707107  0.707107 -0.707107 )  


     PseudoPot. # 1 for Au read from file:
     /home/gridsan/epan1/labutil/lab3_samples/pseudopotentials/Au.pz-d-rrkjus.UPF
     MD5 check sum: 424ffd4ac9c90487cbadcd287136c95b
     Pseudo is Ultrasoft, Zval = 11.0
     Generated by new atomic code, or converted to UPF format
     Using radial grid of 1279 points,  3 beta functions with: 
                l(1) =   2
                l(2) =   2
                l(3) =   1
     Q(r) pseudized with 0 coefficients 


     atomic species   valence    mass     pseudopotential
        Au            11.00   196.96657     Au( 1.00)

     Starting magnetic structure 
     atomic species   magnetization
        Au           0.700

     48 Sym. Ops., with inversion, found



   Cartesian axes

     site n.     atom                  positions (alat units)
         1           Au  tau(   1) = (   0.0000000   0.0000000   0.0000000  )

     number of k points=   120  Methfessel-Paxton smearing, width (Ry)=  0.0200

     Number of k-points >= 100: set verbosity='high' to print them.

     Dense  grid:    10417 G-vectors     FFT dimensions: (  32,  32,  32)

     Smooth grid:     3695 G-vectors     FFT dimensions: (  24,  24,  24)

     Estimated max dynamical RAM per process >       6.73 MB

     Estimated total dynamical RAM >      53.87 MB
     Generating pointlists ...
     new r_m :   0.4125 (alat units)  2.2048 (a.u.) for type    1

     Initial potential from superposition of free atoms

     starting charge      10.9999, renormalised to      11.0000
     Starting wfcs are    9 randomized atomic wfcs +    1 random wfcs

     total cpu time spent up to now is        0.6 secs

     Self-consistent Calculation

     iteration #  1     ecut=    40.00 Ry     beta= 0.50
     Davidson diagonalization with overlap
     ethr =  1.00E-02,  avg # of iterations =  5.4

     total cpu time spent up to now is        2.1 secs

     total energy              =     -66.48810167 Ry
     estimated scf accuracy    <       0.46150168 Ry

     total magnetization       =     1.27 Bohr mag/cell
     absolute magnetization    =     1.32 Bohr mag/cell

     iteration #  2     ecut=    40.00 Ry     beta= 0.50
     Davidson diagonalization with overlap
     ethr =  4.20E-03,  avg # of iterations =  1.4

     total cpu time spent up to now is        3.0 secs

     total energy              =     -66.76996239 Ry
     estimated scf accuracy    <       0.14751347 Ry

     total magnetization       =     0.36 Bohr mag/cell
     absolute magnetization    =     0.51 Bohr mag/cell

     iteration #  3     ecut=    40.00 Ry     beta= 0.50
     Davidson diagonalization with overlap
     ethr =  1.34E-03,  avg # of iterations =  1.0

     total cpu time spent up to now is        3.8 secs

     total energy              =     -66.85715501 Ry
     estimated scf accuracy    <       0.04494811 Ry

     total magnetization       =     0.26 Bohr mag/cell
     absolute magnetization    =     0.36 Bohr mag/cell

     iteration #  4     ecut=    40.00 Ry     beta= 0.50
     Davidson diagonalization with overlap
     ethr =  4.09E-04,  avg # of iterations =  1.6

     total cpu time spent up to now is        4.7 secs

     total energy              =     -66.87216311 Ry
     estimated scf accuracy    <       0.00244438 Ry

     total magnetization       =    -0.02 Bohr mag/cell
     absolute magnetization    =     0.05 Bohr mag/cell

     iteration #  5     ecut=    40.00 Ry     beta= 0.50
     Davidson diagonalization with overlap
     ethr =  2.22E-05,  avg # of iterations =  2.2

     total cpu time spent up to now is        5.8 secs

     total energy              =     -66.87298042 Ry
     estimated scf accuracy    <       0.00019938 Ry

     total magnetization       =    -0.01 Bohr mag/cell
     absolute magnetization    =     0.02 Bohr mag/cell

     iteration #  6     ecut=    40.00 Ry     beta= 0.50
     Davidson diagonalization with overlap
     ethr =  1.81E-06,  avg # of iterations =  2.0

     total cpu time spent up to now is        6.7 secs

     total energy              =     -66.87305988 Ry
     estimated scf accuracy    <       0.00002466 Ry

     total magnetization       =     0.01 Bohr mag/cell
     absolute magnetization    =     0.01 Bohr mag/cell

     iteration #  7     ecut=    40.00 Ry     beta= 0.50
     Davidson diagonalization with overlap
     ethr =  2.24E-07,  avg # of iterations =  1.5

     total cpu time spent up to now is        7.7 secs

     total energy              =     -66.87307000 Ry
     estimated scf accuracy    <       0.00000196 Ry

     total magnetization       =    -0.00 Bohr mag/cell
     absolute magnetization    =     0.00 Bohr mag/cell

     iteration #  8     ecut=    40.00 Ry     beta= 0.50
     Davidson diagonalization with overlap
     ethr =  1.78E-08,  avg # of iterations =  1.8

     Magnetic moment per site  (integrated on atomic sphere of radius R)
     atom   1 (R=0.413)  charge=  9.2958  magn= -0.0001

     total cpu time spent up to now is        8.6 secs

     End of self-consistent calculation

     Number of k-points >= 100: set verbosity='high' to print the bands.

     the Fermi energy is    17.2181 ev

!    total energy              =     -66.87307049 Ry
     estimated scf accuracy    <       0.00000007 Ry
     smearing contrib. (-TS)   =      -0.00012393 Ry
     internal energy E=F+TS    =     -66.87294656 Ry

     The total energy is F=E-TS. E is the sum of the following terms:
     one-electron contribution =      10.18468567 Ry
     hartree contribution      =       6.82871328 Ry
     xc contribution           =     -10.49365864 Ry
     ewald contribution        =     -73.39268687 Ry

     total magnetization       =    -0.00 Bohr mag/cell
     absolute magnetization    =     0.00 Bohr mag/cell

     convergence has been achieved in   8 iterations

     Forces acting on atoms (cartesian axes, Ry/au):

     atom    1 type  1   force =     0.00000000    0.00000000    0.00000000
     The non-local contrib.  to forces
     atom    1 type  1   force =     0.00000000    0.00000000    0.00000000
     The ionic contribution  to forces
     atom    1 type  1   force =    -0.00000000   -0.00000000   -0.00000000
     The local contribution  to forces
     atom    1 type  1   force =     0.00000000    0.00000000    0.00000000
     The core correction contribution to forces
     atom    1 type  1   force =     0.00000000    0.00000000    0.00000000
     The Hubbard contrib.    to forces
     atom    1 type  1   force =     0.00000000    0.00000000    0.00000000
     The SCF correction term to forces
     atom    1 type  1   force =     0.00000000    0.00000000    0.00000000

     Total force =     0.000000     Total SCF correction =     0.000000


     Computing stress (Cartesian axis) and pressure

          total   stress  (Ry/bohr**3)                   (kbar)     P=       75.66
   0.00051431   0.00000000   0.00000000           75.66        0.00        0.00
   0.00000000   0.00051431   0.00000000            0.00       75.66        0.00
   0.00000000   0.00000000   0.00051431            0.00        0.00       75.66


     BFGS Geometry Optimization
     Energy error            =      0.0E+00 Ry
     Gradient error          =      0.0E+00 Ry/Bohr
     Cell gradient error     =      7.6E+01 kbar

     number of scf cycles    =   1
     number of bfgs steps    =   0

     enthalpy           new  =     -66.8730704935 Ry

     new trust radius        =       0.0267208634 bohr
     new conv_thr            =       0.0000001000 Ry

     new unit-cell volume =    112.19199 a.u.^3 (    16.62514 Ang^3 )
     density =     19.67326 g/cm^3

CELL_PARAMETERS (angstrom)
   0.000000000   2.025715336   2.025715336
   2.025715336   0.000000000   2.025715336
   2.025715336   2.025715336   0.000000000

ATOMIC_POSITIONS (angstrom)
Au            0.0000000000        0.0000000000        0.0000000000



     Writing config-only to output data dir /home/gridsan/epan1/labutil/lab3_samples/problem3/Lab3/Au_a_4.0_ecut_40_nk_15/pwscf.save/
     NEW-OLD atomic charge density approx. for the potential
     extrapolated charge   11.41362, renormalised to   11.00000
     Generating pointlists ...

     total cpu time spent up to now is        9.0 secs

     Self-consistent Calculation

     iteration #  1     ecut=    40.00 Ry     beta= 0.50
     Davidson diagonalization with overlap
     ethr =  1.00E-06,  avg # of iterations =  3.6

     total cpu time spent up to now is       11.6 secs

     total energy              =     -66.84563386 Ry
     estimated scf accuracy    <       0.02410310 Ry

     total magnetization       =    -0.00 Bohr mag/cell
     absolute magnetization    =     0.00 Bohr mag/cell

     iteration #  2     ecut=    40.00 Ry     beta= 0.50
     Davidson diagonalization with overlap
     ethr =  2.19E-04,  avg # of iterations =  2.0

     total cpu time spent up to now is       12.8 secs

     total energy              =     -66.87463455 Ry
     estimated scf accuracy    <       0.02928079 Ry

     total magnetization       =    -0.00 Bohr mag/cell
     absolute magnetization    =     0.00 Bohr mag/cell

     iteration #  3     ecut=    40.00 Ry     beta= 0.50
     Davidson diagonalization with overlap
     ethr =  2.19E-04,  avg # of iterations =  1.0

     total cpu time spent up to now is       13.6 secs

     total energy              =     -66.87399784 Ry
     estimated scf accuracy    <       0.00648565 Ry

     total magnetization       =    -0.00 Bohr mag/cell
     absolute magnetization    =     0.00 Bohr mag/cell

     iteration #  4     ecut=    40.00 Ry     beta= 0.50
     Davidson diagonalization with overlap
     ethr =  5.90E-05,  avg # of iterations =  1.0

     total cpu time spent up to now is       14.5 secs

     total energy              =     -66.87431067 Ry
     estimated scf accuracy    <       0.00124034 Ry

     total magnetization       =    -0.00 Bohr mag/cell
     absolute magnetization    =     0.00 Bohr mag/cell

     iteration #  5     ecut=    40.00 Ry     beta= 0.50
     Davidson diagonalization with overlap
     ethr =  1.13E-05,  avg # of iterations =  1.0

     total cpu time spent up to now is       15.4 secs

     total energy              =     -66.87377438 Ry
     estimated scf accuracy    <       0.00097668 Ry

     total magnetization       =    -0.00 Bohr mag/cell
     absolute magnetization    =     0.00 Bohr mag/cell

     iteration #  6     ecut=    40.00 Ry     beta= 0.50
     Davidson diagonalization with overlap
     ethr =  8.88E-06,  avg # of iterations =  2.0

     total cpu time spent up to now is       16.4 secs

     total energy              =     -66.87397907 Ry
     estimated scf accuracy    <       0.00000325 Ry

     total magnetization       =    -0.00 Bohr mag/cell
     absolute magnetization    =     0.00 Bohr mag/cell

     iteration #  7     ecut=    40.00 Ry     beta= 0.50
     Davidson diagonalization with overlap
     ethr =  2.96E-08,  avg # of iterations =  2.1

     total cpu time spent up to now is       17.5 secs

     total energy              =     -66.87397257 Ry
     estimated scf accuracy    <       0.00002370 Ry

     total magnetization       =    -0.00 Bohr mag/cell
     absolute magnetization    =     0.00 Bohr mag/cell

     iteration #  8     ecut=    40.00 Ry     beta= 0.50
     Davidson diagonalization with overlap
     ethr =  2.96E-08,  avg # of iterations =  2.0

     total cpu time spent up to now is       18.5 secs

     total energy              =     -66.87397767 Ry
     estimated scf accuracy    <       0.00000283 Ry

     total magnetization       =    -0.00 Bohr mag/cell
     absolute magnetization    =     0.00 Bohr mag/cell

     iteration #  9     ecut=    40.00 Ry     beta= 0.50
     Davidson diagonalization with overlap
     ethr =  2.58E-08,  avg # of iterations =  1.0

     total cpu time spent up to now is       19.4 secs

     total energy              =     -66.87397781 Ry
     estimated scf accuracy    <       0.00000229 Ry

     total magnetization       =    -0.00 Bohr mag/cell
     absolute magnetization    =     0.00 Bohr mag/cell

     iteration # 10     ecut=    40.00 Ry     beta= 0.50
     Davidson diagonalization with overlap
     ethr =  2.09E-08,  avg # of iterations =  1.0

     total cpu time spent up to now is       20.3 secs

     total energy              =     -66.87397721 Ry
     estimated scf accuracy    <       0.00000239 Ry

     total magnetization       =    -0.00 Bohr mag/cell
     absolute magnetization    =     0.00 Bohr mag/cell

     iteration # 11     ecut=    40.00 Ry     beta= 0.50
     Davidson diagonalization with overlap
     ethr =  2.09E-08,  avg # of iterations =  1.0

     total cpu time spent up to now is       21.2 secs

     total energy              =     -66.87397688 Ry
     estimated scf accuracy    <       0.00000095 Ry

     total magnetization       =    -0.00 Bohr mag/cell
     absolute magnetization    =     0.00 Bohr mag/cell

     iteration # 12     ecut=    40.00 Ry     beta= 0.50
     Davidson diagonalization with overlap
     ethr =  8.61E-09,  avg # of iterations =  1.8

     Magnetic moment per site  (integrated on atomic sphere of radius R)
     atom   1 (R=0.413)  charge=  9.2462  magn= -0.0000

     total cpu time spent up to now is       22.4 secs

     End of self-consistent calculation

     Number of k-points >= 100: set verbosity='high' to print the bands.

     the Fermi energy is    16.2801 ev

!    total energy              =     -66.87397701 Ry
     estimated scf accuracy    <       0.00000002 Ry
     smearing contrib. (-TS)   =      -0.00012063 Ry
     internal energy E=F+TS    =     -66.87385639 Ry

     The total energy is F=E-TS. E is the sum of the following terms:
     one-electron contribution =       8.88543654 Ry
     hartree contribution      =       7.16094438 Ry
     xc contribution           =     -10.45923000 Ry
     ewald contribution        =     -72.46100732 Ry

     total magnetization       =    -0.00 Bohr mag/cell
     absolute magnetization    =     0.00 Bohr mag/cell

     convergence has been achieved in  12 iterations

     Forces acting on atoms (cartesian axes, Ry/au):

     atom    1 type  1   force =     0.00000000    0.00000000    0.00000000
     The non-local contrib.  to forces
     atom    1 type  1   force =     0.00000000   -0.00000000    0.00000000
     The ionic contribution  to forces
     atom    1 type  1   force =    -0.00000000   -0.00000000   -0.00000000
     The local contribution  to forces
     atom    1 type  1   force =     0.00000000    0.00000000    0.00000000
     The core correction contribution to forces
     atom    1 type  1   force =     0.00000000    0.00000000    0.00000000
     The Hubbard contrib.    to forces
     atom    1 type  1   force =     0.00000000    0.00000000    0.00000000
     The SCF correction term to forces
     atom    1 type  1   force =     0.00000000    0.00000000    0.00000000

     Total force =     0.000000     Total SCF correction =     0.000000


     Computing stress (Cartesian axis) and pressure

          total   stress  (Ry/bohr**3)                   (kbar)     P=       -6.49
  -0.00004415  -0.00000000  -0.00000000           -6.49       -0.00       -0.00
   0.00000000  -0.00004415  -0.00000000            0.00       -6.49       -0.00
  -0.00000000   0.00000000  -0.00004415           -0.00        0.00       -6.49

     Energy error            =      9.1E-04 Ry
     Gradient error          =      0.0E+00 Ry/Bohr
     Cell gradient error     =      6.5E+00 kbar

     number of scf cycles    =   2
     number of bfgs steps    =   1

     enthalpy           old  =     -66.8730704935 Ry
     enthalpy           new  =     -66.8739770123 Ry

     CASE: enthalpy          _new < enthalpy          _old

     new trust radius        =       0.0021764624 bohr
     new conv_thr            =       0.0000000010 Ry

     new unit-cell volume =    111.84654 a.u.^3 (    16.57395 Ang^3 )
     density =     19.73402 g/cm^3

CELL_PARAMETERS (angstrom)
   0.000000000   2.023634112   2.023634112
   2.023634112   0.000000000   2.023634112
   2.023634112   2.023634112   0.000000000

ATOMIC_POSITIONS (angstrom)
Au            0.0000000000        0.0000000000        0.0000000000



     Writing config-only to output data dir /home/gridsan/epan1/labutil/lab3_samples/problem3/Lab3/Au_a_4.0_ecut_40_nk_15/pwscf.save/
     NEW-OLD atomic charge density approx. for the potential
     extrapolated charge   10.96603, renormalised to   11.00000
     Generating pointlists ...

     total cpu time spent up to now is       23.7 secs

     Self-consistent Calculation

     iteration #  1     ecut=    40.00 Ry     beta= 0.50
     Davidson diagonalization with overlap
     ethr =  1.00E-06,  avg # of iterations =  2.0

     total cpu time spent up to now is       24.9 secs

     total energy              =     -66.87379512 Ry
     estimated scf accuracy    <       0.00016866 Ry

     total magnetization       =    -0.00 Bohr mag/cell
     absolute magnetization    =     0.00 Bohr mag/cell

     iteration #  2     ecut=    40.00 Ry     beta= 0.50
     Davidson diagonalization with overlap
     ethr =  1.53E-06,  avg # of iterations =  2.0

     total cpu time spent up to now is       26.0 secs

     total energy              =     -66.87398928 Ry
     estimated scf accuracy    <       0.00019220 Ry

     total magnetization       =    -0.00 Bohr mag/cell
     absolute magnetization    =     0.00 Bohr mag/cell

     iteration #  3     ecut=    40.00 Ry     beta= 0.50
     Davidson diagonalization with overlap
     ethr =  1.53E-06,  avg # of iterations =  1.0

     total cpu time spent up to now is       26.9 secs

     total energy              =     -66.87398765 Ry
     estimated scf accuracy    <       0.00004017 Ry

     total magnetization       =    -0.00 Bohr mag/cell
     absolute magnetization    =     0.00 Bohr mag/cell

     iteration #  4     ecut=    40.00 Ry     beta= 0.50
     Davidson diagonalization with overlap
     ethr =  3.65E-07,  avg # of iterations =  1.0

     total cpu time spent up to now is       27.8 secs

     total energy              =     -66.87398822 Ry
     estimated scf accuracy    <       0.00000964 Ry

     total magnetization       =    -0.00 Bohr mag/cell
     absolute magnetization    =     0.00 Bohr mag/cell

     iteration #  5     ecut=    40.00 Ry     beta= 0.50
     Davidson diagonalization with overlap
     ethr =  8.76E-08,  avg # of iterations =  1.0

     total cpu time spent up to now is       28.6 secs

     total energy              =     -66.87398587 Ry
     estimated scf accuracy    <       0.00000555 Ry

     total magnetization       =    -0.00 Bohr mag/cell
     absolute magnetization    =     0.00 Bohr mag/cell

     iteration #  6     ecut=    40.00 Ry     beta= 0.50
     Davidson diagonalization with overlap
     ethr =  5.05E-08,  avg # of iterations =  1.1

     total cpu time spent up to now is       29.5 secs

     total energy              =     -66.87398638 Ry
     estimated scf accuracy    <       0.00000032 Ry

     total magnetization       =    -0.00 Bohr mag/cell
     absolute magnetization    =     0.00 Bohr mag/cell

     iteration #  7     ecut=    40.00 Ry     beta= 0.50
     Davidson diagonalization with overlap
     ethr =  2.92E-09,  avg # of iterations =  1.1

     total cpu time spent up to now is       30.4 secs

     total energy              =     -66.87398639 Ry
     estimated scf accuracy    <       0.00000004 Ry

     total magnetization       =    -0.00 Bohr mag/cell
     absolute magnetization    =     0.00 Bohr mag/cell

     iteration #  8     ecut=    40.00 Ry     beta= 0.50
     Davidson diagonalization with overlap
     ethr =  3.51E-10,  avg # of iterations =  1.6

     Magnetic moment per site  (integrated on atomic sphere of radius R)
     atom   1 (R=0.413)  charge=  9.2500  magn=  0.0000

     total cpu time spent up to now is       31.3 secs

     End of self-consistent calculation

     Number of k-points >= 100: set verbosity='high' to print the bands.

     the Fermi energy is    16.3544 ev

!    total energy              =     -66.87398640 Ry
     estimated scf accuracy    <          5.3E-10 Ry
     smearing contrib. (-TS)   =      -0.00012166 Ry
     internal energy E=F+TS    =     -66.87386474 Ry

     The total energy is F=E-TS. E is the sum of the following terms:
     one-electron contribution =       8.98986505 Ry
     hartree contribution      =       7.13365913 Ry
     xc contribution           =     -10.46185848 Ry
     ewald contribution        =     -72.53553044 Ry

     total magnetization       =    -0.00 Bohr mag/cell
     absolute magnetization    =     0.00 Bohr mag/cell

     convergence has been achieved in   8 iterations

     Forces acting on atoms (cartesian axes, Ry/au):

     atom    1 type  1   force =     0.00000000    0.00000000    0.00000000
     The non-local contrib.  to forces
     atom    1 type  1   force =     0.00000000    0.00000000    0.00000000
     The ionic contribution  to forces
     atom    1 type  1   force =    -0.00000000   -0.00000000   -0.00000000
     The local contribution  to forces
     atom    1 type  1   force =     0.00000000    0.00000000    0.00000000
     The core correction contribution to forces
     atom    1 type  1   force =     0.00000000    0.00000000    0.00000000
     The Hubbard contrib.    to forces
     atom    1 type  1   force =     0.00000000    0.00000000    0.00000000
     The SCF correction term to forces
     atom    1 type  1   force =     0.00000000    0.00000000    0.00000000

     Total force =     0.000000     Total SCF correction =     0.000000


     Computing stress (Cartesian axis) and pressure

          total   stress  (Ry/bohr**3)                   (kbar)     P=       -1.23
  -0.00000839  -0.00000000   0.00000000           -1.23       -0.00        0.00
  -0.00000000  -0.00000839  -0.00000000           -0.00       -1.23       -0.00
   0.00000000  -0.00000000  -0.00000839            0.00       -0.00       -1.23

     Energy error            =      9.4E-06 Ry
     Gradient error          =      0.0E+00 Ry/Bohr
     Cell gradient error     =      1.2E+00 kbar

     number of scf cycles    =   3
     number of bfgs steps    =   2

     enthalpy           old  =     -66.8739770123 Ry
     enthalpy           new  =     -66.8739863951 Ry

     CASE: enthalpy          _new < enthalpy          _old

     new trust radius        =       0.0005088765 bohr
     new conv_thr            =       0.0000000010 Ry

     new unit-cell volume =    111.76584 a.u.^3 (    16.56199 Ang^3 )
     density =     19.74827 g/cm^3

CELL_PARAMETERS (angstrom)
   0.000000000   2.023147253   2.023147253
   2.023147253   0.000000000   2.023147253
   2.023147253   2.023147253   0.000000000

ATOMIC_POSITIONS (angstrom)
Au            0.0000000000        0.0000000000        0.0000000000



     Writing config-only to output data dir /home/gridsan/epan1/labutil/lab3_samples/problem3/Lab3/Au_a_4.0_ecut_40_nk_15/pwscf.save/
     NEW-OLD atomic charge density approx. for the potential
     extrapolated charge   10.99206, renormalised to   11.00000
     Generating pointlists ...

     total cpu time spent up to now is       31.7 secs

     Self-consistent Calculation

     iteration #  1     ecut=    40.00 Ry     beta= 0.50
     Davidson diagonalization with overlap
     ethr =  1.00E-06,  avg # of iterations =  2.0

     Threshold (ethr) on eigenvalues was too large:
     Diagonalizing with lowered threshold

     Davidson diagonalization with overlap
     ethr =  8.56E-08,  avg # of iterations =  1.0

     total cpu time spent up to now is       33.8 secs

     total energy              =     -66.87397600 Ry
     estimated scf accuracy    <       0.00000944 Ry

     total magnetization       =     0.00 Bohr mag/cell
     absolute magnetization    =     0.00 Bohr mag/cell

     iteration #  2     ecut=    40.00 Ry     beta= 0.50
     Davidson diagonalization with overlap
     ethr =  8.59E-08,  avg # of iterations =  2.0

     total cpu time spent up to now is       35.2 secs

     total energy              =     -66.87398675 Ry
     estimated scf accuracy    <       0.00001057 Ry

     total magnetization       =     0.00 Bohr mag/cell
     absolute magnetization    =     0.00 Bohr mag/cell

     iteration #  3     ecut=    40.00 Ry     beta= 0.50
     Davidson diagonalization with overlap
     ethr =  8.59E-08,  avg # of iterations =  1.0

     total cpu time spent up to now is       36.1 secs

     total energy              =     -66.87398667 Ry
     estimated scf accuracy    <       0.00000219 Ry

     total magnetization       =     0.00 Bohr mag/cell
     absolute magnetization    =     0.00 Bohr mag/cell

     iteration #  4     ecut=    40.00 Ry     beta= 0.50
     Davidson diagonalization with overlap
     ethr =  1.99E-08,  avg # of iterations =  1.0

     total cpu time spent up to now is       37.0 secs

     total energy              =     -66.87398671 Ry
     estimated scf accuracy    <       0.00000053 Ry

     total magnetization       =     0.00 Bohr mag/cell
     absolute magnetization    =     0.00 Bohr mag/cell

     iteration #  5     ecut=    40.00 Ry     beta= 0.50
     Davidson diagonalization with overlap
     ethr =  4.80E-09,  avg # of iterations =  1.0

     total cpu time spent up to now is       37.9 secs

     total energy              =     -66.87398656 Ry
     estimated scf accuracy    <       0.00000032 Ry

     total magnetization       =     0.00 Bohr mag/cell
     absolute magnetization    =     0.00 Bohr mag/cell

     iteration #  6     ecut=    40.00 Ry     beta= 0.50
     Davidson diagonalization with overlap
     ethr =  2.95E-09,  avg # of iterations =  1.3

     total cpu time spent up to now is       38.8 secs

     total energy              =     -66.87398660 Ry
     estimated scf accuracy    <          7.2E-09 Ry

     total magnetization       =     0.00 Bohr mag/cell
     absolute magnetization    =     0.00 Bohr mag/cell

     iteration #  7     ecut=    40.00 Ry     beta= 0.50
     Davidson diagonalization with overlap
     ethr =  6.54E-11,  avg # of iterations =  1.1

     total cpu time spent up to now is       39.7 secs

     total energy              =     -66.87398660 Ry
     estimated scf accuracy    <          3.6E-09 Ry

     total magnetization       =     0.00 Bohr mag/cell
     absolute magnetization    =     0.00 Bohr mag/cell

     iteration #  8     ecut=    40.00 Ry     beta= 0.50
     Davidson diagonalization with overlap
     ethr =  3.31E-11,  avg # of iterations =  2.0

     Magnetic moment per site  (integrated on atomic sphere of radius R)
     atom   1 (R=0.413)  charge=  9.2509  magn=  0.0000

     total cpu time spent up to now is       40.7 secs

     End of self-consistent calculation

     Number of k-points >= 100: set verbosity='high' to print the bands.

     the Fermi energy is    16.3718 ev

!    total energy              =     -66.87398660 Ry
     estimated scf accuracy    <          1.7E-11 Ry
     smearing contrib. (-TS)   =      -0.00012188 Ry
     internal energy E=F+TS    =     -66.87386472 Ry

     The total energy is F=E-TS. E is the sum of the following terms:
     one-electron contribution =       9.01423629 Ry
     hartree contribution      =       7.12738443 Ry
     xc contribution           =     -10.46249975 Ry
     ewald contribution        =     -72.55298570 Ry

     total magnetization       =     0.00 Bohr mag/cell
     absolute magnetization    =     0.00 Bohr mag/cell

     convergence has been achieved in   8 iterations

     Forces acting on atoms (cartesian axes, Ry/au):

     atom    1 type  1   force =     0.00000000    0.00000000    0.00000000
     The non-local contrib.  to forces
     atom    1 type  1   force =     0.00000000    0.00000000    0.00000000
     The ionic contribution  to forces
     atom    1 type  1   force =    -0.00000000   -0.00000000   -0.00000000
     The local contribution  to forces
     atom    1 type  1   force =     0.00000000    0.00000000    0.00000000
     The core correction contribution to forces
     atom    1 type  1   force =     0.00000000    0.00000000    0.00000000
     The Hubbard contrib.    to forces
     atom    1 type  1   force =     0.00000000    0.00000000    0.00000000
     The SCF correction term to forces
     atom    1 type  1   force =     0.00000000    0.00000000    0.00000000

     Total force =     0.000000     Total SCF correction =     0.000000


     Computing stress (Cartesian axis) and pressure

          total   stress  (Ry/bohr**3)                   (kbar)     P=        0.32
   0.00000220   0.00000000   0.00000000            0.32        0.00        0.00
  -0.00000000   0.00000220  -0.00000000           -0.00        0.32       -0.00
   0.00000000   0.00000000   0.00000220            0.00        0.00        0.32

     Energy error            =      2.1E-07 Ry
     Gradient error          =      0.0E+00 Ry/Bohr
     Cell gradient error     =      3.2E-01 kbar
Begin final coordinates
     new unit-cell volume =    111.76584 a.u.^3 (    16.56199 Ang^3 )
     density =     19.74827 g/cm^3

CELL_PARAMETERS (angstrom)
   0.000000000   2.023147253   2.023147253
   2.023147253   0.000000000   2.023147253
   2.023147253   2.023147253   0.000000000

ATOMIC_POSITIONS (angstrom)
Au            0.0000000000        0.0000000000        0.0000000000
End final coordinates



     Writing config-only to output data dir /home/gridsan/epan1/labutil/lab3_samples/problem3/Lab3/Au_a_4.0_ecut_40_nk_15/pwscf.save/

     lsda relaxation :  a final configuration with zero
                        absolute magnetization has been found

     the program is checking if it is really the minimum energy structure
     by performing a new scf iteration without any "electronic" history

     Initial potential from superposition of free atoms

     starting charge      10.9999, renormalised to      11.0000

     total cpu time spent up to now is       41.8 secs

     Self-consistent Calculation

     iteration #  1     ecut=    40.00 Ry     beta= 0.50
     Davidson diagonalization with overlap
     ethr =  1.00E-06,  avg # of iterations =  3.9

     total cpu time spent up to now is       43.4 secs

     total energy              =     -66.48193248 Ry
     estimated scf accuracy    <       0.46939264 Ry

     total magnetization       =     1.30 Bohr mag/cell
     absolute magnetization    =     1.35 Bohr mag/cell

     iteration #  2     ecut=    40.00 Ry     beta= 0.50
     Davidson diagonalization with overlap
     ethr =  4.27E-03,  avg # of iterations =  1.5

     total cpu time spent up to now is       44.3 secs

     total energy              =     -66.76605138 Ry
     estimated scf accuracy    <       0.15430748 Ry

     total magnetization       =     0.36 Bohr mag/cell
     absolute magnetization    =     0.52 Bohr mag/cell

     iteration #  3     ecut=    40.00 Ry     beta= 0.50
     Davidson diagonalization with overlap
     ethr =  1.40E-03,  avg # of iterations =  1.0

     total cpu time spent up to now is       45.2 secs

     total energy              =     -66.85716441 Ry
     estimated scf accuracy    <       0.04727617 Ry

     total magnetization       =     0.27 Bohr mag/cell
     absolute magnetization    =     0.37 Bohr mag/cell

     iteration #  4     ecut=    40.00 Ry     beta= 0.50
     Davidson diagonalization with overlap
     ethr =  4.30E-04,  avg # of iterations =  1.5

     total cpu time spent up to now is       46.2 secs

     total energy              =     -66.87293441 Ry
     estimated scf accuracy    <       0.00301689 Ry

     total magnetization       =    -0.02 Bohr mag/cell
     absolute magnetization    =     0.05 Bohr mag/cell

     iteration #  5     ecut=    40.00 Ry     beta= 0.50
     Davidson diagonalization with overlap
     ethr =  2.74E-05,  avg # of iterations =  1.8

     total cpu time spent up to now is       47.2 secs

     total energy              =     -66.87389348 Ry
     estimated scf accuracy    <       0.00018341 Ry

     total magnetization       =    -0.01 Bohr mag/cell
     absolute magnetization    =     0.02 Bohr mag/cell

     iteration #  6     ecut=    40.00 Ry     beta= 0.50
     Davidson diagonalization with overlap
     ethr =  1.67E-06,  avg # of iterations =  1.7

     total cpu time spent up to now is       48.2 secs

     total energy              =     -66.87397338 Ry
     estimated scf accuracy    <       0.00003118 Ry

     total magnetization       =     0.01 Bohr mag/cell
     absolute magnetization    =     0.01 Bohr mag/cell

     iteration #  7     ecut=    40.00 Ry     beta= 0.50
     Davidson diagonalization with overlap
     ethr =  2.83E-07,  avg # of iterations =  1.5

     total cpu time spent up to now is       49.1 secs

     total energy              =     -66.87398610 Ry
     estimated scf accuracy    <       0.00000195 Ry

     total magnetization       =    -0.00 Bohr mag/cell
     absolute magnetization    =     0.00 Bohr mag/cell

     iteration #  8     ecut=    40.00 Ry     beta= 0.50
     Davidson diagonalization with overlap
     ethr =  1.77E-08,  avg # of iterations =  1.8

     total cpu time spent up to now is       50.1 secs

     total energy              =     -66.87398659 Ry
     estimated scf accuracy    <       0.00000006 Ry

     total magnetization       =    -0.00 Bohr mag/cell
     absolute magnetization    =     0.00 Bohr mag/cell

     iteration #  9     ecut=    40.00 Ry     beta= 0.50
     Davidson diagonalization with overlap
     ethr =  5.34E-10,  avg # of iterations =  1.3

     total cpu time spent up to now is       51.0 secs

     total energy              =     -66.87398660 Ry
     estimated scf accuracy    <          2.3E-09 Ry

     total magnetization       =    -0.00 Bohr mag/cell
     absolute magnetization    =     0.00 Bohr mag/cell

     iteration # 10     ecut=    40.00 Ry     beta= 0.50
     Davidson diagonalization with overlap
     ethr =  2.07E-11,  avg # of iterations =  1.0

     total cpu time spent up to now is       52.4 secs

     total energy              =     -66.87398660 Ry
     estimated scf accuracy    <          2.2E-09 Ry

     total magnetization       =    -0.00 Bohr mag/cell
     absolute magnetization    =     0.00 Bohr mag/cell

     iteration # 11     ecut=    40.00 Ry     beta= 0.50
     Davidson diagonalization with overlap
     ethr =  2.02E-11,  avg # of iterations =  1.2

     Magnetic moment per site  (integrated on atomic sphere of radius R)
     atom   1 (R=0.413)  charge=  9.2509  magn= -0.0000

     total cpu time spent up to now is       53.4 secs

     End of self-consistent calculation

     Number of k-points >= 100: set verbosity='high' to print the bands.

     the Fermi energy is    16.3717 ev

!    total energy              =     -66.87398660 Ry
     estimated scf accuracy    <          8.6E-11 Ry
     smearing contrib. (-TS)   =      -0.00012188 Ry
     internal energy E=F+TS    =     -66.87386472 Ry

     The total energy is F=E-TS. E is the sum of the following terms:
     one-electron contribution =       9.01421694 Ry
     hartree contribution      =       7.12740972 Ry
     xc contribution           =     -10.46250568 Ry
     ewald contribution        =     -72.55298570 Ry

     total magnetization       =    -0.00 Bohr mag/cell
     absolute magnetization    =     0.00 Bohr mag/cell

     convergence has been achieved in  11 iterations

     Forces acting on atoms (cartesian axes, Ry/au):

     atom    1 type  1   force =     0.00000000    0.00000000    0.00000000
     The non-local contrib.  to forces
     atom    1 type  1   force =     0.00000000   -0.00000000   -0.00000000
     The ionic contribution  to forces
     atom    1 type  1   force =    -0.00000000   -0.00000000   -0.00000000
     The local contribution  to forces
     atom    1 type  1   force =     0.00000000    0.00000000    0.00000000
     The core correction contribution to forces
     atom    1 type  1   force =     0.00000000    0.00000000    0.00000000
     The Hubbard contrib.    to forces
     atom    1 type  1   force =     0.00000000    0.00000000    0.00000000
     The SCF correction term to forces
     atom    1 type  1   force =     0.00000000    0.00000000    0.00000000

     Total force =     0.000000     Total SCF correction =     0.000000


     Computing stress (Cartesian axis) and pressure

          total   stress  (Ry/bohr**3)                   (kbar)     P=        0.40
   0.00000271  -0.00000000  -0.00000000            0.40       -0.00       -0.00
   0.00000000   0.00000271   0.00000000            0.00        0.40        0.00
  -0.00000000   0.00000000   0.00000271           -0.00        0.00        0.40

     Energy error            =      2.1E-07 Ry
     Gradient error          =      0.0E+00 Ry/Bohr
     Cell gradient error     =      4.0E-01 kbar

     bfgs converged in   4 scf cycles and   3 bfgs steps
     (criteria: energy <  1.0E-04 Ry, force <  1.0E-03 Ry/Bohr, cell <  5.0E-01 kbar)

     End of BFGS Geometry Optimization

     Final enthalpy           =     -66.8739866011 Ry

     File /home/gridsan/epan1/labutil/lab3_samples/problem3/Lab3/Au_a_4.0_ecut_40_nk_15/pwscf.bfgs deleted, as requested
Begin final coordinates
     new unit-cell volume =    111.76584 a.u.^3 (    16.56199 Ang^3 )
     density =     19.74827 g/cm^3

CELL_PARAMETERS (angstrom)
   0.000000000   2.023147253   2.023147253
   2.023147253   0.000000000   2.023147253
   2.023147253   2.023147253   0.000000000

ATOMIC_POSITIONS (angstrom)
Au            0.0000000000        0.0000000000        0.0000000000
End final coordinates



     Writing config-only to output data dir /home/gridsan/epan1/labutil/lab3_samples/problem3/Lab3/Au_a_4.0_ecut_40_nk_15/pwscf.save/

     Final scf calculation at the relaxed structure.
     The G-vectors are recalculated for the final unit cell
     Results may differ from those at the preceding step.

     Parallelization info
     --------------------
     sticks:   dense  smooth     PW     G-vecs:    dense   smooth      PW
     Min          81      39     13                 1355      479      92
     Max          82      40     14                 1358      484      95
     Sum         649     313    109                10849     3839     749

     Using Slab Decomposition



     bravais-lattice index     =            0
     lattice parameter (alat)  =       5.3450  a.u.
     unit-cell volume          =     111.7658 (a.u.)^3
     number of atoms/cell      =            1
     number of atomic types    =            1
     number of electrons       =        11.00
     number of Kohn-Sham states=           10
     kinetic-energy cutoff     =      40.0000  Ry
     charge density cutoff     =     320.0000  Ry
     scf convergence threshold =      1.0E-09
     mixing beta               =       0.5000
     number of iterations used =            8  plain     mixing
     press convergence thresh. =      5.0E-01
     Exchange-correlation=  SLA  PZ   NOGX NOGC
                           (   1   1   0   0   0   0   0)

     celldm(1)=   5.344953  celldm(2)=   0.000000  celldm(3)=   0.000000
     celldm(4)=   0.000000  celldm(5)=   0.000000  celldm(6)=   0.000000

     crystal axes: (cart. coord. in units of alat)
               a(1) = (   0.000000   0.715291   0.715291 )  
               a(2) = (   0.715291   0.000000   0.715291 )  
               a(3) = (   0.715291   0.715291   0.000000 )  

     reciprocal axes: (cart. coord. in units 2 pi/alat)
               b(1) = ( -0.699017  0.699017  0.699017 )  
               b(2) = (  0.699017 -0.699017  0.699017 )  
               b(3) = (  0.699017  0.699017 -0.699017 )  


     PseudoPot. # 1 for Au read from file:
     /home/gridsan/epan1/labutil/lab3_samples/pseudopotentials/Au.pz-d-rrkjus.UPF
     MD5 check sum: 424ffd4ac9c90487cbadcd287136c95b
     Pseudo is Ultrasoft, Zval = 11.0
     Generated by new atomic code, or converted to UPF format
     Using radial grid of 1279 points,  3 beta functions with: 
                l(1) =   2
                l(2) =   2
                l(3) =   1
     Q(r) pseudized with 0 coefficients 


     atomic species   valence    mass     pseudopotential
        Au            11.00   196.96657     Au( 1.00)

     Starting magnetic structure 
     atomic species   magnetization
        Au          -0.000

     48 Sym. Ops., with inversion, found



   Cartesian axes

     site n.     atom                  positions (alat units)
         1           Au  tau(   1) = (   0.0000000   0.0000000   0.0000000  )

     number of k points=   120  Methfessel-Paxton smearing, width (Ry)=  0.0200

     Number of k-points >= 100: set verbosity='high' to print them.

     Dense  grid:    10849 G-vectors     FFT dimensions: (  32,  32,  32)

     Smooth grid:     3839 G-vectors     FFT dimensions: (  24,  24,  24)

     Estimated max dynamical RAM per process >       6.95 MB

     Estimated total dynamical RAM >      55.64 MB
     Generating pointlists ...

     Initial potential from superposition of free atoms

     starting charge      10.9999, renormalised to      11.0000
     Starting wfcs are    9 randomized atomic wfcs +    1 random wfcs

     total cpu time spent up to now is       54.8 secs

     Self-consistent Calculation

     iteration #  1     ecut=    40.00 Ry     beta= 0.50
     Davidson diagonalization with overlap
     c_bands:  1 eigenvalues not converged
     c_bands:  1 eigenvalues not converged
     ethr =  1.00E-06,  avg # of iterations = 11.9

     total cpu time spent up to now is       57.7 secs

     total energy              =     -66.85489217 Ry
     estimated scf accuracy    <       0.07947563 Ry

     total magnetization       =    -0.00 Bohr mag/cell
     absolute magnetization    =     0.00 Bohr mag/cell

     iteration #  2     ecut=    40.00 Ry     beta= 0.50
     Davidson diagonalization with overlap
     ethr =  7.23E-04,  avg # of iterations =  2.0

     total cpu time spent up to now is       58.7 secs

     total energy              =     -66.87368944 Ry
     estimated scf accuracy    <       0.00203493 Ry

     total magnetization       =    -0.00 Bohr mag/cell
     absolute magnetization    =     0.00 Bohr mag/cell

     iteration #  3     ecut=    40.00 Ry     beta= 0.50
     Davidson diagonalization with overlap
     ethr =  1.85E-05,  avg # of iterations =  1.6

     total cpu time spent up to now is       59.7 secs

     total energy              =     -66.87401382 Ry
     estimated scf accuracy    <       0.00012166 Ry

     total magnetization       =    -0.00 Bohr mag/cell
     absolute magnetization    =     0.00 Bohr mag/cell

     iteration #  4     ecut=    40.00 Ry     beta= 0.50
     Davidson diagonalization with overlap
     ethr =  1.11E-06,  avg # of iterations =  1.5

     total cpu time spent up to now is       60.6 secs

     total energy              =     -66.87401543 Ry
     estimated scf accuracy    <       0.00000261 Ry

     total magnetization       =    -0.00 Bohr mag/cell
     absolute magnetization    =     0.00 Bohr mag/cell

     iteration #  5     ecut=    40.00 Ry     beta= 0.50
     Davidson diagonalization with overlap
     ethr =  2.38E-08,  avg # of iterations =  1.1

     total cpu time spent up to now is       61.5 secs

     total energy              =     -66.87401581 Ry
     estimated scf accuracy    <       0.00000006 Ry

     total magnetization       =    -0.00 Bohr mag/cell
     absolute magnetization    =     0.00 Bohr mag/cell

     iteration #  6     ecut=    40.00 Ry     beta= 0.50
     Davidson diagonalization with overlap
     ethr =  5.63E-10,  avg # of iterations =  1.2

     Magnetic moment per site  (integrated on atomic sphere of radius R)
     atom   1 (R=0.413)  charge=  9.2509  magn= -0.0000

     total cpu time spent up to now is       62.4 secs

     End of self-consistent calculation

     Number of k-points >= 100: set verbosity='high' to print the bands.

     the Fermi energy is    16.3716 ev

!    total energy              =     -66.87401582 Ry
     estimated scf accuracy    <          7.8E-10 Ry
     smearing contrib. (-TS)   =      -0.00012188 Ry
     internal energy E=F+TS    =     -66.87389394 Ry

     The total energy is F=E-TS. E is the sum of the following terms:
     one-electron contribution =       9.01420596 Ry
     hartree contribution      =       7.12736479 Ry
     xc contribution           =     -10.46247898 Ry
     ewald contribution        =     -72.55298570 Ry

     total magnetization       =    -0.00 Bohr mag/cell
     absolute magnetization    =     0.00 Bohr mag/cell

     convergence has been achieved in   6 iterations

     Forces acting on atoms (cartesian axes, Ry/au):

     atom    1 type  1   force =     0.00000000    0.00000000    0.00000000
     The non-local contrib.  to forces
     atom    1 type  1   force =     0.00000000   -0.00000000    0.00000000
     The ionic contribution  to forces
     atom    1 type  1   force =    -0.00000000   -0.00000000   -0.00000000
     The local contribution  to forces
     atom    1 type  1   force =     0.00000000    0.00000000    0.00000000
     The core correction contribution to forces
     atom    1 type  1   force =     0.00000000    0.00000000    0.00000000
     The Hubbard contrib.    to forces
     atom    1 type  1   force =     0.00000000    0.00000000    0.00000000
     The SCF correction term to forces
     atom    1 type  1   force =     0.00000000    0.00000000    0.00000000

     Total force =     0.000000     Total SCF correction =     0.000000


     Computing stress (Cartesian axis) and pressure

          total   stress  (Ry/bohr**3)                   (kbar)     P=        0.40
   0.00000271  -0.00000000   0.00000000            0.40       -0.00        0.00
  -0.00000000   0.00000271  -0.00000000           -0.00        0.40       -0.00
   0.00000000  -0.00000000   0.00000271            0.00       -0.00        0.40


     init_run     :      0.88s CPU      0.96s WALL (       2 calls)
     electrons    :     55.59s CPU     57.25s WALL (       6 calls)
     update_pot   :      0.27s CPU      0.28s WALL (       3 calls)
     forces       :      0.55s CPU      0.98s WALL (       6 calls)
     stress       :      1.57s CPU      1.68s WALL (       6 calls)

     Called by init_run:
     wfcinit      :      0.40s CPU      0.43s WALL (       2 calls)
     potinit      :      0.19s CPU      0.23s WALL (       3 calls)
     hinit0       :      0.29s CPU      0.30s WALL (       2 calls)

     Called by electrons:
     c_bands      :     48.08s CPU     49.62s WALL (      54 calls)
     sum_band     :      7.02s CPU      6.69s WALL (      54 calls)
     v_of_rho     :      0.12s CPU      0.24s WALL (      59 calls)
     newd         :      0.12s CPU      0.13s WALL (      59 calls)
     mix_rho      :      0.10s CPU      0.14s WALL (      54 calls)

     Called by c_bands:
     init_us_2    :      0.90s CPU      0.89s WALL (   29280 calls)
     init_us_2:cp :      0.85s CPU      0.84s WALL (   29280 calls)
     cegterg      :     41.02s CPU     38.91s WALL (   12960 calls)

     Called by *egterg:
     cdiaghg      :      6.89s CPU      6.50s WALL (   35014 calls)
     h_psi        :     28.29s CPU     26.89s WALL (   36694 calls)
     s_psi        :      0.31s CPU      0.30s WALL (   36694 calls)
     g_psi        :      0.11s CPU      0.10s WALL (   23254 calls)

     Called by h_psi:
     h_psi:calbec :      1.78s CPU      1.70s WALL (   36694 calls)
     vloc_psi     :     25.95s CPU     24.61s WALL (   36694 calls)
     add_vuspsi   :      0.33s CPU      0.32s WALL (   36694 calls)

     General routines
     calbec       :      2.71s CPU      2.57s WALL (   56854 calls)
     fft          :      0.17s CPU      0.17s WALL (     659 calls)
     ffts         :      0.13s CPU      0.13s WALL (     226 calls)
     fftw         :     27.58s CPU     25.88s WALL (  748634 calls)
     interpolate  :      0.15s CPU      0.15s WALL (     118 calls)

     Parallel routines

     PWSCF        :     59.22s CPU   1m 2.75s WALL


   This run was terminated on:  11:12: 3   3Nov2023            

=------------------------------------------------------------------------------=
   JOB DONE.
=------------------------------------------------------------------------------=
