
     Program PWSCF v.7.2 starts on  2Nov2023 at 18: 9: 6 

     This program is part of the open-source Quantum ESPRESSO suite
     for quantum simulation of materials; please cite
         "P. Giannozzi et al., J. Phys.:Condens. Matter 21 395502 (2009);
         "P. Giannozzi et al., J. Phys.:Condens. Matter 29 465901 (2017);
         "P. Giannozzi et al., J. Chem. Phys. 152 154105 (2020);
          URL http://www.quantum-espresso.org", 
     in publications or presentations arising from this work. More details at
     http://www.quantum-espresso.org/quote

     Parallel version (MPI), running on     2 processors

     MPI processes distributed on     2 nodes
     187040 MiB available memory on the printing compute node when the environment starts

     Waiting for input...
     Reading input from standard input
Warning: card &CELL ignored
Warning: card / ignored

     Current dimensions of program PWSCF are:
     Max number of different atomic species (ntypx) = 10
     Max number of k-points (npk) =  40000
     Max angular momentum in pseudopotentials (lmaxx) =  4
     file O.pz-rrkjus.UPF: wavefunction(s)  2S renormalized
     Message from routine setup:
     using ibrav=0 with symmetry is DISCOURAGED, use correct ibrav instead

     R & G space division:  proc/nbgrp/npool/nimage =       2
     Subspace diagonalization in iterative solution of the eigenvalue problem:
     a serial algorithm will be used


     Parallelization info
     --------------------
     sticks:   dense  smooth     PW     G-vecs:    dense   smooth      PW
     Min         516     254     74                12418     4366     709
     Max         517     255     75                12419     4367     710
     Sum        1033     509    149                24837     8733    1419

     Using Slab Decomposition



     bravais-lattice index     =            0
     lattice parameter (alat)  =       7.3321  a.u.
     unit-cell volume          =     394.1775 (a.u.)^3
     number of atoms/cell      =            5
     number of atomic types    =            3
     number of electrons       =        44.00
     number of Kohn-Sham states=           22
     kinetic-energy cutoff     =      30.0000  Ry
     charge density cutoff     =     240.0000  Ry
     scf convergence threshold =      1.0E-07
     mixing beta               =       0.7000
     number of iterations used =            8  plain     mixing
     energy convergence thresh.=      1.0E-04
     force convergence thresh. =      1.0E-03
     Exchange-correlation= SLA  PZ   NOGX NOGC
                           (   1   1   0   0   0   0   0)
     nstep                     =           50


     celldm(1)=   7.332137  celldm(2)=   0.000000  celldm(3)=   0.000000
     celldm(4)=   0.000000  celldm(5)=   0.000000  celldm(6)=   0.000000

     crystal axes: (cart. coord. in units of alat)
               a(1) = (   1.000000   0.000000   0.000000 )  
               a(2) = (   0.000000   1.000000   0.000000 )  
               a(3) = (   0.000000   0.000000   1.000000 )  

     reciprocal axes: (cart. coord. in units 2 pi/alat)
               b(1) = (  1.000000  0.000000  0.000000 )  
               b(2) = (  0.000000  1.000000  0.000000 )  
               b(3) = (  0.000000  0.000000  1.000000 )  


     PseudoPot. # 1 for O  read from file:
     /home/gridsan/epan1/labutil/lab3_samples/pseudopotentials/O.pz-rrkjus.UPF
     MD5 check sum: 24fb942a68ef5d262e498166c462ef4a
     Pseudo is Ultrasoft, Zval =  6.0
     Generated by new atomic code, or converted to UPF format
     Using radial grid of 1269 points,  4 beta functions with: 
                l(1) =   0
                l(2) =   0
                l(3) =   1
                l(4) =   1
     Q(r) pseudized with 0 coefficients 


     PseudoPot. # 2 for Pb read from file:
     /home/gridsan/epan1/labutil/lab3_samples/pseudopotentials/Pb.pz-d-van.UPF
     MD5 check sum: 4e1e5920686a026ae26139ac417581ff
     Pseudo is Ultrasoft, Zval = 14.0
     Generated by new atomic code, or converted to UPF format
     Using radial grid of  899 points,  6 beta functions with: 
                l(1) =   0
                l(2) =   0
                l(3) =   1
                l(4) =   1
                l(5) =   2
                l(6) =   2
     Q(r) pseudized with  8 coefficients,  rinner =    1.000   1.000   1.000
                                                       1.000   1.000

     PseudoPot. # 3 for Ti read from file:
     /home/gridsan/epan1/labutil/lab3_samples/pseudopotentials/Ti.pz-sp-van_ak.UPF
     MD5 check sum: 545d0e6e05332b8871a8093f427cb0ca
     Pseudo is Ultrasoft, Zval = 12.0
     Generated by new atomic code, or converted to UPF format
     Using radial grid of  851 points,  6 beta functions with: 
                l(1) =   0
                l(2) =   0
                l(3) =   1
                l(4) =   1
                l(5) =   2
                l(6) =   2
     Q(r) pseudized with  8 coefficients,  rinner =    1.000   1.000   1.000
                                                       1.000   1.000

     atomic species   valence    mass     pseudopotential
        O              6.00    15.99900     O ( 1.00)
        Pb            14.00   207.20000     Pb( 1.00)
        Ti            12.00    47.86700     Ti( 1.00)

      8 Sym. Ops. (no inversion) found



   Cartesian axes

     site n.     atom                  positions (alat units)
         1           Pb  tau(   1) = (   0.0000000   0.0000000   0.0000000  )
         2           Ti  tau(   2) = (   0.5000000   0.5000000   0.5473686  )
         3           O   tau(   3) = (   0.0000000   0.5000000   0.5000000  )
         4           O   tau(   4) = (   0.5000000   0.0000000   0.5000000  )
         5           O   tau(   5) = (   0.5000000   0.5000000   0.0000000  )

     number of k points=     6
                       cart. coord. in units 2pi/alat
        k(    1) = (   0.1250000   0.1250000   0.1250000), wk =   0.2500000
        k(    2) = (   0.1250000   0.1250000   0.3750000), wk =   0.2500000
        k(    3) = (   0.1250000   0.3750000   0.3750000), wk =   0.5000000
        k(    4) = (   0.3750000   0.3750000   0.3750000), wk =   0.2500000
        k(    5) = (   0.3750000  -0.1250000   0.1250000), wk =   0.5000000
        k(    6) = (   0.3750000  -0.3750000   0.1250000), wk =   0.2500000

     Dense  grid:    24837 G-vectors     FFT dimensions: (  40,  40,  40)

     Smooth grid:     8733 G-vectors     FFT dimensions: (  25,  25,  25)

     Estimated max dynamical RAM per process >      51.66 MB

     Estimated total dynamical RAM >     103.32 MB

     Initial potential from superposition of free atoms

     starting charge      42.9982, renormalised to      44.0000
     Starting wfcs are   31 randomized atomic wfcs

     total cpu time spent up to now is        1.0 secs

     Self-consistent Calculation

     iteration #  1     ecut=    30.00 Ry     beta= 0.70
     Davidson diagonalization with overlap
     ethr =  1.00E-02,  avg # of iterations =  2.0

     total cpu time spent up to now is        1.3 secs

     total energy              =    -332.62619786 Ry
     estimated scf accuracy    <       1.08247901 Ry

     iteration #  2     ecut=    30.00 Ry     beta= 0.70
     Davidson diagonalization with overlap
     ethr =  2.46E-03,  avg # of iterations =  6.5

     total cpu time spent up to now is        1.7 secs

     total energy              =    -332.41759398 Ry
     estimated scf accuracy    <       3.79686985 Ry

     iteration #  3     ecut=    30.00 Ry     beta= 0.70
     Davidson diagonalization with overlap
     ethr =  2.46E-03,  avg # of iterations =  5.7

     total cpu time spent up to now is        2.0 secs

     total energy              =    -333.15156395 Ry
     estimated scf accuracy    <       0.22323190 Ry

     iteration #  4     ecut=    30.00 Ry     beta= 0.70
     Davidson diagonalization with overlap
     ethr =  5.07E-04,  avg # of iterations =  2.0

     total cpu time spent up to now is        2.3 secs

     total energy              =    -333.14667673 Ry
     estimated scf accuracy    <       0.06153840 Ry

     iteration #  5     ecut=    30.00 Ry     beta= 0.70
     Davidson diagonalization with overlap
     ethr =  1.40E-04,  avg # of iterations =  4.8

     total cpu time spent up to now is        2.7 secs

     total energy              =    -333.17588358 Ry
     estimated scf accuracy    <       0.02965061 Ry

     iteration #  6     ecut=    30.00 Ry     beta= 0.70
     Davidson diagonalization with overlap
     ethr =  6.74E-05,  avg # of iterations =  1.8

     total cpu time spent up to now is        2.9 secs

     total energy              =    -333.17362569 Ry
     estimated scf accuracy    <       0.01194933 Ry

     iteration #  7     ecut=    30.00 Ry     beta= 0.70
     Davidson diagonalization with overlap
     ethr =  2.72E-05,  avg # of iterations =  4.0

     total cpu time spent up to now is        3.2 secs

     total energy              =    -333.17682313 Ry
     estimated scf accuracy    <       0.00009736 Ry

     iteration #  8     ecut=    30.00 Ry     beta= 0.70
     Davidson diagonalization with overlap
     ethr =  2.21E-07,  avg # of iterations =  6.2

     total cpu time spent up to now is        3.6 secs

     total energy              =    -333.17690532 Ry
     estimated scf accuracy    <       0.00028064 Ry

     iteration #  9     ecut=    30.00 Ry     beta= 0.70
     Davidson diagonalization with overlap
     ethr =  2.21E-07,  avg # of iterations =  1.7

     total cpu time spent up to now is        3.9 secs

     total energy              =    -333.17685889 Ry
     estimated scf accuracy    <       0.00020574 Ry

     iteration # 10     ecut=    30.00 Ry     beta= 0.70
     Davidson diagonalization with overlap
     ethr =  2.21E-07,  avg # of iterations =  3.7

     total cpu time spent up to now is        4.2 secs

     total energy              =    -333.17686333 Ry
     estimated scf accuracy    <       0.00003755 Ry

     iteration # 11     ecut=    30.00 Ry     beta= 0.70
     Davidson diagonalization with overlap
     ethr =  8.53E-08,  avg # of iterations =  4.5

     total cpu time spent up to now is        4.5 secs

     total energy              =    -333.17687280 Ry
     estimated scf accuracy    <       0.00000030 Ry

     iteration # 12     ecut=    30.00 Ry     beta= 0.70
     Davidson diagonalization with overlap
     ethr =  6.71E-10,  avg # of iterations =  6.5

     total cpu time spent up to now is        4.9 secs

     total energy              =    -333.17687282 Ry
     estimated scf accuracy    <       0.00000067 Ry

     iteration # 13     ecut=    30.00 Ry     beta= 0.70
     Davidson diagonalization with overlap
     ethr =  6.71E-10,  avg # of iterations =  6.8

     total cpu time spent up to now is        5.3 secs

     total energy              =    -333.17687283 Ry
     estimated scf accuracy    <       0.00000427 Ry

     iteration # 14     ecut=    30.00 Ry     beta= 0.70
     Davidson diagonalization with overlap
     ethr =  6.71E-10,  avg # of iterations =  5.8

     total cpu time spent up to now is        5.7 secs

     total energy              =    -333.17687318 Ry
     estimated scf accuracy    <       0.00000021 Ry

     iteration # 15     ecut=    30.00 Ry     beta= 0.70
     Davidson diagonalization with overlap
     ethr =  4.75E-10,  avg # of iterations =  4.8

     total cpu time spent up to now is        6.0 secs

     End of self-consistent calculation

          k = 0.1250 0.1250 0.1250 (  1096 PWs)   bands (ev):

   -44.5553 -21.2989 -21.1529 -21.1520  -6.3681  -5.3448  -5.2240  -4.0702
    -4.0541  -4.0425  -3.8769  -3.8611   4.5585   7.2213   7.2970   8.0233
     8.8402   8.9786   9.5312   9.7628  10.0555  10.1065

          k = 0.1250 0.1250 0.3750 (  1095 PWs)   bands (ev):

   -44.5540 -21.3569 -21.1505 -21.1495  -5.8992  -5.2319  -5.0929  -4.1257
    -4.0659  -4.0358  -3.9591  -3.8506   3.7760   6.7607   7.0847   7.8016
     8.4712   8.4936   9.4022   9.8082  10.1775  10.8886

          k = 0.1250 0.3750 0.3750 (  1093 PWs)   bands (ev):

   -44.5528 -21.3535 -21.2055 -21.1481  -5.6895  -5.1402  -4.9572  -4.0998
    -4.0557  -3.9984  -3.9055  -3.7295   3.4545   6.5666   6.9816   7.1376
     7.4951   8.6986   9.2366   9.5161   9.9574  10.5990

          k = 0.3750 0.3750 0.3750 (  1082 PWs)   bands (ev):

   -44.5515 -21.3508 -21.2029 -21.2027  -5.3986  -5.2045  -5.1371  -4.0155
    -3.9981  -3.7324  -3.6504  -3.6186   4.0863   5.8228   5.9414   6.6348
     7.1281   7.2076   7.9239  10.4952  10.5658  10.7488

          k = 0.3750-0.1250 0.1250 (  1095 PWs)   bands (ev):

   -44.5541 -21.2964 -21.2090 -21.1502  -5.9943  -5.1941  -5.0773  -4.1188
    -4.0562  -4.0416  -3.9745  -3.8377   3.8320   6.8863   7.3330   7.7938
     8.3739   8.7648   9.1771   9.8099   9.9015  10.7644

          k = 0.3750-0.3750 0.1250 (  1093 PWs)   bands (ev):

   -44.5529 -21.2945 -21.2061 -21.2053  -5.8565  -5.0079  -4.9283  -4.0842
    -4.0493  -3.9835  -3.8995  -3.7903   3.5065   6.8116   6.8699   7.0822
     7.4005   8.6396   9.4531   9.4773   9.9469  10.7498

     highest occupied level (ev):    10.8886

!    total energy              =    -333.17687322 Ry
     estimated scf accuracy    <          5.9E-10 Ry

     The total energy is the sum of the following terms:
     one-electron contribution =     -77.92128672 Ry
     hartree contribution      =      66.87876777 Ry
     xc contribution           =     -49.67121425 Ry
     ewald contribution        =    -272.46314001 Ry

     convergence has been achieved in  15 iterations

     Forces acting on atoms (cartesian axes, Ry/au):

     atom    1 type  2   force =     0.00000000    0.00000000    0.02074444
     atom    2 type  3   force =     0.00000000    0.00000000   -0.06481651
     atom    3 type  1   force =     0.00000000    0.00000000    0.00234237
     atom    4 type  1   force =     0.00000000    0.00000000    0.00234237
     atom    5 type  1   force =     0.00000000    0.00000000    0.03938733
     The non-local contrib.  to forces
     atom    1 type  2   force =     0.00000000    0.00000000   -0.01107593
     atom    2 type  3   force =     0.00000000    0.00000000    0.03313784
     atom    3 type  1   force =     0.00000000    0.00000000    0.11321046
     atom    4 type  1   force =     0.00000000    0.00000000    0.11321046
     atom    5 type  1   force =     0.00000000    0.00000000   -0.34214012
     The ionic contribution  to forces
     atom    1 type  2   force =     0.00000000    0.00000000    1.22363105
     atom    2 type  3   force =     0.00000000    0.00000000   -2.94734040
     atom    3 type  1   force =     0.00000000   -0.00000000   -1.34881679
     atom    4 type  1   force =    -0.00000000    0.00000000   -1.34881679
     atom    5 type  1   force =    -0.00000000   -0.00000000    4.42134293
     The local contribution  to forces
     atom    1 type  2   force =     0.00000000   -0.00000000   -1.19179396
     atom    2 type  3   force =    -0.00000000   -0.00000000    2.84937781
     atom    3 type  1   force =     0.00000000   -0.00000000    1.23793966
     atom    4 type  1   force =    -0.00000000    0.00000000    1.23793966
     atom    5 type  1   force =    -0.00000000   -0.00000000   -4.03980013
     The core correction contribution to forces
     atom    1 type  2   force =     0.00000000    0.00000000    0.00000000
     atom    2 type  3   force =     0.00000000    0.00000000    0.00000000
     atom    3 type  1   force =     0.00000000    0.00000000    0.00000000
     atom    4 type  1   force =     0.00000000    0.00000000    0.00000000
     atom    5 type  1   force =     0.00000000    0.00000000    0.00000000
     The Hubbard contrib.    to forces
     atom    1 type  2   force =     0.00000000    0.00000000    0.00000000
     atom    2 type  3   force =     0.00000000    0.00000000    0.00000000
     atom    3 type  1   force =     0.00000000    0.00000000    0.00000000
     atom    4 type  1   force =     0.00000000    0.00000000    0.00000000
     atom    5 type  1   force =     0.00000000    0.00000000    0.00000000
     The SCF correction term to forces
     atom    1 type  2   force =    -0.00000000   -0.00000000   -0.00000000
     atom    2 type  3   force =    -0.00000000   -0.00000000    0.00000000
     atom    3 type  1   force =     0.00000000   -0.00000000    0.00001097
     atom    4 type  1   force =     0.00000000    0.00000000    0.00001097
     atom    5 type  1   force =     0.00000000    0.00000000   -0.00001341

     Total force =     0.039526     Total SCF correction =     0.000021


     Computing stress (Cartesian axis) and pressure

          total   stress  (Ry/bohr**3)                   (kbar)     P=        1.63
  -0.00011487   0.00000000   0.00000000          -16.90        0.00        0.00
   0.00000000  -0.00011487   0.00000000            0.00      -16.90        0.00
   0.00000000   0.00000000   0.00026307            0.00        0.00       38.70


     BFGS Geometry Optimization
     Energy error            =      0.0E+00 Ry
     Gradient error          =      3.9E-02 Ry/Bohr

     number of scf cycles    =   1
     number of bfgs steps    =   0

     energy             new  =    -333.1768732174 Ry

     new trust radius        =       0.0393873333 bohr
     new conv_thr            =       0.0000001000 Ry


ATOMIC_POSITIONS (angstrom)
Pb            0.0000000000        0.0000000000        0.0000000000    0   0   0
Ti            1.9400000000        1.9400000000        2.1237900000    0   0   0
O             0.0000000000        1.9400000000        1.9412395298
O             1.9400000000        0.0000000000        1.9412395298
O             1.9400000000        1.9400000000        0.0208428792



     Writing config-only to output data dir /home/gridsan/epan1/labutil/lab3_samples/problem2/Lab3/PbTiO3_a_3.88_ecut_30_nk_4_displ_0.04736842105263156/pwscf.save/
     NEW-OLD atomic charge density approx. for the potential

     total cpu time spent up to now is        7.2 secs

     Self-consistent Calculation

     iteration #  1     ecut=    30.00 Ry     beta= 0.70
     Davidson diagonalization with overlap
     ethr =  1.00E-06,  avg # of iterations =  6.2

     total cpu time spent up to now is        7.6 secs

     total energy              =    -333.17795701 Ry
     estimated scf accuracy    <       0.00036711 Ry

     iteration #  2     ecut=    30.00 Ry     beta= 0.70
     Davidson diagonalization with overlap
     ethr =  8.34E-07,  avg # of iterations =  5.5

     total cpu time spent up to now is        8.0 secs

     total energy              =    -333.17794527 Ry
     estimated scf accuracy    <       0.00060029 Ry

     iteration #  3     ecut=    30.00 Ry     beta= 0.70
     Davidson diagonalization with overlap
     ethr =  8.34E-07,  avg # of iterations =  4.5

     total cpu time spent up to now is        8.3 secs

     total energy              =    -333.17807955 Ry
     estimated scf accuracy    <       0.00004531 Ry

     iteration #  4     ecut=    30.00 Ry     beta= 0.70
     Davidson diagonalization with overlap
     ethr =  1.03E-07,  avg # of iterations =  2.7

     total cpu time spent up to now is        8.6 secs

     total energy              =    -333.17808425 Ry
     estimated scf accuracy    <       0.00000628 Ry

     iteration #  5     ecut=    30.00 Ry     beta= 0.70
     Davidson diagonalization with overlap
     ethr =  1.43E-08,  avg # of iterations =  4.7

     total cpu time spent up to now is        9.0 secs

     total energy              =    -333.17808680 Ry
     estimated scf accuracy    <       0.00000076 Ry

     iteration #  6     ecut=    30.00 Ry     beta= 0.70
     Davidson diagonalization with overlap
     ethr =  1.72E-09,  avg # of iterations =  2.7

     total cpu time spent up to now is        9.2 secs

     total energy              =    -333.17808678 Ry
     estimated scf accuracy    <       0.00000026 Ry

     iteration #  7     ecut=    30.00 Ry     beta= 0.70
     Davidson diagonalization with overlap
     ethr =  5.86E-10,  avg # of iterations =  4.5

     total cpu time spent up to now is        9.6 secs

     End of self-consistent calculation

          k = 0.1250 0.1250 0.1250 (  1096 PWs)   bands (ev):

   -44.5935 -21.3046 -21.1923 -21.1915  -6.3711  -5.3374  -5.2332  -4.0613
    -4.0476  -4.0361  -3.8696  -3.8563   4.5658   7.2272   7.2883   8.0171
     8.8785   9.0136   9.5654   9.7645  10.0428  10.1179

          k = 0.1250 0.1250 0.3750 (  1095 PWs)   bands (ev):

   -44.5922 -21.3625 -21.1900 -21.1890  -5.9096  -5.2177  -5.1038  -4.1176
    -4.0569  -4.0298  -3.9543  -3.8430   3.7936   6.7619   7.1085   7.7875
     8.4737   8.5352   9.3980   9.8139  10.1648  10.8855

          k = 0.1250 0.3750 0.3750 (  1093 PWs)   bands (ev):

   -44.5910 -21.3591 -21.2447 -21.1876  -5.6986  -5.1255  -4.9663  -4.0916
    -4.0474  -3.9916  -3.8992  -3.7265   3.4660   6.5876   6.9700   7.1367
     7.4905   8.6908   9.2723   9.5079   9.9730  10.6068

          k = 0.3750 0.3750 0.3750 (  1082 PWs)   bands (ev):

   -44.5897 -21.3564 -21.2422 -21.2420  -5.3905  -5.2057  -5.1447  -4.0068
    -3.9920  -3.7220  -3.6462  -3.6175   4.0944   5.8430   5.9415   6.6298
     7.1236   7.1899   7.9354  10.5180  10.5845  10.7383

          k = 0.3750-0.1250 0.1250 (  1095 PWs)   bands (ev):

   -44.5922 -21.3022 -21.2482 -21.1896  -5.9920  -5.1917  -5.0868  -4.1117
    -4.0484  -4.0349  -3.9674  -3.8325   3.8397   6.8771   7.3384   7.7952
     8.3781   8.7708   9.2023   9.8234   9.9201  10.7735

          k = 0.3750-0.3750 0.1250 (  1093 PWs)   bands (ev):

   -44.5910 -21.3003 -21.2453 -21.2445  -5.8437  -5.0165  -4.9385  -4.0782
    -4.0421  -3.9785  -3.8942  -3.7791   3.5079   6.8053   6.8721   7.1072
     7.4193   8.6397   9.4604   9.4721   9.9483  10.7404

     highest occupied level (ev):    10.8855

!    total energy              =    -333.17808685 Ry
     estimated scf accuracy    <       0.00000003 Ry

     The total energy is the sum of the following terms:
     one-electron contribution =     -77.61249392 Ry
     hartree contribution      =      66.71447328 Ry
     xc contribution           =     -49.65992372 Ry
     ewald contribution        =    -272.62014248 Ry

     convergence has been achieved in   7 iterations

     Forces acting on atoms (cartesian axes, Ry/au):

     atom    1 type  2   force =     0.00000000    0.00000000    0.02115996
     atom    2 type  3   force =     0.00000000    0.00000000   -0.05375125
     atom    3 type  1   force =     0.00000000    0.00000000    0.00545637
     atom    4 type  1   force =     0.00000000    0.00000000    0.00545637
     atom    5 type  1   force =     0.00000000    0.00000000    0.02167854
     The non-local contrib.  to forces
     atom    1 type  2   force =     0.00000000    0.00000000   -0.01182452
     atom    2 type  3   force =     0.00000000    0.00000000    0.02897392
     atom    3 type  1   force =     0.00000000    0.00000000    0.12289930
     atom    4 type  1   force =     0.00000000    0.00000000    0.12289930
     atom    5 type  1   force =     0.00000000    0.00000000   -0.32335019
     The ionic contribution  to forces
     atom    1 type  2   force =     0.00000000    0.00000000    1.16547544
     atom    2 type  3   force =     0.00000000    0.00000000   -2.44937272
     atom    3 type  1   force =     0.00000000    0.00000000   -1.29093688
     atom    4 type  1   force =     0.00000000    0.00000000   -1.29093688
     atom    5 type  1   force =    -0.00000000   -0.00000000    3.86577103
     The local contribution  to forces
     atom    1 type  2   force =    -0.00000000    0.00000000   -1.13255751
     atom    2 type  3   force =    -0.00000000   -0.00000000    2.36706054
     atom    3 type  1   force =     0.00000000   -0.00000000    1.17352093
     atom    4 type  1   force =    -0.00000000    0.00000000    1.17352093
     atom    5 type  1   force =    -0.00000000   -0.00000000   -3.52080529
     The core correction contribution to forces
     atom    1 type  2   force =     0.00000000    0.00000000    0.00000000
     atom    2 type  3   force =     0.00000000    0.00000000    0.00000000
     atom    3 type  1   force =     0.00000000    0.00000000    0.00000000
     atom    4 type  1   force =     0.00000000    0.00000000    0.00000000
     atom    5 type  1   force =     0.00000000    0.00000000    0.00000000
     The Hubbard contrib.    to forces
     atom    1 type  2   force =     0.00000000    0.00000000    0.00000000
     atom    2 type  3   force =     0.00000000    0.00000000    0.00000000
     atom    3 type  1   force =     0.00000000    0.00000000    0.00000000
     atom    4 type  1   force =     0.00000000    0.00000000    0.00000000
     atom    5 type  1   force =     0.00000000    0.00000000    0.00000000
     The SCF correction term to forces
     atom    1 type  2   force =    -0.00000000   -0.00000000    0.00000000
     atom    2 type  3   force =    -0.00000000    0.00000000   -0.00000000
     atom    3 type  1   force =    -0.00000000   -0.00000000   -0.00003673
     atom    4 type  1   force =    -0.00000000   -0.00000000   -0.00003673
     atom    5 type  1   force =     0.00000000   -0.00000000    0.00005325

     Total force =     0.023011     Total SCF correction =     0.000074


     Computing stress (Cartesian axis) and pressure

          total   stress  (Ry/bohr**3)                   (kbar)     P=       -5.72
  -0.00013308   0.00000000   0.00000000          -19.58        0.00        0.00
   0.00000000  -0.00013308   0.00000000            0.00      -19.58        0.00
   0.00000000   0.00000000   0.00014950            0.00        0.00       21.99

     Energy error            =      1.2E-03 Ry
     Gradient error          =      2.2E-02 Ry/Bohr

     number of scf cycles    =   2
     number of bfgs steps    =   1

     energy             old  =    -333.1768732174 Ry
     energy             new  =    -333.1780868480 Ry

     CASE: energy            _new < energy            _old

     new trust radius        =       0.0433260666 bohr
     new conv_thr            =       0.0000000121 Ry


ATOMIC_POSITIONS (angstrom)
Pb            0.0000000000        0.0000000000        0.0000000000    0   0   0
Ti            1.9400000000        1.9400000000        2.1237900000    0   0   0
O             0.0000000000        1.9400000000        1.9466397974
O             1.9400000000        0.0000000000        1.9466397974
O             1.9400000000        1.9400000000        0.0437700462



     Writing config-only to output data dir /home/gridsan/epan1/labutil/lab3_samples/problem2/Lab3/PbTiO3_a_3.88_ecut_30_nk_4_displ_0.04736842105263156/pwscf.save/
     NEW-OLD atomic charge density approx. for the potential

     total cpu time spent up to now is       10.7 secs

     Self-consistent Calculation

     iteration #  1     ecut=    30.00 Ry     beta= 0.70
     Davidson diagonalization with overlap
     ethr =  1.00E-06,  avg # of iterations =  7.3

     total cpu time spent up to now is       11.1 secs

     total energy              =    -333.17867541 Ry
     estimated scf accuracy    <       0.00041760 Ry

     iteration #  2     ecut=    30.00 Ry     beta= 0.70
     Davidson diagonalization with overlap
     ethr =  9.49E-07,  avg # of iterations =  5.0

     total cpu time spent up to now is       11.5 secs

     total energy              =    -333.17867563 Ry
     estimated scf accuracy    <       0.00059144 Ry

     iteration #  3     ecut=    30.00 Ry     beta= 0.70
     Davidson diagonalization with overlap
     ethr =  9.49E-07,  avg # of iterations =  4.5

     total cpu time spent up to now is       11.9 secs

     total energy              =    -333.17880354 Ry
     estimated scf accuracy    <       0.00004518 Ry

     iteration #  4     ecut=    30.00 Ry     beta= 0.70
     Davidson diagonalization with overlap
     ethr =  1.03E-07,  avg # of iterations =  3.5

     total cpu time spent up to now is       12.2 secs

     total energy              =    -333.17881037 Ry
     estimated scf accuracy    <       0.00000518 Ry

     iteration #  5     ecut=    30.00 Ry     beta= 0.70
     Davidson diagonalization with overlap
     ethr =  1.18E-08,  avg # of iterations =  4.7

     total cpu time spent up to now is       12.5 secs

     total energy              =    -333.17881264 Ry
     estimated scf accuracy    <       0.00000058 Ry

     iteration #  6     ecut=    30.00 Ry     beta= 0.70
     Davidson diagonalization with overlap
     ethr =  1.32E-09,  avg # of iterations =  3.0

     total cpu time spent up to now is       12.8 secs

     total energy              =    -333.17881265 Ry
     estimated scf accuracy    <       0.00000018 Ry

     iteration #  7     ecut=    30.00 Ry     beta= 0.70
     Davidson diagonalization with overlap
     ethr =  4.06E-10,  avg # of iterations =  4.3

     total cpu time spent up to now is       13.1 secs

     End of self-consistent calculation

          k = 0.1250 0.1250 0.1250 (  1096 PWs)   bands (ev):

   -44.6325 -21.3134 -21.2325 -21.2317  -6.3733  -5.3291  -5.2443  -4.0528
    -4.0415  -4.0300  -3.8627  -3.8518   4.5727   7.2322   7.2787   8.0139
     8.9200   9.0436   9.6102   9.7710  10.0277  10.1270

          k = 0.1250 0.1250 0.3750 (  1095 PWs)   bands (ev):

   -44.6312 -21.3710 -21.2301 -21.2292  -5.9208  -5.2011  -5.1168  -4.1097
    -4.0483  -4.0241  -3.9498  -3.8358   3.8116   6.7638   7.1354   7.7759
     8.4727   8.5755   9.3937   9.8236  10.1503  10.8801

          k = 0.1250 0.3750 0.3750 (  1093 PWs)   bands (ev):

   -44.6300 -21.3676 -21.2847 -21.2278  -5.7087  -5.1088  -4.9752  -4.0837
    -4.0395  -3.9848  -3.8930  -3.7238   3.4770   6.6117   6.9523   7.1362
     7.4837   8.6812   9.3076   9.4981   9.9872  10.6179

          k = 0.3750 0.3750 0.3750 (  1082 PWs)   bands (ev):

   -44.6286 -21.3649 -21.2822 -21.2819  -5.3821  -5.2049  -5.1528  -3.9984
    -3.9861  -3.7120  -3.6415  -3.6164   4.1014   5.8621   5.9393   6.6281
     7.1133   7.1657   7.9455  10.5430  10.6043  10.7275

          k = 0.3750-0.1250 0.1250 (  1095 PWs)   bands (ev):

   -44.6312 -21.3110 -21.2881 -21.2298  -5.9885  -5.1891  -5.0970  -4.1050
    -4.0410  -4.0285  -3.9602  -3.8275   3.8472   6.8652   7.3405   7.7947
     8.3818   8.7716   9.2311   9.8390   9.9434  10.7830

          k = 0.3750-0.3750 0.1250 (  1093 PWs)   bands (ev):

   -44.6300 -21.3091 -21.2852 -21.2844  -5.8282  -5.0253  -4.9493  -4.0726
    -4.0352  -3.9736  -3.8890  -3.7680   3.5085   6.7977   6.8686   7.1290
     7.4366   8.6388   9.4640   9.4680   9.9527  10.7301

     highest occupied level (ev):    10.8801

!    total energy              =    -333.17881270 Ry
     estimated scf accuracy    <          7.9E-09 Ry

     The total energy is the sum of the following terms:
     one-electron contribution =     -77.35748751 Ry
     hartree contribution      =      66.57766238 Ry
     xc contribution           =     -49.64978687 Ry
     ewald contribution        =    -272.74920071 Ry

     convergence has been achieved in   7 iterations

     Forces acting on atoms (cartesian axes, Ry/au):

     atom    1 type  2   force =     0.00000000    0.00000000    0.02118721
     atom    2 type  3   force =     0.00000000    0.00000000   -0.04353127
     atom    3 type  1   force =     0.00000000    0.00000000    0.00837899
     atom    4 type  1   force =     0.00000000    0.00000000    0.00837899
     atom    5 type  1   force =     0.00000000    0.00000000    0.00558608
     The non-local contrib.  to forces
     atom    1 type  2   force =     0.00000000    0.00000000   -0.01563549
     atom    2 type  3   force =     0.00000000    0.00000000    0.02523810
     atom    3 type  1   force =     0.00000000    0.00000000    0.13179573
     atom    4 type  1   force =     0.00000000    0.00000000    0.13179573
     atom    5 type  1   force =     0.00000000    0.00000000   -0.29907190
     The ionic contribution  to forces
     atom    1 type  2   force =     0.00000000    0.00000000    1.15703460
     atom    2 type  3   force =     0.00000000    0.00000000   -1.96449199
     atom    3 type  1   force =     0.00000000   -0.00000000   -1.23838123
     atom    4 type  1   force =    -0.00000000    0.00000000   -1.23838123
     atom    5 type  1   force =    -0.00000000   -0.00000000    3.28421984
     The local contribution  to forces
     atom    1 type  2   force =     0.00000000   -0.00000000   -1.12029637
     atom    2 type  3   force =    -0.00000000   -0.00000000    1.89604687
     atom    3 type  1   force =     0.00000000   -0.00000000    1.11500148
     atom    4 type  1   force =    -0.00000000    0.00000000    1.11500148
     atom    5 type  1   force =    -0.00000000   -0.00000000   -2.97962943
     The core correction contribution to forces
     atom    1 type  2   force =     0.00000000    0.00000000    0.00000000
     atom    2 type  3   force =     0.00000000    0.00000000    0.00000000
     atom    3 type  1   force =     0.00000000    0.00000000    0.00000000
     atom    4 type  1   force =     0.00000000    0.00000000    0.00000000
     atom    5 type  1   force =     0.00000000    0.00000000    0.00000000
     The Hubbard contrib.    to forces
     atom    1 type  2   force =     0.00000000    0.00000000    0.00000000
     atom    2 type  3   force =     0.00000000    0.00000000    0.00000000
     atom    3 type  1   force =     0.00000000    0.00000000    0.00000000
     atom    4 type  1   force =     0.00000000    0.00000000    0.00000000
     atom    5 type  1   force =     0.00000000    0.00000000    0.00000000
     The SCF correction term to forces
     atom    1 type  2   force =     0.00000000   -0.00000000    0.00000000
     atom    2 type  3   force =     0.00000000    0.00000000   -0.00000000
     atom    3 type  1   force =    -0.00000000   -0.00000000   -0.00004172
     atom    4 type  1   force =    -0.00000000   -0.00000000   -0.00004172
     atom    5 type  1   force =     0.00000000   -0.00000000    0.00006284

     Total force =     0.013100     Total SCF correction =     0.000086


     Computing stress (Cartesian axis) and pressure

          total   stress  (Ry/bohr**3)                   (kbar)     P=      -11.81
  -0.00014417   0.00000000   0.00000000          -21.21        0.00        0.00
   0.00000000  -0.00014417   0.00000000            0.00      -21.21        0.00
   0.00000000   0.00000000   0.00004757            0.00        0.00        7.00

     Energy error            =      7.3E-04 Ry
     Gradient error          =      8.4E-03 Ry/Bohr

     number of scf cycles    =   3
     number of bfgs steps    =   2

     energy             old  =    -333.1780868480 Ry
     energy             new  =    -333.1788127036 Ry

     CASE: energy            _new < energy            _old

     new trust radius        =       0.0322484620 bohr
     new conv_thr            =       0.0000000073 Ry


ATOMIC_POSITIONS (angstrom)
Pb            0.0000000000        0.0000000000        0.0000000000    0   0   0
Ti            1.9400000000        1.9400000000        2.1237900000    0   0   0
O             0.0000000000        1.9400000000        1.9562287476
O             1.9400000000        0.0000000000        1.9562287476
O             1.9400000000        1.9400000000        0.0608351974



     Writing config-only to output data dir /home/gridsan/epan1/labutil/lab3_samples/problem2/Lab3/PbTiO3_a_3.88_ecut_30_nk_4_displ_0.04736842105263156/pwscf.save/
     NEW-OLD atomic charge density approx. for the potential

     total cpu time spent up to now is       14.4 secs

     Self-consistent Calculation

     iteration #  1     ecut=    30.00 Ry     beta= 0.70
     Davidson diagonalization with overlap
     ethr =  1.00E-06,  avg # of iterations =  7.0

     total cpu time spent up to now is       14.8 secs

     total energy              =    -333.17911791 Ry
     estimated scf accuracy    <       0.00022987 Ry

     iteration #  2     ecut=    30.00 Ry     beta= 0.70
     Davidson diagonalization with overlap
     ethr =  5.22E-07,  avg # of iterations =  4.7

     total cpu time spent up to now is       15.1 secs

     total energy              =    -333.17911696 Ry
     estimated scf accuracy    <       0.00022991 Ry

     iteration #  3     ecut=    30.00 Ry     beta= 0.70
     Davidson diagonalization with overlap
     ethr =  5.22E-07,  avg # of iterations =  4.5

     total cpu time spent up to now is       15.5 secs

     total energy              =    -333.17917245 Ry
     estimated scf accuracy    <       0.00004023 Ry

     iteration #  4     ecut=    30.00 Ry     beta= 0.70
     Davidson diagonalization with overlap
     ethr =  9.14E-08,  avg # of iterations =  3.3

     total cpu time spent up to now is       15.8 secs

     total energy              =    -333.17917743 Ry
     estimated scf accuracy    <       0.00000271 Ry

     iteration #  5     ecut=    30.00 Ry     beta= 0.70
     Davidson diagonalization with overlap
     ethr =  6.16E-09,  avg # of iterations =  5.2

     total cpu time spent up to now is       16.1 secs

     total energy              =    -333.17917926 Ry
     estimated scf accuracy    <       0.00000109 Ry

     iteration #  6     ecut=    30.00 Ry     beta= 0.70
     Davidson diagonalization with overlap
     ethr =  2.47E-09,  avg # of iterations =  2.8

     total cpu time spent up to now is       16.4 secs

     total energy              =    -333.17917924 Ry
     estimated scf accuracy    <       0.00000035 Ry

     iteration #  7     ecut=    30.00 Ry     beta= 0.70
     Davidson diagonalization with overlap
     ethr =  8.02E-10,  avg # of iterations =  4.7

     total cpu time spent up to now is       16.7 secs

     total energy              =    -333.17917935 Ry
     estimated scf accuracy    <       0.00000002 Ry

     iteration #  8     ecut=    30.00 Ry     beta= 0.70
     Davidson diagonalization with overlap
     ethr =  3.67E-11,  avg # of iterations =  4.0

     total cpu time spent up to now is       17.1 secs

     End of self-consistent calculation

          k = 0.1250 0.1250 0.1250 (  1096 PWs)   bands (ev):

   -44.6582 -21.3201 -21.2592 -21.2584  -6.3744  -5.3239  -5.2551  -4.0474
    -4.0377  -4.0263  -3.8586  -3.8492   4.5773   7.2365   7.2723   8.0152
     8.9502   9.0601   9.6507   9.7800  10.0131  10.1281

          k = 0.1250 0.1250 0.3750 (  1095 PWs)   bands (ev):

   -44.6569 -21.3775 -21.2569 -21.2560  -5.9300  -5.1886  -5.1293  -4.1046
    -4.0428  -4.0207  -3.9470  -3.8312   3.8247   6.7669   7.1602   7.7720
     8.4649   8.6012   9.3881   9.8340  10.1370  10.8726

          k = 0.1250 0.3750 0.3750 (  1093 PWs)   bands (ev):

   -44.6557 -21.3742 -21.3115 -21.2546  -5.7175  -5.0963  -4.9819  -4.0788
    -4.0346  -3.9805  -3.8890  -3.7226   3.4841   6.6324   6.9328   7.1371
     7.4762   8.6724   9.3295   9.4888   9.9951  10.6274

          k = 0.3750 0.3750 0.3750 (  1082 PWs)   bands (ev):

   -44.6544 -21.3715 -21.3089 -21.3087  -5.3759  -5.2035  -5.1596  -3.9931
    -3.9827  -3.7055  -3.6383  -3.6159   4.1043   5.8740   5.9346   6.6308
     7.0988   7.1403   7.9512  10.5614  10.6177  10.7187

          k = 0.3750-0.1250 0.1250 (  1095 PWs)   bands (ev):

   -44.6570 -21.3180 -21.3145 -21.2566  -5.9852  -5.1886  -5.1054  -4.1008
    -4.0365  -4.0245  -3.9551  -3.8244   3.8520   6.8534   7.3385   7.7942
     8.3845   8.7656   9.2519   9.8507   9.9631  10.7889

          k = 0.3750-0.3750 0.1250 (  1093 PWs)   bands (ev):

   -44.6557 -21.3162 -21.3116 -21.3112  -5.8151  -5.0326  -4.9582  -4.0693
    -4.0308  -3.9704  -3.8856  -3.7606   3.5073   6.7910   6.8614   7.1394
     7.4438   8.6372   9.4613   9.4648   9.9581  10.7209

     highest occupied level (ev):    10.8726

!    total energy              =    -333.17917935 Ry
     estimated scf accuracy    <          1.5E-09 Ry

     The total energy is the sum of the following terms:
     one-electron contribution =     -77.24670622 Ry
     hartree contribution      =      66.51609706 Ry
     xc contribution           =     -49.64430697 Ry
     ewald contribution        =    -272.80426322 Ry

     convergence has been achieved in   8 iterations

     Forces acting on atoms (cartesian axes, Ry/au):

     atom    1 type  2   force =     0.00000000    0.00000000    0.02062009
     atom    2 type  3   force =     0.00000000    0.00000000   -0.03702610
     atom    3 type  1   force =     0.00000000    0.00000000    0.00981999
     atom    4 type  1   force =     0.00000000    0.00000000    0.00981999
     atom    5 type  1   force =     0.00000000    0.00000000   -0.00323397
     The non-local contrib.  to forces
     atom    1 type  2   force =     0.00000000    0.00000000   -0.02261868
     atom    2 type  3   force =     0.00000000    0.00000000    0.02275403
     atom    3 type  1   force =     0.00000000    0.00000000    0.13582949
     atom    4 type  1   force =     0.00000000    0.00000000    0.13582949
     atom    5 type  1   force =     0.00000000    0.00000000   -0.27671080
     The ionic contribution  to forces
     atom    1 type  2   force =     0.00000000    0.00000000    1.22734501
     atom    2 type  3   force =     0.00000000    0.00000000   -1.68631347
     atom    3 type  1   force =     0.00000000    0.00000000   -1.21424431
     atom    4 type  1   force =     0.00000000    0.00000000   -1.21424431
     atom    5 type  1   force =    -0.00000000   -0.00000000    2.88745709
     The local contribution  to forces
     atom    1 type  2   force =     0.00000000    0.00000000   -1.18410711
     atom    2 type  3   force =    -0.00000000   -0.00000000    1.62654149
     atom    3 type  1   force =     0.00000000   -0.00000000    1.08822060
     atom    4 type  1   force =    -0.00000000    0.00000000    1.08822060
     atom    5 type  1   force =    -0.00000000   -0.00000000   -2.61396888
     The core correction contribution to forces
     atom    1 type  2   force =     0.00000000    0.00000000    0.00000000
     atom    2 type  3   force =     0.00000000    0.00000000    0.00000000
     atom    3 type  1   force =     0.00000000    0.00000000    0.00000000
     atom    4 type  1   force =     0.00000000    0.00000000    0.00000000
     atom    5 type  1   force =     0.00000000    0.00000000    0.00000000
     The Hubbard contrib.    to forces
     atom    1 type  2   force =     0.00000000    0.00000000    0.00000000
     atom    2 type  3   force =     0.00000000    0.00000000    0.00000000
     atom    3 type  1   force =     0.00000000    0.00000000    0.00000000
     atom    4 type  1   force =     0.00000000    0.00000000    0.00000000
     atom    5 type  1   force =     0.00000000    0.00000000    0.00000000
     The SCF correction term to forces
     atom    1 type  2   force =     0.00000000    0.00000000   -0.00000000
     atom    2 type  3   force =     0.00000000   -0.00000000   -0.00000000
     atom    3 type  1   force =     0.00000000   -0.00000000    0.00001091
     atom    4 type  1   force =     0.00000000   -0.00000000    0.00001091
     atom    5 type  1   force =     0.00000000   -0.00000000   -0.00001469

     Total force =     0.014259     Total SCF correction =     0.000021


     Computing stress (Cartesian axis) and pressure

          total   stress  (Ry/bohr**3)                   (kbar)     P=      -14.95
  -0.00014636   0.00000000   0.00000000          -21.53        0.00        0.00
   0.00000000  -0.00014636   0.00000000            0.00      -21.53        0.00
   0.00000000   0.00000000  -0.00001224            0.00        0.00       -1.80

     Energy error            =      3.7E-04 Ry
     Gradient error          =      9.8E-03 Ry/Bohr

     number of scf cycles    =   4
     number of bfgs steps    =   3

     energy             old  =    -333.1788127036 Ry
     energy             new  =    -333.1791793506 Ry

     CASE: energy            _new < energy            _old

     new trust radius        =       0.0354733082 bohr
     new conv_thr            =       0.0000000037 Ry


ATOMIC_POSITIONS (angstrom)
Pb            0.0000000000        0.0000000000        0.0000000000    0   0   0
Ti            1.9400000000        1.9400000000        2.1237900000    0   0   0
O             0.0000000000        1.9400000000        1.9740302294
O             1.9400000000        0.0000000000        1.9740302294
O             1.9400000000        1.9400000000        0.0796068637



     Writing config-only to output data dir /home/gridsan/epan1/labutil/lab3_samples/problem2/Lab3/PbTiO3_a_3.88_ecut_30_nk_4_displ_0.04736842105263156/pwscf.save/
     NEW-OLD atomic charge density approx. for the potential

     total cpu time spent up to now is       18.4 secs

     Self-consistent Calculation

     iteration #  1     ecut=    30.00 Ry     beta= 0.70
     Davidson diagonalization with overlap
     ethr =  1.00E-06,  avg # of iterations =  8.2

     total cpu time spent up to now is       18.9 secs

     total energy              =    -333.17955962 Ry
     estimated scf accuracy    <       0.00035294 Ry

     iteration #  2     ecut=    30.00 Ry     beta= 0.70
     Davidson diagonalization with overlap
     ethr =  8.02E-07,  avg # of iterations =  4.5

     total cpu time spent up to now is       19.2 secs

     total energy              =    -333.17955782 Ry
     estimated scf accuracy    <       0.00024422 Ry

     iteration #  3     ecut=    30.00 Ry     beta= 0.70
     Davidson diagonalization with overlap
     ethr =  5.55E-07,  avg # of iterations =  4.5

     total cpu time spent up to now is       19.6 secs

     total energy              =    -333.17962012 Ry
     estimated scf accuracy    <       0.00009546 Ry

     iteration #  4     ecut=    30.00 Ry     beta= 0.70
     Davidson diagonalization with overlap
     ethr =  2.17E-07,  avg # of iterations =  3.3

     total cpu time spent up to now is       19.9 secs

     total energy              =    -333.17962991 Ry
     estimated scf accuracy    <       0.00000621 Ry

     iteration #  5     ecut=    30.00 Ry     beta= 0.70
     Davidson diagonalization with overlap
     ethr =  1.41E-08,  avg # of iterations =  5.7

     total cpu time spent up to now is       20.2 secs

     total energy              =    -333.17963552 Ry
     estimated scf accuracy    <       0.00000805 Ry

     iteration #  6     ecut=    30.00 Ry     beta= 0.70
     Davidson diagonalization with overlap
     ethr =  1.41E-08,  avg # of iterations =  1.8

     total cpu time spent up to now is       20.5 secs

     total energy              =    -333.17963446 Ry
     estimated scf accuracy    <       0.00000470 Ry

     iteration #  7     ecut=    30.00 Ry     beta= 0.70
     Davidson diagonalization with overlap
     ethr =  1.07E-08,  avg # of iterations =  3.3

     total cpu time spent up to now is       20.8 secs

     total energy              =    -333.17963514 Ry
     estimated scf accuracy    <       0.00000034 Ry

     iteration #  8     ecut=    30.00 Ry     beta= 0.70
     Davidson diagonalization with overlap
     ethr =  7.67E-10,  avg # of iterations =  4.8

     total cpu time spent up to now is       21.1 secs

     total energy              =    -333.17963530 Ry
     estimated scf accuracy    <       0.00000002 Ry

     iteration #  9     ecut=    30.00 Ry     beta= 0.70
     Davidson diagonalization with overlap
     ethr =  4.96E-11,  avg # of iterations =  3.0

     total cpu time spent up to now is       21.4 secs

     total energy              =    -333.17963530 Ry
     estimated scf accuracy    <       0.00000001 Ry

     iteration # 10     ecut=    30.00 Ry     beta= 0.70
     Davidson diagonalization with overlap
     ethr =  2.64E-11,  avg # of iterations =  4.5

     total cpu time spent up to now is       21.8 secs

     End of self-consistent calculation

          k = 0.1250 0.1250 0.1250 (  1096 PWs)   bands (ev):

   -44.6826 -21.3268 -21.2851 -21.2843  -6.3758  -5.3195  -5.2708  -4.0419
    -4.0340  -4.0224  -3.8547  -3.8461   4.5820   7.2422   7.2665   8.0203
     8.9820   9.0725   9.7031   9.7938   9.9921  10.1208

          k = 0.1250 0.1250 0.3750 (  1095 PWs)   bands (ev):

   -44.6813 -21.3839 -21.2828 -21.2819  -5.9418  -5.1748  -5.1472  -4.0990
    -4.0370  -4.0172  -3.9436  -3.8266   3.8396   6.7724   7.1941   7.7727
     8.4468   8.6256   9.3774   9.8485  10.1184  10.8601

          k = 0.1250 0.3750 0.3750 (  1093 PWs)   bands (ev):

   -44.6801 -21.3806 -21.3375 -21.2805  -5.7293  -5.0837  -4.9900  -4.0735
    -4.0296  -3.9757  -3.8846  -3.7212   3.4910   6.6588   6.9038   7.1387
     7.4658   8.6605   9.3477   9.4760  10.0010  10.6382

          k = 0.3750 0.3750 0.3750 (  1082 PWs)   bands (ev):

   -44.6788 -21.3779 -21.3350 -21.3347  -5.3698  -5.2015  -5.1687  -3.9876
    -3.9791  -3.6988  -3.6344  -3.6149   4.1045   5.8853   5.9259   6.6377
     7.0752   7.1034   7.9571  10.5805  10.6291  10.7082

          k = 0.3750-0.1250 0.1250 (  1095 PWs)   bands (ev):

   -44.6813 -21.3409 -21.3243 -21.2824  -5.9814  -5.1908  -5.1164  -4.0967
    -4.0318  -4.0204  -3.9488  -3.8209   3.8561   6.8368   7.3320   7.7944
     8.3877   8.7518   9.2727   9.8621   9.9870  10.7940

          k = 0.3750-0.3750 0.1250 (  1093 PWs)   bands (ev):

   -44.6801 -21.3382 -21.3372 -21.3223  -5.7991  -5.0429  -4.9702  -4.0660
    -4.0259  -3.9661  -3.8810  -3.7526   3.5036   6.7822   6.8486   7.1442
     7.4448   8.6346   9.4522   9.4603   9.9663  10.7080

     highest occupied level (ev):    10.8601

!    total energy              =    -333.17963530 Ry
     estimated scf accuracy    <          5.3E-10 Ry

     The total energy is the sum of the following terms:
     one-electron contribution =     -77.21436976 Ry
     hartree contribution      =      66.49353240 Ry
     xc contribution           =     -49.64048428 Ry
     ewald contribution        =    -272.81831365 Ry

     convergence has been achieved in  10 iterations

     Forces acting on atoms (cartesian axes, Ry/au):

     atom    1 type  2   force =     0.00000000    0.00000000    0.01945600
     atom    2 type  3   force =     0.00000000    0.00000000   -0.03108818
     atom    3 type  1   force =     0.00000000    0.00000000    0.01045361
     atom    4 type  1   force =     0.00000000    0.00000000    0.01045361
     atom    5 type  1   force =     0.00000000    0.00000000   -0.00927504
     The non-local contrib.  to forces
     atom    1 type  2   force =     0.00000000    0.00000000   -0.03552218
     atom    2 type  3   force =     0.00000000    0.00000000    0.02017135
     atom    3 type  1   force =     0.00000000    0.00000000    0.13702973
     atom    4 type  1   force =     0.00000000    0.00000000    0.13702973
     atom    5 type  1   force =     0.00000000    0.00000000   -0.24689450
     The ionic contribution  to forces
     atom    1 type  2   force =     0.00000000    0.00000000    1.40435910
     atom    2 type  3   force =     0.00000000    0.00000000   -1.48824804
     atom    3 type  1   force =     0.00000000   -0.00000000   -1.20622890
     atom    4 type  1   force =    -0.00000000    0.00000000   -1.20622890
     atom    5 type  1   force =    -0.00000000   -0.00000000    2.49634674
     The local contribution  to forces
     atom    1 type  2   force =     0.00000000   -0.00000000   -1.34939053
     atom    2 type  3   force =    -0.00000000   -0.00000000    1.43697659
     atom    3 type  1   force =     0.00000000   -0.00000000    1.07964868
     atom    4 type  1   force =    -0.00000000    0.00000000    1.07964868
     atom    5 type  1   force =    -0.00000000   -0.00000000   -2.25873817
     The core correction contribution to forces
     atom    1 type  2   force =     0.00000000    0.00000000    0.00000000
     atom    2 type  3   force =     0.00000000    0.00000000    0.00000000
     atom    3 type  1   force =     0.00000000    0.00000000    0.00000000
     atom    4 type  1   force =     0.00000000    0.00000000    0.00000000
     atom    5 type  1   force =     0.00000000    0.00000000    0.00000000
     The Hubbard contrib.    to forces
     atom    1 type  2   force =     0.00000000    0.00000000    0.00000000
     atom    2 type  3   force =     0.00000000    0.00000000    0.00000000
     atom    3 type  1   force =     0.00000000    0.00000000    0.00000000
     atom    4 type  1   force =     0.00000000    0.00000000    0.00000000
     atom    5 type  1   force =     0.00000000    0.00000000    0.00000000
     The SCF correction term to forces
     atom    1 type  2   force =    -0.00000000   -0.00000000    0.00000000
     atom    2 type  3   force =     0.00000000    0.00000000    0.00000000
     atom    3 type  1   force =    -0.00000000    0.00000000   -0.00000055
     atom    4 type  1   force =    -0.00000000   -0.00000000   -0.00000055
     atom    5 type  1   force =    -0.00000000   -0.00000000    0.00000623

     Total force =     0.017452     Total SCF correction =     0.000006


     Computing stress (Cartesian axis) and pressure

          total   stress  (Ry/bohr**3)                   (kbar)     P=      -17.18
  -0.00014379   0.00000000   0.00000000          -21.15        0.00        0.00
   0.00000000  -0.00014379   0.00000000            0.00      -21.15        0.00
   0.00000000   0.00000000  -0.00006276            0.00        0.00       -9.23

     Energy error            =      4.6E-04 Ry
     Gradient error          =      1.0E-02 Ry/Bohr

     number of scf cycles    =   5
     number of bfgs steps    =   4

     energy             old  =    -333.1791793506 Ry
     energy             new  =    -333.1796352974 Ry

     CASE: energy            _new < energy            _old

     new trust radius        =       0.0532099623 bohr
     new conv_thr            =       0.0000000046 Ry


ATOMIC_POSITIONS (angstrom)
Pb            0.0000000000        0.0000000000        0.0000000000    0   0   0
Ti            1.9400000000        1.9400000000        2.1237900000    0   0   0
O             0.0000000000        1.9400000000        2.0021877288
O             1.9400000000        0.0000000000        2.0021877288
O             1.9400000000        1.9400000000        0.1016788262



     Writing config-only to output data dir /home/gridsan/epan1/labutil/lab3_samples/problem2/Lab3/PbTiO3_a_3.88_ecut_30_nk_4_displ_0.04736842105263156/pwscf.save/
     NEW-OLD atomic charge density approx. for the potential

     total cpu time spent up to now is       22.9 secs

     Self-consistent Calculation

     iteration #  1     ecut=    30.00 Ry     beta= 0.70
     Davidson diagonalization with overlap
     ethr =  1.00E-06,  avg # of iterations =  9.0

     total cpu time spent up to now is       23.4 secs

     total energy              =    -333.18015952 Ry
     estimated scf accuracy    <       0.00063752 Ry

     iteration #  2     ecut=    30.00 Ry     beta= 0.70
     Davidson diagonalization with overlap
     ethr =  1.45E-06,  avg # of iterations =  4.2

     total cpu time spent up to now is       23.7 secs

     total energy              =    -333.18015946 Ry
     estimated scf accuracy    <       0.00031199 Ry

     iteration #  3     ecut=    30.00 Ry     beta= 0.70
     Davidson diagonalization with overlap
     ethr =  7.09E-07,  avg # of iterations =  4.7

     total cpu time spent up to now is       24.1 secs

     total energy              =    -333.18024221 Ry
     estimated scf accuracy    <       0.00023434 Ry

     iteration #  4     ecut=    30.00 Ry     beta= 0.70
     Davidson diagonalization with overlap
     ethr =  5.33E-07,  avg # of iterations =  3.3

     total cpu time spent up to now is       24.4 secs

     total energy              =    -333.18026745 Ry
     estimated scf accuracy    <       0.00001280 Ry

     iteration #  5     ecut=    30.00 Ry     beta= 0.70
     Davidson diagonalization with overlap
     ethr =  2.91E-08,  avg # of iterations =  5.8

     total cpu time spent up to now is       24.7 secs

     total energy              =    -333.18028022 Ry
     estimated scf accuracy    <       0.00002157 Ry

     iteration #  6     ecut=    30.00 Ry     beta= 0.70
     Davidson diagonalization with overlap
     ethr =  2.91E-08,  avg # of iterations =  2.0

     total cpu time spent up to now is       25.0 secs

     total energy              =    -333.18027752 Ry
     estimated scf accuracy    <       0.00001283 Ry

     iteration #  7     ecut=    30.00 Ry     beta= 0.70
     Davidson diagonalization with overlap
     ethr =  2.91E-08,  avg # of iterations =  3.3

     total cpu time spent up to now is       25.3 secs

     total energy              =    -333.18027878 Ry
     estimated scf accuracy    <       0.00000141 Ry

     iteration #  8     ecut=    30.00 Ry     beta= 0.70
     Davidson diagonalization with overlap
     ethr =  3.21E-09,  avg # of iterations =  4.8

     total cpu time spent up to now is       25.6 secs

     total energy              =    -333.18027939 Ry
     estimated scf accuracy    <       0.00000013 Ry

     iteration #  9     ecut=    30.00 Ry     beta= 0.70
     Davidson diagonalization with overlap
     ethr =  3.04E-10,  avg # of iterations =  2.5

     total cpu time spent up to now is       25.9 secs

     total energy              =    -333.18027937 Ry
     estimated scf accuracy    <       0.00000008 Ry

     iteration # 10     ecut=    30.00 Ry     beta= 0.70
     Davidson diagonalization with overlap
     ethr =  1.72E-10,  avg # of iterations =  4.3

     total cpu time spent up to now is       26.2 secs

     End of self-consistent calculation

          k = 0.1250 0.1250 0.1250 (  1096 PWs)   bands (ev):

   -44.7074 -21.3345 -21.3119 -21.3111  -6.3795  -5.3154  -5.2937  -4.0347
    -4.0289  -4.0170  -3.8499  -3.8401   4.5875   7.2481   7.2613   8.0285
     9.0153   9.0802   9.7709   9.8116   9.9622  10.1010

          k = 0.1250 0.1250 0.3750 (  1095 PWs)   bands (ev):

   -44.7061 -21.3914 -21.3096 -21.3087  -5.9590  -5.1734  -5.1589  -4.0912
    -4.0294  -4.0122  -3.9371  -3.8207   3.8573   6.7801   7.2364   7.7749
     8.4179   8.6507   9.3592   9.8661  10.0920  10.8430

          k = 0.1250 0.3750 0.3750 (  1093 PWs)   bands (ev):

   -44.7049 -21.3881 -21.3645 -21.3072  -5.7464  -5.0735  -4.9992  -4.0665
    -4.0230  -3.9688  -3.8780  -3.7175   3.4988   6.6910   6.8637   7.1380
     7.4531   8.6435   9.3601   9.4604  10.0060  10.6499

          k = 0.3750 0.3750 0.3750 (  1082 PWs)   bands (ev):

   -44.7036 -21.3854 -21.3619 -21.3617  -5.3662  -5.1981  -5.1825  -3.9804
    -3.9740  -3.6911  -3.6278  -3.6116   4.1006   5.8967   5.9123   6.6466
     7.0427   7.0546   7.9670  10.5998  10.6329  10.6984

          k = 0.3750-0.1250 0.1250 (  1095 PWs)   bands (ev):

   -44.7061 -21.3679 -21.3321 -21.3092  -5.9789  -5.1964  -5.1321  -4.0911
    -4.0255  -4.0146  -3.9387  -3.8150   3.8601   6.8142   7.3198   7.7951
     8.3906   8.7300   9.2928   9.8714  10.0142  10.7995

          k = 0.3750-0.3750 0.1250 (  1093 PWs)   bands (ev):

   -44.7049 -21.3650 -21.3642 -21.3301  -5.7803  -5.0590  -4.9890  -4.0613
    -4.0186  -3.9581  -3.8728  -3.7426   3.4960   6.7697   6.8290   7.1433
     7.4409   8.6316   9.4367   9.4541   9.9786  10.6892

     highest occupied level (ev):    10.8430

!    total energy              =    -333.18027939 Ry
     estimated scf accuracy    <          1.7E-09 Ry

     The total energy is the sum of the following terms:
     one-electron contribution =     -77.27271916 Ry
     hartree contribution      =      66.51599450 Ry
     xc contribution           =     -49.63853491 Ry
     ewald contribution        =    -272.78501981 Ry

     convergence has been achieved in  10 iterations

     Forces acting on atoms (cartesian axes, Ry/au):

     atom    1 type  2   force =     0.00000000    0.00000000    0.01758551
     atom    2 type  3   force =     0.00000000    0.00000000   -0.02582457
     atom    3 type  1   force =     0.00000000    0.00000000    0.01028007
     atom    4 type  1   force =     0.00000000    0.00000000    0.01028007
     atom    5 type  1   force =     0.00000000    0.00000000   -0.01232109
     The non-local contrib.  to forces
     atom    1 type  2   force =     0.00000000    0.00000000   -0.05585740
     atom    2 type  3   force =     0.00000000    0.00000000    0.01755493
     atom    3 type  1   force =     0.00000000    0.00000000    0.13574494
     atom    4 type  1   force =     0.00000000    0.00000000    0.13574494
     atom    5 type  1   force =     0.00000000    0.00000000   -0.20665162
     The ionic contribution  to forces
     atom    1 type  2   force =     0.00000000    0.00000000    1.71143659
     atom    2 type  3   force =     0.00000000    0.00000000   -1.36706755
     atom    3 type  1   force =     0.00000000   -0.00000000   -1.21309883
     atom    4 type  1   force =    -0.00000000    0.00000000   -1.21309883
     atom    5 type  1   force =    -0.00000000   -0.00000000    2.08182863
     The local contribution  to forces
     atom    1 type  2   force =    -0.00000000    0.00000000   -1.63798878
     atom    2 type  3   force =    -0.00000000   -0.00000000    1.32369764
     atom    3 type  1   force =     0.00000000   -0.00000000    1.08764614
     atom    4 type  1   force =    -0.00000000    0.00000000    1.08764614
     atom    5 type  1   force =    -0.00000000   -0.00000000   -1.88750463
     The core correction contribution to forces
     atom    1 type  2   force =     0.00000000    0.00000000    0.00000000
     atom    2 type  3   force =     0.00000000    0.00000000    0.00000000
     atom    3 type  1   force =     0.00000000    0.00000000    0.00000000
     atom    4 type  1   force =     0.00000000    0.00000000    0.00000000
     atom    5 type  1   force =     0.00000000    0.00000000    0.00000000
     The Hubbard contrib.    to forces
     atom    1 type  2   force =     0.00000000    0.00000000    0.00000000
     atom    2 type  3   force =     0.00000000    0.00000000    0.00000000
     atom    3 type  1   force =     0.00000000    0.00000000    0.00000000
     atom    4 type  1   force =     0.00000000    0.00000000    0.00000000
     atom    5 type  1   force =     0.00000000    0.00000000    0.00000000
     The SCF correction term to forces
     atom    1 type  2   force =     0.00000000    0.00000000    0.00000000
     atom    2 type  3   force =    -0.00000000   -0.00000000   -0.00000000
     atom    3 type  1   force =    -0.00000000   -0.00000000   -0.00000494
     atom    4 type  1   force =    -0.00000000    0.00000000   -0.00000494
     atom    5 type  1   force =     0.00000000    0.00000000    0.00001377

     Total force =     0.019057     Total SCF correction =     0.000015


     Computing stress (Cartesian axis) and pressure

          total   stress  (Ry/bohr**3)                   (kbar)     P=      -18.28
  -0.00013493   0.00000000   0.00000000          -19.85        0.00        0.00
   0.00000000  -0.00013493   0.00000000            0.00      -19.85        0.00
   0.00000000   0.00000000  -0.00010291            0.00        0.00      -15.14

     Energy error            =      6.4E-04 Ry
     Gradient error          =      1.2E-02 Ry/Bohr

     number of scf cycles    =   6
     number of bfgs steps    =   5

     energy             old  =    -333.1796352974 Ry
     energy             new  =    -333.1802793856 Ry

     CASE: energy            _new < energy            _old

     new trust radius        =       0.0798149434 bohr
     new conv_thr            =       0.0000000064 Ry


ATOMIC_POSITIONS (angstrom)
Pb            0.0000000000        0.0000000000        0.0000000000    0   0   0
Ti            1.9400000000        1.9400000000        2.1237900000    0   0   0
O             0.0000000000        1.9400000000        2.0444239779
O             1.9400000000        0.0000000000        2.0444239779
O             1.9400000000        1.9400000000        0.1301525689



     Writing config-only to output data dir /home/gridsan/epan1/labutil/lab3_samples/problem2/Lab3/PbTiO3_a_3.88_ecut_30_nk_4_displ_0.04736842105263156/pwscf.save/
     NEW-OLD atomic charge density approx. for the potential

     total cpu time spent up to now is       27.4 secs

     Self-consistent Calculation

     iteration #  1     ecut=    30.00 Ry     beta= 0.70
     Davidson diagonalization with overlap
     ethr =  1.00E-06,  avg # of iterations =  9.2

     total cpu time spent up to now is       27.9 secs

     total energy              =    -333.18095474 Ry
     estimated scf accuracy    <       0.00125639 Ry

     iteration #  2     ecut=    30.00 Ry     beta= 0.70
     Davidson diagonalization with overlap
     ethr =  2.86E-06,  avg # of iterations =  3.3

     total cpu time spent up to now is       28.2 secs

     total energy              =    -333.18106518 Ry
     estimated scf accuracy    <       0.00026741 Ry

     iteration #  3     ecut=    30.00 Ry     beta= 0.70
     Davidson diagonalization with overlap
     ethr =  6.08E-07,  avg # of iterations =  4.7

     total cpu time spent up to now is       28.6 secs

     total energy              =    -333.18112084 Ry
     estimated scf accuracy    <       0.00024385 Ry

     iteration #  4     ecut=    30.00 Ry     beta= 0.70
     Davidson diagonalization with overlap
     ethr =  5.54E-07,  avg # of iterations =  4.0

     total cpu time spent up to now is       28.9 secs

     total energy              =    -333.18116762 Ry
     estimated scf accuracy    <       0.00000692 Ry

     iteration #  5     ecut=    30.00 Ry     beta= 0.70
     Davidson diagonalization with overlap
     ethr =  1.57E-08,  avg # of iterations =  5.7

     total cpu time spent up to now is       29.3 secs

     total energy              =    -333.18116999 Ry
     estimated scf accuracy    <       0.00000946 Ry

     iteration #  6     ecut=    30.00 Ry     beta= 0.70
     Davidson diagonalization with overlap
     ethr =  1.57E-08,  avg # of iterations =  4.2

     total cpu time spent up to now is       29.6 secs

     total energy              =    -333.18117104 Ry
     estimated scf accuracy    <       0.00000057 Ry

     iteration #  7     ecut=    30.00 Ry     beta= 0.70
     Davidson diagonalization with overlap
     ethr =  1.31E-09,  avg # of iterations =  5.3

     total cpu time spent up to now is       29.9 secs

     total energy              =    -333.18117138 Ry
     estimated scf accuracy    <       0.00000031 Ry

     iteration #  8     ecut=    30.00 Ry     beta= 0.70
     Davidson diagonalization with overlap
     ethr =  7.05E-10,  avg # of iterations =  1.2

     total cpu time spent up to now is       30.2 secs

     total energy              =    -333.18117134 Ry
     estimated scf accuracy    <       0.00000016 Ry

     iteration #  9     ecut=    30.00 Ry     beta= 0.70
     Davidson diagonalization with overlap
     ethr =  3.57E-10,  avg # of iterations =  3.7

     total cpu time spent up to now is       30.5 secs

     End of self-consistent calculation

          k = 0.1250 0.1250 0.1250 (  1096 PWs)   bands (ev):

   -44.7339 -21.3446 -21.3408 -21.3402  -6.3895  -5.3280  -5.3101  -4.0232
    -4.0196  -4.0067  -3.8417  -3.8258   4.5949   7.2499   7.2562   8.0380
     9.0487   9.0809   9.8294   9.8569   9.9211  10.0639

          k = 0.1250 0.1250 0.3750 (  1095 PWs)   bands (ev):

   -44.7327 -21.4011 -21.3387 -21.3378  -5.9871  -5.2129  -5.1384  -4.0776
    -4.0167  -4.0025  -3.9221  -3.8106   3.8797   6.7905   7.2806   7.7707
     8.3815   8.6786   9.3300   9.8831  10.0530  10.8235

          k = 0.1250 0.3750 0.3750 (  1093 PWs)   bands (ev):

   -44.7315 -21.3978 -21.3939 -21.3363  -5.7733  -5.0772  -5.0029  -4.0543
    -4.0118  -3.9565  -3.8654  -3.7067   3.5097   6.7269   6.8122   7.1288
     7.4399   8.6177   9.3595   9.4470  10.0125  10.6616

          k = 0.3750 0.3750 0.3750 (  1082 PWs)   bands (ev):

   -44.7302 -21.3952 -21.3913 -21.3911  -5.3709  -5.2059  -5.1908  -3.9681
    -3.9642  -3.6802  -3.6149  -3.6021   4.0895   5.8926   5.9091   6.6525
     6.9962   7.0047   7.9890  10.6167  10.6179  10.6961

          k = 0.3750-0.1250 0.1250 (  1095 PWs)   bands (ev):

   -44.7327 -21.3972 -21.3422 -21.3382  -5.9816  -5.2078  -5.1563  -4.0812
    -4.0147  -4.0034  -3.9197  -3.8026   3.8643   6.7841   7.3004   7.7948
     8.3904   8.7013   9.3110   9.8748  10.0404  10.8082

          k = 0.3750-0.3750 0.1250 (  1093 PWs)   bands (ev):

   -44.7315 -21.3944 -21.3935 -21.3402  -5.7585  -5.0865  -5.0218  -4.0522
    -4.0048  -3.9410  -3.8551  -3.7275   3.4818   6.7507   6.8007   7.1378
     7.4358   8.6301   9.4159   9.4463   9.9981  10.6597

     highest occupied level (ev):    10.8235

!    total energy              =    -333.18117138 Ry
     estimated scf accuracy    <          3.4E-09 Ry

     The total energy is the sum of the following terms:
     one-electron contribution =     -77.45227395 Ry
     hartree contribution      =      66.59857143 Ry
     xc contribution           =     -49.63898220 Ry
     ewald contribution        =    -272.68848666 Ry

     convergence has been achieved in   9 iterations

     Forces acting on atoms (cartesian axes, Ry/au):

     atom    1 type  2   force =     0.00000000    0.00000000    0.01512592
     atom    2 type  3   force =     0.00000000    0.00000000   -0.02172131
     atom    3 type  1   force =     0.00000000    0.00000000    0.00916792
     atom    4 type  1   force =     0.00000000    0.00000000    0.00916792
     atom    5 type  1   force =     0.00000000    0.00000000   -0.01174046
     The non-local contrib.  to forces
     atom    1 type  2   force =     0.00000000    0.00000000   -0.08607375
     atom    2 type  3   force =     0.00000000    0.00000000    0.01505080
     atom    3 type  1   force =     0.00000000    0.00000000    0.13258583
     atom    4 type  1   force =     0.00000000    0.00000000    0.13258583
     atom    5 type  1   force =     0.00000000    0.00000000   -0.15037181
     The ionic contribution  to forces
     atom    1 type  2   force =     0.00000000    0.00000000    2.18694770
     atom    2 type  3   force =     0.00000000    0.00000000   -1.30979832
     atom    3 type  1   force =     0.00000000    0.00000000   -1.23114216
     atom    4 type  1   force =     0.00000000    0.00000000   -1.23114216
     atom    5 type  1   force =     0.00000000    0.00000000    1.58513494
     The local contribution  to forces
     atom    1 type  2   force =    -0.00000000    0.00000000   -2.08575484
     atom    2 type  3   force =    -0.00000000   -0.00000000    1.27303317
     atom    3 type  1   force =     0.00000000   -0.00000000    1.10771411
     atom    4 type  1   force =    -0.00000000    0.00000000    1.10771411
     atom    5 type  1   force =    -0.00000000   -0.00000000   -1.44653089
     The core correction contribution to forces
     atom    1 type  2   force =     0.00000000    0.00000000    0.00000000
     atom    2 type  3   force =     0.00000000    0.00000000    0.00000000
     atom    3 type  1   force =     0.00000000    0.00000000    0.00000000
     atom    4 type  1   force =     0.00000000    0.00000000    0.00000000
     atom    5 type  1   force =     0.00000000    0.00000000    0.00000000
     The Hubbard contrib.    to forces
     atom    1 type  2   force =     0.00000000    0.00000000    0.00000000
     atom    2 type  3   force =     0.00000000    0.00000000    0.00000000
     atom    3 type  1   force =     0.00000000    0.00000000    0.00000000
     atom    4 type  1   force =     0.00000000    0.00000000    0.00000000
     atom    5 type  1   force =     0.00000000    0.00000000    0.00000000
     The SCF correction term to forces
     atom    1 type  2   force =     0.00000000   -0.00000000   -0.00000000
     atom    2 type  3   force =    -0.00000000    0.00000000   -0.00000000
     atom    3 type  1   force =     0.00000000   -0.00000000   -0.00000420
     atom    4 type  1   force =     0.00000000   -0.00000000   -0.00000420
     atom    5 type  1   force =    -0.00000000    0.00000000    0.00001296

     Total force =     0.017491     Total SCF correction =     0.000014


     Computing stress (Cartesian axis) and pressure

          total   stress  (Ry/bohr**3)                   (kbar)     P=      -18.12
  -0.00011953   0.00000000   0.00000000          -17.58        0.00        0.00
   0.00000000  -0.00011953   0.00000000            0.00      -17.58        0.00
   0.00000000   0.00000000  -0.00013037            0.00        0.00      -19.18

     Energy error            =      8.9E-04 Ry
     Gradient error          =      1.2E-02 Ry/Bohr

     number of scf cycles    =   7
     number of bfgs steps    =   6

     energy             old  =    -333.1802793856 Ry
     energy             new  =    -333.1811713835 Ry

     CASE: energy            _new < energy            _old

     new trust radius        =       0.1197224151 bohr
     new conv_thr            =       0.0000000089 Ry


ATOMIC_POSITIONS (angstrom)
Pb            0.0000000000        0.0000000000        0.0000000000    0   0   0
Ti            1.9400000000        1.9400000000        2.1237900000    0   0   0
O             0.0000000000        1.9400000000        2.1077783516
O             1.9400000000        0.0000000000        2.1077783516
O             1.9400000000        1.9400000000        0.1715953428



     Writing config-only to output data dir /home/gridsan/epan1/labutil/lab3_samples/problem2/Lab3/PbTiO3_a_3.88_ecut_30_nk_4_displ_0.04736842105263156/pwscf.save/
     NEW-OLD atomic charge density approx. for the potential

     total cpu time spent up to now is       31.8 secs

     Self-consistent Calculation

     iteration #  1     ecut=    30.00 Ry     beta= 0.70
     Davidson diagonalization with overlap
     ethr =  1.00E-06,  avg # of iterations = 10.3

     total cpu time spent up to now is       32.4 secs

     total energy              =    -333.18195479 Ry
     estimated scf accuracy    <       0.00269471 Ry

     iteration #  2     ecut=    30.00 Ry     beta= 0.70
     Davidson diagonalization with overlap
     ethr =  6.12E-06,  avg # of iterations =  2.7

     total cpu time spent up to now is       32.7 secs

     total energy              =    -333.18231171 Ry
     estimated scf accuracy    <       0.00025714 Ry

     iteration #  3     ecut=    30.00 Ry     beta= 0.70
     Davidson diagonalization with overlap
     ethr =  5.84E-07,  avg # of iterations =  4.5

     total cpu time spent up to now is       33.0 secs

     total energy              =    -333.18235522 Ry
     estimated scf accuracy    <       0.00012805 Ry

     iteration #  4     ecut=    30.00 Ry     beta= 0.70
     Davidson diagonalization with overlap
     ethr =  2.91E-07,  avg # of iterations =  4.7

     total cpu time spent up to now is       33.3 secs

     total energy              =    -333.18238356 Ry
     estimated scf accuracy    <       0.00003905 Ry

     iteration #  5     ecut=    30.00 Ry     beta= 0.70
     Davidson diagonalization with overlap
     ethr =  8.88E-08,  avg # of iterations =  4.0

     total cpu time spent up to now is       33.7 secs

     total energy              =    -333.18239129 Ry
     estimated scf accuracy    <       0.00000298 Ry

     iteration #  6     ecut=    30.00 Ry     beta= 0.70
     Davidson diagonalization with overlap
     ethr =  6.78E-09,  avg # of iterations =  5.0

     total cpu time spent up to now is       34.0 secs

     total energy              =    -333.18239211 Ry
     estimated scf accuracy    <       0.00000161 Ry

     iteration #  7     ecut=    30.00 Ry     beta= 0.70
     Davidson diagonalization with overlap
     ethr =  3.65E-09,  avg # of iterations =  3.3

     total cpu time spent up to now is       34.3 secs

     total energy              =    -333.18239222 Ry
     estimated scf accuracy    <       0.00000021 Ry

     iteration #  8     ecut=    30.00 Ry     beta= 0.70
     Davidson diagonalization with overlap
     ethr =  4.81E-10,  avg # of iterations =  5.0

     total cpu time spent up to now is       34.6 secs

     total energy              =    -333.18239234 Ry
     estimated scf accuracy    <       0.00000015 Ry

     iteration #  9     ecut=    30.00 Ry     beta= 0.70
     Davidson diagonalization with overlap
     ethr =  3.48E-10,  avg # of iterations =  1.3

     total cpu time spent up to now is       34.9 secs

     total energy              =    -333.18239232 Ry
     estimated scf accuracy    <       0.00000007 Ry

     iteration # 10     ecut=    30.00 Ry     beta= 0.70
     Davidson diagonalization with overlap
     ethr =  1.54E-10,  avg # of iterations =  4.2

     total cpu time spent up to now is       35.2 secs

     End of self-consistent calculation

          k = 0.1250 0.1250 0.1250 (  1096 PWs)   bands (ev):

   -44.7616 -21.3715 -21.3706 -21.3580  -6.4146  -5.3816  -5.3018  -4.0023
    -4.0004  -3.9843  -3.8252  -3.7918   4.6053   7.2360   7.2503   8.0443
     9.0680   9.0737   9.8197   9.8840   9.9104  10.0470

          k = 0.1250 0.1250 0.3750 (  1095 PWs)   bands (ev):

   -44.7603 -21.4143 -21.3692 -21.3682  -6.0359  -5.2745  -5.1107  -4.0519
    -3.9931  -3.9814  -3.8867  -3.7914   3.9079   6.8037   7.2998   7.7435
     8.3547   8.7040   9.2875   9.8869   9.9967  10.8103

          k = 0.1250 0.3750 0.3750 (  1093 PWs)   bands (ev):

   -44.7591 -21.4247 -21.4110 -21.3667  -5.8184  -5.1182  -4.9902  -4.0311
    -3.9897  -3.9324  -3.8392  -3.6782   3.5278   6.7198   6.7870   7.1018
     7.4269   8.5789   9.3307   9.4436  10.0287  10.6676

          k = 0.3750 0.3750 0.3750 (  1082 PWs)   bands (ev):

   -44.7578 -21.4221 -21.4218 -21.4083  -5.3974  -5.2493  -5.1757  -3.9447
    -3.9432  -3.6620  -3.5886  -3.5772   4.0631   5.8658   5.9218   6.6415
     6.9405   6.9742   8.0409  10.5699  10.6290  10.6988

          k = 0.3750-0.1250 0.1250 (  1095 PWs)   bands (ev):

   -44.7603 -21.4279 -21.3687 -21.3557  -5.9986  -5.2362  -5.1898  -4.0607
    -3.9938  -3.9797  -3.8816  -3.7746   3.8692   6.7452   7.2725   7.7888
     8.3767   8.6725   9.3217   9.8642  10.0493  10.8271

          k = 0.3750-0.3750 0.1250 (  1093 PWs)   bands (ev):

   -44.7591 -21.4250 -21.4241 -21.3538  -5.7369  -5.1361  -5.0825  -4.0322
    -3.9770  -3.9036  -3.8158  -3.7021   3.4547   6.7193   6.7630   7.1307
     7.4381   8.6338   9.3951   9.4361  10.0292  10.6110

     highest occupied level (ev):    10.8271

!    total energy              =    -333.18239234 Ry
     estimated scf accuracy    <          4.3E-09 Ry

     The total energy is the sum of the following terms:
     one-electron contribution =     -77.83243497 Ry
     hartree contribution      =      66.78113137 Ry
     xc contribution           =     -49.64361416 Ry
     ewald contribution        =    -272.48747458 Ry

     convergence has been achieved in  10 iterations

     Forces acting on atoms (cartesian axes, Ry/au):

     atom    1 type  2   force =     0.00000000    0.00000000    0.01242761
     atom    2 type  3   force =     0.00000000    0.00000000   -0.02012099
     atom    3 type  1   force =     0.00000000    0.00000000    0.00719471
     atom    4 type  1   force =     0.00000000    0.00000000    0.00719471
     atom    5 type  1   force =     0.00000000    0.00000000   -0.00669603
     The non-local contrib.  to forces
     atom    1 type  2   force =     0.00000000    0.00000000   -0.13065046
     atom    2 type  3   force =     0.00000000    0.00000000    0.01265703
     atom    3 type  1   force =     0.00000000    0.00000000    0.12931055
     atom    4 type  1   force =     0.00000000    0.00000000    0.12931055
     atom    5 type  1   force =     0.00000000    0.00000000   -0.06672654
     The ionic contribution  to forces
     atom    1 type  2   force =     0.00000000    0.00000000    2.89770152
[...]
     estimated scf accuracy    <       0.00000249 Ry

     iteration #  2     ecut=    30.00 Ry     beta= 0.70
     Davidson diagonalization with overlap
     ethr =  5.65E-09,  avg # of iterations =  3.8

     total cpu time spent up to now is       64.0 secs

     total energy              =    -333.18526942 Ry
     estimated scf accuracy    <       0.00000073 Ry

     iteration #  3     ecut=    30.00 Ry     beta= 0.70
     Davidson diagonalization with overlap
     ethr =  1.66E-09,  avg # of iterations =  4.7

     total cpu time spent up to now is       64.4 secs

     total energy              =    -333.18526960 Ry
     estimated scf accuracy    <       0.00000039 Ry

     iteration #  4     ecut=    30.00 Ry     beta= 0.70
     Davidson diagonalization with overlap
     ethr =  8.90E-10,  avg # of iterations =  4.0

     total cpu time spent up to now is       64.7 secs

     total energy              =    -333.18526967 Ry
     estimated scf accuracy    <       0.00000001 Ry

     iteration #  5     ecut=    30.00 Ry     beta= 0.70
     Davidson diagonalization with overlap
     ethr =  3.35E-11,  avg # of iterations =  5.7

     total cpu time spent up to now is       65.0 secs

     total energy              =    -333.18526968 Ry
     estimated scf accuracy    <       0.00000002 Ry

     iteration #  6     ecut=    30.00 Ry     beta= 0.70
     Davidson diagonalization with overlap
     ethr =  3.35E-11,  avg # of iterations =  3.3

     total cpu time spent up to now is       65.3 secs

     total energy              =    -333.18526968 Ry
     estimated scf accuracy    <          2.9E-09 Ry

     iteration #  7     ecut=    30.00 Ry     beta= 0.70
     Davidson diagonalization with overlap
     ethr =  6.53E-12,  avg # of iterations =  4.8

     total cpu time spent up to now is       65.7 secs

     total energy              =    -333.18526968 Ry
     estimated scf accuracy    <          1.3E-09 Ry

     iteration #  8     ecut=    30.00 Ry     beta= 0.70
     Davidson diagonalization with overlap
     ethr =  3.01E-12,  avg # of iterations =  1.2

     total cpu time spent up to now is       65.9 secs

     End of self-consistent calculation

          k = 0.1250 0.1250 0.1250 (  1096 PWs)   bands (ev):

   -44.7433 -21.3802 -21.3543 -21.3536  -6.5426  -5.5424  -5.3001  -3.9133
    -3.9099  -3.8759  -3.7511  -3.6033   4.6337   7.0896   7.2204   8.0273
     8.9619   8.9647   9.5495   9.6567   9.8152  10.1980

          k = 0.1250 0.1250 0.3750 (  1095 PWs)   bands (ev):

   -44.7420 -21.4366 -21.3521 -21.3512  -6.2049  -5.4582  -5.0784  -3.9488
    -3.8926  -3.8745  -3.7126  -3.6877   3.9485   6.7936   7.0333   7.5855
     8.4625   8.5694   9.2225   9.7369   9.8633  10.8906

          k = 0.1250 0.3750 0.3750 (  1093 PWs)   bands (ev):

   -44.7408 -21.4333 -21.4070 -21.3497  -5.9664  -5.3259  -4.9962  -3.9330
    -3.8843  -3.8291  -3.7094  -3.5117   3.5903   6.4817   6.8300   7.0356
     7.3490   8.5145   9.2111   9.3606  10.1469  10.5795

          k = 0.3750 0.3750 0.3750 (  1082 PWs)   bands (ev):

   -44.7395 -21.4305 -21.4044 -21.4043  -5.5574  -5.4245  -5.1609  -3.8434
    -3.8382  -3.5966  -3.4706  -3.4300   3.9181   5.8069   5.9145   6.5201
     7.0211   7.0458   8.3150  10.4022  10.5257  10.6133

          k = 0.3750-0.1250 0.1250 (  1095 PWs)   bands (ev):

   -44.7420 -21.4105 -21.3776 -21.3517  -6.1196  -5.4116  -5.2683  -3.9601
    -3.8996  -3.8716  -3.7195  -3.6140   3.8762   6.6857   7.2052   7.7294
     8.2551   8.6906   9.2180   9.7340   9.8522  10.8916

          k = 0.3750-0.3750 0.1250 (  1093 PWs)   bands (ev):

   -44.7408 -21.4078 -21.4067 -21.3754  -5.7716  -5.3151  -5.3138  -3.9287
    -3.8605  -3.7367  -3.6160  -3.6047   3.3353   6.6268   6.7318   7.1283
     7.5036   8.6657   9.3820   9.3970  10.1226  10.4437

     highest occupied level (ev):    10.8916

!    total energy              =    -333.18526968 Ry
     estimated scf accuracy    <          7.6E-10 Ry

     The total energy is the sum of the following terms:
     one-electron contribution =     -79.73871215 Ry
     hartree contribution      =      67.74393158 Ry
     xc contribution           =     -49.68811419 Ry
     ewald contribution        =    -271.50237492 Ry

     convergence has been achieved in   8 iterations

     Forces acting on atoms (cartesian axes, Ry/au):

     atom    1 type  2   force =     0.00000000    0.00000000    0.01250048
     atom    2 type  3   force =     0.00000000    0.00000000   -0.01296919
     atom    3 type  1   force =     0.00000000    0.00000000   -0.00039044
     atom    4 type  1   force =     0.00000000    0.00000000   -0.00039044
     atom    5 type  1   force =     0.00000000    0.00000000    0.00124958
     The non-local contrib.  to forces
     atom    1 type  2   force =     0.00000000    0.00000000   -0.26006946
     atom    2 type  3   force =     0.00000000    0.00000000   -0.00421579
     atom    3 type  1   force =     0.00000000    0.00000000    0.10660313
     atom    4 type  1   force =     0.00000000    0.00000000    0.10660313
     atom    5 type  1   force =     0.00000000    0.00000000    0.19855454
     The ionic contribution  to forces
     atom    1 type  2   force =     0.00000000    0.00000000    4.89352593
     atom    2 type  3   force =     0.00000000    0.00000000   -0.83385820
     atom    3 type  1   force =     0.00000000    0.00000000   -1.23145257
     atom    4 type  1   force =     0.00000000    0.00000000   -1.23145257
     atom    5 type  1   force =    -0.00000000   -0.00000000   -1.59676259
     The local contribution  to forces
     atom    1 type  2   force =     0.00000000    0.00000000   -4.62094908
     atom    2 type  3   force =    -0.00000000   -0.00000000    0.82511034
     atom    3 type  1   force =     0.00000000   -0.00000000    1.12446210
     atom    4 type  1   force =    -0.00000000    0.00000000    1.12446210
     atom    5 type  1   force =    -0.00000000   -0.00000000    1.39947619
     The core correction contribution to forces
     atom    1 type  2   force =     0.00000000    0.00000000    0.00000000
     atom    2 type  3   force =     0.00000000    0.00000000    0.00000000
     atom    3 type  1   force =     0.00000000    0.00000000    0.00000000
     atom    4 type  1   force =     0.00000000    0.00000000    0.00000000
     atom    5 type  1   force =     0.00000000    0.00000000    0.00000000
     The Hubbard contrib.    to forces
     atom    1 type  2   force =     0.00000000    0.00000000    0.00000000
     atom    2 type  3   force =     0.00000000    0.00000000    0.00000000
     atom    3 type  1   force =     0.00000000    0.00000000    0.00000000
     atom    4 type  1   force =     0.00000000    0.00000000    0.00000000
     atom    5 type  1   force =     0.00000000    0.00000000    0.00000000
     The SCF correction term to forces
     atom    1 type  2   force =     0.00000000    0.00000000    0.00000000
     atom    2 type  3   force =    -0.00000000    0.00000000    0.00000000
     atom    3 type  1   force =     0.00000000   -0.00000000    0.00000510
     atom    4 type  1   force =    -0.00000000   -0.00000000    0.00000510
     atom    5 type  1   force =     0.00000000    0.00000000   -0.00001036

     Total force =     0.001366     Total SCF correction =     0.000013


     Computing stress (Cartesian axis) and pressure

          total   stress  (Ry/bohr**3)                   (kbar)     P=        6.51
  -0.00001269   0.00000000   0.00000000           -1.87        0.00        0.00
   0.00000000  -0.00001269   0.00000000            0.00       -1.87        0.00
   0.00000000   0.00000000   0.00015818            0.00        0.00       23.27

     Energy error            =      4.6E-06 Ry
     Gradient error          =      1.2E-03 Ry/Bohr

     number of scf cycles    =  15
     number of bfgs steps    =  14

     energy             old  =    -333.1852650854 Ry
     energy             new  =    -333.1852696782 Ry

     CASE: energy            _new < energy            _old

     new trust radius        =       0.0022880766 bohr
     new conv_thr            =       0.0000000010 Ry


ATOMIC_POSITIONS (angstrom)
Pb            0.0000000000        0.0000000000        0.0000000000    0   0   0
Ti            1.9400000000        1.9400000000        2.1237900000    0   0   0
O             0.0000000000        1.9400000000        2.2971800453
O             1.9400000000        0.0000000000        2.2971800453
O             1.9400000000        1.9400000000        0.3088855196



     Writing config-only to output data dir /home/gridsan/epan1/labutil/lab3_samples/problem2/Lab3/PbTiO3_a_3.88_ecut_30_nk_4_displ_0.04736842105263156/pwscf.save/
     NEW-OLD atomic charge density approx. for the potential

     total cpu time spent up to now is       67.1 secs

     Self-consistent Calculation

     iteration #  1     ecut=    30.00 Ry     beta= 0.70
     Davidson diagonalization with overlap
     ethr =  1.00E-06,  avg # of iterations =  2.0

     Threshold (ethr) on eigenvalues was too large:
     Diagonalizing with lowered threshold

     Davidson diagonalization with overlap
     ethr =  2.02E-09,  avg # of iterations =  5.8

     total cpu time spent up to now is       67.7 secs

     total energy              =    -333.18527092 Ry
     estimated scf accuracy    <       0.00000194 Ry

     iteration #  2     ecut=    30.00 Ry     beta= 0.70
     Davidson diagonalization with overlap
     ethr =  4.41E-09,  avg # of iterations =  5.0

     total cpu time spent up to now is       68.0 secs

     total energy              =    -333.18527110 Ry
     estimated scf accuracy    <       0.00000178 Ry

     iteration #  3     ecut=    30.00 Ry     beta= 0.70
     Davidson diagonalization with overlap
     ethr =  4.05E-09,  avg # of iterations =  4.7

     total cpu time spent up to now is       68.4 secs

     total energy              =    -333.18527152 Ry
     estimated scf accuracy    <       0.00000038 Ry

     iteration #  4     ecut=    30.00 Ry     beta= 0.70
     Davidson diagonalization with overlap
     ethr =  8.61E-10,  avg # of iterations =  3.7

     total cpu time spent up to now is       68.7 secs

     total energy              =    -333.18527158 Ry
     estimated scf accuracy    <       0.00000002 Ry

     iteration #  5     ecut=    30.00 Ry     beta= 0.70
     Davidson diagonalization with overlap
     ethr =  3.87E-11,  avg # of iterations =  5.3

     total cpu time spent up to now is       69.0 secs

     total energy              =    -333.18527159 Ry
     estimated scf accuracy    <       0.00000002 Ry

     iteration #  6     ecut=    30.00 Ry     beta= 0.70
     Davidson diagonalization with overlap
     ethr =  3.87E-11,  avg # of iterations =  2.3

     total cpu time spent up to now is       69.3 secs

     total energy              =    -333.18527159 Ry
     estimated scf accuracy    <       0.00000001 Ry

     iteration #  7     ecut=    30.00 Ry     beta= 0.70
     Davidson diagonalization with overlap
     ethr =  2.33E-11,  avg # of iterations =  4.3

     total cpu time spent up to now is       69.6 secs

     End of self-consistent calculation

          k = 0.1250 0.1250 0.1250 (  1096 PWs)   bands (ev):

   -44.7410 -21.3793 -21.3520 -21.3514  -6.5414  -5.5413  -5.3008  -3.9143
    -3.9108  -3.8771  -3.7522  -3.6048   4.6330   7.0914   7.2206   8.0291
     8.9604   8.9648   9.5476   9.6572   9.8156  10.1964

          k = 0.1250 0.1250 0.3750 (  1095 PWs)   bands (ev):

   -44.7397 -21.4357 -21.3498 -21.3490  -6.2033  -5.4568  -5.0794  -3.9498
    -3.8936  -3.8757  -3.7138  -3.6893   3.9470   6.7940   7.0354   7.5876
     8.4604   8.5690   9.2214   9.7375   9.8644  10.8899

          k = 0.1250 0.3750 0.3750 (  1093 PWs)   bands (ev):

   -44.7385 -21.4323 -21.4048 -21.3475  -5.9651  -5.3243  -4.9970  -3.9340
    -3.8854  -3.8303  -3.7107  -3.5129   3.5896   6.4816   6.8300   7.0362
     7.3499   8.5150   9.2118   9.3588  10.1454  10.5792

          k = 0.3750 0.3750 0.3750 (  1082 PWs)   bands (ev):

   -44.7372 -21.4296 -21.4021 -21.4020  -5.5560  -5.4231  -5.1615  -3.8445
    -3.8392  -3.5980  -3.4718  -3.4311   3.9188   5.8066   5.9140   6.5212
     7.0207   7.0449   8.3130  10.4035  10.5247  10.6126

          k = 0.3750-0.1250 0.1250 (  1095 PWs)   bands (ev):

   -44.7397 -21.4083 -21.3766 -21.3494  -6.1185  -5.4102  -5.2687  -3.9611
    -3.9005  -3.8728  -3.7206  -3.6154   3.8762   6.6861   7.2051   7.7306
     8.2552   8.6900   9.2161   9.7343   9.8518  10.8907

          k = 0.3750-0.3750 0.1250 (  1093 PWs)   bands (ev):

   -44.7385 -21.4055 -21.4045 -21.3744  -5.7714  -5.3134  -5.3130  -3.9297
    -3.8617  -3.7380  -3.6175  -3.6061   3.3360   6.6275   6.7326   7.1273
     7.5022   8.6651   9.3808   9.3958  10.1215  10.4449

     highest occupied level (ev):    10.8907

!    total energy              =    -333.18527159 Ry
     estimated scf accuracy    <          3.8E-10 Ry

     The total energy is the sum of the following terms:
     one-electron contribution =     -79.73792178 Ry
     hartree contribution      =      67.74392636 Ry
     xc contribution           =     -49.68845033 Ry
     ewald contribution        =    -271.50282584 Ry

     convergence has been achieved in   7 iterations

     Forces acting on atoms (cartesian axes, Ry/au):

     atom    1 type  2   force =     0.00000000    0.00000000    0.01246035
     atom    2 type  3   force =     0.00000000    0.00000000   -0.01266120
     atom    3 type  1   force =     0.00000000    0.00000000    0.00000531
     atom    4 type  1   force =     0.00000000    0.00000000    0.00000531
     atom    5 type  1   force =     0.00000000    0.00000000    0.00019023
     The non-local contrib.  to forces
     atom    1 type  2   force =     0.00000000    0.00000000   -0.25954236
     atom    2 type  3   force =     0.00000000    0.00000000   -0.00428033
     atom    3 type  1   force =     0.00000000    0.00000000    0.10797542
     atom    4 type  1   force =     0.00000000    0.00000000    0.10797542
     atom    5 type  1   force =     0.00000000    0.00000000    0.19924233
     The ionic contribution  to forces
     atom    1 type  2   force =     0.00000000    0.00000000    4.87887384
     atom    2 type  3   force =     0.00000000    0.00000000   -0.79189892
     atom    3 type  1   force =     0.00000000   -0.00000000   -1.22616913
     atom    4 type  1   force =    -0.00000000    0.00000000   -1.22616913
     atom    5 type  1   force =    -0.00000000   -0.00000000   -1.63463666
     The local contribution  to forces
     atom    1 type  2   force =     0.00000000    0.00000000   -4.60685735
     atom    2 type  3   force =    -0.00000000   -0.00000000    0.78351795
     atom    3 type  1   force =     0.00000000   -0.00000000    1.11820189
     atom    4 type  1   force =    -0.00000000    0.00000000    1.11820189
     atom    5 type  1   force =    -0.00000000   -0.00000000    1.43559204
     The core correction contribution to forces
     atom    1 type  2   force =     0.00000000    0.00000000    0.00000000
     atom    2 type  3   force =     0.00000000    0.00000000    0.00000000
     atom    3 type  1   force =     0.00000000    0.00000000    0.00000000
     atom    4 type  1   force =     0.00000000    0.00000000    0.00000000
     atom    5 type  1   force =     0.00000000    0.00000000    0.00000000
     The Hubbard contrib.    to forces
     atom    1 type  2   force =     0.00000000    0.00000000    0.00000000
     atom    2 type  3   force =     0.00000000    0.00000000    0.00000000
     atom    3 type  1   force =     0.00000000    0.00000000    0.00000000
     atom    4 type  1   force =     0.00000000    0.00000000    0.00000000
     atom    5 type  1   force =     0.00000000    0.00000000    0.00000000
     The SCF correction term to forces
     atom    1 type  2   force =    -0.00000000    0.00000000   -0.00000000
     atom    2 type  3   force =    -0.00000000    0.00000000    0.00000000
     atom    3 type  1   force =     0.00000000    0.00000000    0.00000183
     atom    4 type  1   force =    -0.00000000   -0.00000000    0.00000183
     atom    5 type  1   force =     0.00000000   -0.00000000   -0.00000278

     Total force =     0.000190     Total SCF correction =     0.000004


     Computing stress (Cartesian axis) and pressure

          total   stress  (Ry/bohr**3)                   (kbar)     P=        6.74
  -0.00001225   0.00000000   0.00000000           -1.80        0.00        0.00
   0.00000000  -0.00001225   0.00000000            0.00       -1.80        0.00
   0.00000000   0.00000000   0.00016187            0.00        0.00       23.81

     Energy error            =      1.9E-06 Ry
     Gradient error          =      1.9E-04 Ry/Bohr

     bfgs converged in  16 scf cycles and  15 bfgs steps
     (criteria: energy <  1.0E-04 Ry, force <  1.0E-03 Ry/Bohr)

     End of BFGS Geometry Optimization

     Final energy             =    -333.1852715940 Ry

     File /home/gridsan/epan1/labutil/lab3_samples/problem2/Lab3/PbTiO3_a_3.88_ecut_30_nk_4_displ_0.04736842105263156/pwscf.bfgs deleted, as requested
Begin final coordinates

ATOMIC_POSITIONS (angstrom)
Pb            0.0000000000        0.0000000000        0.0000000000    0   0   0
Ti            1.9400000000        1.9400000000        2.1237900000    0   0   0
O             0.0000000000        1.9400000000        2.2971800453
O             1.9400000000        0.0000000000        2.2971800453
O             1.9400000000        1.9400000000        0.3088855196
End final coordinates



     init_run     :      0.73s CPU      0.70s WALL (       1 calls)
     electrons    :     61.45s CPU     50.28s WALL (      16 calls)
     update_pot   :      0.53s CPU      0.49s WALL (      15 calls)
     forces       :      2.68s CPU      2.01s WALL (      16 calls)
     stress       :     16.96s CPU     14.39s WALL (      16 calls)

     Called by init_run:
     wfcinit      :      0.08s CPU      0.08s WALL (       1 calls)
     potinit      :      0.04s CPU      0.04s WALL (       1 calls)
     hinit0       :      0.46s CPU      0.47s WALL (       1 calls)

     Called by electrons:
     c_bands      :     35.40s CPU     27.76s WALL (     149 calls)
     sum_band     :     15.85s CPU     13.66s WALL (     149 calls)
     v_of_rho     :      0.53s CPU      0.50s WALL (     162 calls)
     newd         :     10.04s CPU      8.52s WALL (     162 calls)
     mix_rho      :      0.34s CPU      0.30s WALL (     149 calls)

     Called by c_bands:
     init_us_2    :      1.04s CPU      0.83s WALL (    1986 calls)
     init_us_2:cp :      1.04s CPU      0.83s WALL (    1986 calls)
     cegterg      :     32.73s CPU     25.32s WALL (     894 calls)

     Called by *egterg:
     cdiaghg      :      5.69s CPU      4.33s WALL (    4757 calls)
     h_psi        :     21.77s CPU     17.12s WALL (    4871 calls)
     s_psi        :      0.96s CPU      0.72s WALL (    4871 calls)
     g_psi        :      0.23s CPU      0.17s WALL (    3971 calls)

     Called by h_psi:
     h_psi:calbec :      1.32s CPU      1.03s WALL (    4871 calls)
     vloc_psi     :     19.28s CPU     15.12s WALL (    4871 calls)
     add_vuspsi   :      1.02s CPU      0.84s WALL (    4871 calls)

     General routines
     calbec       :      1.84s CPU      1.44s WALL (    6245 calls)
     fft          :      0.99s CPU      0.84s WALL (    1038 calls)
     ffts         :      0.09s CPU      0.08s WALL (     311 calls)
     fftw         :     18.23s CPU     14.34s WALL (  143442 calls)
     interpolate  :      0.20s CPU      0.17s WALL (     162 calls)

     Parallel routines

     PWSCF        :   1m24.03s CPU   1m10.66s WALL


   This run was terminated on:  18:10:16   2Nov2023            

=------------------------------------------------------------------------------=
   JOB DONE.
=------------------------------------------------------------------------------=
