
     Program PWSCF v.7.2 starts on 16Oct2023 at 10:30:55 

     This program is part of the open-source Quantum ESPRESSO suite
     for quantum simulation of materials; please cite
         "P. Giannozzi et al., J. Phys.:Condens. Matter 21 395502 (2009);
         "P. Giannozzi et al., J. Phys.:Condens. Matter 29 465901 (2017);
         "P. Giannozzi et al., J. Chem. Phys. 152 154105 (2020);
          URL http://www.quantum-espresso.org", 
     in publications or presentations arising from this work. More details at
     http://www.quantum-espresso.org/quote

     Parallel version (MPI), running on     1 processors

     MPI processes distributed on     1 nodes
     33661 MiB available memory on the printing compute node when the environment starts

     Waiting for input...
     Reading input from standard input
Warning: card &CELL ignored
Warning: card / ignored

     Current dimensions of program PWSCF are:
     Max number of different atomic species (ntypx) = 10
     Max number of k-points (npk) =  40000
     Max angular momentum in pseudopotentials (lmaxx) =  4
     file Ge.pz-dn-rrkjus_psl.0.2.2.UPF: wavefunction(s)  3D renormalized
     Message from routine setup:
     using ibrav=0 with symmetry is DISCOURAGED, use correct ibrav instead

     Subspace diagonalization in iterative solution of the eigenvalue problem:
     a serial algorithm will be used


     G-vector sticks info
     --------------------
     sticks:   dense  smooth     PW     G-vecs:    dense   smooth      PW
     Sum         517     517    163                 7943     7943    1411

     Using Slab Decomposition



     bravais-lattice index     =            0
     lattice parameter (alat)  =       7.3893  a.u.
     unit-cell volume          =     285.2912 (a.u.)^3
     number of atoms/cell      =            2
     number of atomic types    =            1
     number of electrons       =        28.00
     number of Kohn-Sham states=           14
     kinetic-energy cutoff     =      35.0000  Ry
     charge density cutoff     =     140.0000  Ry
     scf convergence threshold =      1.0E-07
     mixing beta               =       0.5000
     number of iterations used =            8  plain     mixing
     Exchange-correlation= LDA
                           (   1   1   0   0   0   0   0)

     celldm(1)=   7.389263  celldm(2)=   0.000000  celldm(3)=   0.000000
     celldm(4)=   0.000000  celldm(5)=   0.000000  celldm(6)=   0.000000

     crystal axes: (cart. coord. in units of alat)
               a(1) = (   0.000000   0.707107   0.707107 )  
               a(2) = (   0.707107   0.000000   0.707107 )  
               a(3) = (   0.707107   0.707107   0.000000 )  

     reciprocal axes: (cart. coord. in units 2 pi/alat)
               b(1) = ( -0.707107  0.707107  0.707107 )  
               b(2) = (  0.707107 -0.707107  0.707107 )  
               b(3) = (  0.707107  0.707107 -0.707107 )  


     PseudoPot. # 1 for Ge read from file:
     ../Ge.pz-dn-rrkjus_psl.0.2.2.UPF
     MD5 check sum: 9948ad5293734715c8cf6021b6c26e6d
     Pseudo is Ultrasoft + core correction, Zval = 14.0
     Generated using "atomic" code by A. Dal Corso  v.5.0.2 svn rev. 9415
     Using radial grid of 1207 points,  6 beta functions with: 
                l(1) =   0
                l(2) =   0
                l(3) =   1
                l(4) =   1
                l(5) =   2
                l(6) =   2
     Q(r) pseudized with 0 coefficients 


     atomic species   valence    mass     pseudopotential
        Ge            14.00    72.63000     Ge( 1.00)

     24 Sym. Ops. (no inversion) found



   Cartesian axes

     site n.     atom                  positions (alat units)
         1           Ge  tau(   1) = (   0.0000000   0.0000000   0.0000000  )
         2           Ge  tau(   2) = (   0.3535521   0.3535521   0.3535521  )

     number of k points=    10
                       cart. coord. in units 2pi/alat
        k(    1) = (   0.0000000   0.0000000   0.0000000), wk =   0.0160000
        k(    2) = (   0.1414214   0.1414214  -0.1414214), wk =   0.1280000
        k(    3) = (   0.2828427   0.2828427  -0.2828427), wk =   0.1280000
        k(    4) = (   0.2828427   0.0000000   0.0000000), wk =   0.0960000
        k(    5) = (   0.4242641   0.1414214  -0.1414214), wk =   0.3840000
        k(    6) = (  -0.1414214  -0.4242641   0.4242641), wk =   0.3840000
        k(    7) = (   0.0000000  -0.2828427   0.2828427), wk =   0.1920000
        k(    8) = (   0.5656854   0.0000000   0.0000000), wk =   0.0960000
        k(    9) = (   0.0000000  -0.5656854   0.5656854), wk =   0.1920000
        k(   10) = (  -0.1414214  -0.4242641   0.7071068), wk =   0.3840000

     Dense  grid:     7943 G-vectors     FFT dimensions: (  27,  27,  27)

     Estimated max dynamical RAM per process >      32.86 MB

     Check: negative core charge=   -0.000148

     Initial potential from superposition of free atoms

     starting charge      27.9988, renormalised to      28.0000
     Starting wfcs are   18 randomized atomic wfcs

     total cpu time spent up to now is        0.8 secs

     Self-consistent Calculation

     iteration #  1     ecut=    35.00 Ry     beta= 0.50
     Davidson diagonalization with overlap
     ethr =  1.00E-02,  avg # of iterations =  2.0

     Threshold (ethr) on eigenvalues was too large:
     Diagonalizing with lowered threshold

     Davidson diagonalization with overlap
     ethr =  1.35E-04,  avg # of iterations =  2.0

     total cpu time spent up to now is        2.2 secs

     total energy              =    -421.78342463 Ry
     estimated scf accuracy    <       0.04055515 Ry

     iteration #  2     ecut=    35.00 Ry     beta= 0.50
     Davidson diagonalization with overlap
     ethr =  1.45E-04,  avg # of iterations =  1.0

     total cpu time spent up to now is        2.8 secs

     total energy              =    -421.78179818 Ry
     estimated scf accuracy    <       0.00728911 Ry

     iteration #  3     ecut=    35.00 Ry     beta= 0.50
     Davidson diagonalization with overlap
     ethr =  2.60E-05,  avg # of iterations =  2.0

     total cpu time spent up to now is        3.5 secs

     total energy              =    -421.78241634 Ry
     estimated scf accuracy    <       0.00009015 Ry

     iteration #  4     ecut=    35.00 Ry     beta= 0.50
     Davidson diagonalization with overlap
     ethr =  3.22E-07,  avg # of iterations =  4.2

     total cpu time spent up to now is        4.4 secs

     total energy              =    -421.78244434 Ry
     estimated scf accuracy    <       0.00001050 Ry

     iteration #  5     ecut=    35.00 Ry     beta= 0.50
     Davidson diagonalization with overlap
     ethr =  3.75E-08,  avg # of iterations =  3.2

     total cpu time spent up to now is        5.2 secs

     total energy              =    -421.78244583 Ry
     estimated scf accuracy    <       0.00000039 Ry

     iteration #  6     ecut=    35.00 Ry     beta= 0.50
     Davidson diagonalization with overlap
     ethr =  1.38E-09,  avg # of iterations =  4.1

     total cpu time spent up to now is        6.1 secs

     total energy              =    -421.78244601 Ry
     estimated scf accuracy    <       0.00000012 Ry

     iteration #  7     ecut=    35.00 Ry     beta= 0.50
     Davidson diagonalization with overlap
     ethr =  4.11E-10,  avg # of iterations =  2.5

     total cpu time spent up to now is        6.9 secs

     End of self-consistent calculation

          k = 0.0000 0.0000 0.0000 (   965 PWs)   bands (ev):

   -15.8828 -15.8828 -15.8828 -15.8402 -15.8402 -15.5891 -15.5891 -15.5891
   -15.5690 -15.5690  -4.2320   9.1318   9.1323   9.1323

          k = 0.1414 0.1414-0.1414 (   989 PWs)   bands (ev):

   -15.9004 -15.9004 -15.8758 -15.8136 -15.8136 -15.6121 -15.6121 -15.5977
   -15.5507 -15.5507  -3.7185   5.2286   8.3995   8.3998

          k = 0.2828 0.2828-0.2828 (   996 PWs)   bands (ev):

   -15.9108 -15.9108 -15.8642 -15.7919 -15.7919 -15.6259 -15.6259 -15.6115
   -15.5399 -15.5399  -2.3882   1.8244   7.7102   7.7105

          k = 0.2828 0.0000 0.0000 (   990 PWs)   bands (ev):

   -15.8978 -15.8978 -15.8946 -15.8134 -15.7802 -15.6665 -15.5936 -15.5650
   -15.5650 -15.5505  -3.5404   5.3313   7.3795   7.3796

          k = 0.4243 0.1414-0.1414 (  1005 PWs)   bands (ev):

   -15.9264 -15.9115 -15.8598 -15.7818 -15.7482 -15.6973 -15.6266 -15.5961
   -15.5411 -15.5241  -2.4116   2.6244   6.0017   6.7744

          k =-0.1414-0.4243 0.4243 (   998 PWs)   bands (ev):

   -15.9356 -15.9205 -15.8298 -15.7677 -15.7570 -15.6685 -15.6586 -15.6289
   -15.5268 -15.5140  -1.5733   1.2714   5.1391   7.0677

          k = 0.0000-0.2828 0.2828 (   999 PWs)   bands (ev):

   -15.9181 -15.9173 -15.8507 -15.8014 -15.7726 -15.6523 -15.6315 -15.6042
   -15.5396 -15.5294  -2.8953   3.4841   5.7118   8.0536

          k = 0.5657 0.0000 0.0000 (  1006 PWs)   bands (ev):

   -15.9189 -15.9189 -15.8610 -15.7750 -15.7435 -15.6811 -15.6596 -15.5923
   -15.5283 -15.5283  -1.5256   1.5808   5.9884   5.9885

          k = 0.0000-0.5657 0.5657 (   995 PWs)   bands (ev):

   -15.9394 -15.9229 -15.8207 -15.7706 -15.7102 -15.6958 -15.6803 -15.6339
   -15.5215 -15.5070  -0.3663   0.3129   4.6369   6.1137

          k =-0.1414-0.4243 0.7071 (  1003 PWs)   bands (ev):

   -15.9377 -15.9319 -15.8111 -15.7476 -15.7355 -15.7061 -15.6694 -15.6399
   -15.5154 -15.5100  -1.1174   1.1841   4.7036   5.7527

     highest occupied level (ev):     9.1323

!    total energy              =    -421.78244601 Ry
     estimated scf accuracy    <       0.00000003 Ry

     The total energy is the sum of the following terms:
     one-electron contribution =    -267.70569119 Ry
     hartree contribution      =     159.77961817 Ry
     xc contribution           =    -111.78693040 Ry
     ewald contribution        =    -202.06944259 Ry

     convergence has been achieved in   7 iterations

     Forces acting on atoms (cartesian axes, Ry/au):

     atom    1 type  1   force =     0.00000000    0.00000000    0.00000000
     atom    2 type  1   force =     0.00000000   -0.00000000    0.00000000
     The non-local contrib.  to forces
     atom    1 type  1   force =     0.00000000    0.00000000    0.00000000
     atom    2 type  1   force =     0.00000000   -0.00000000    0.00000000
     The ionic contribution  to forces
     atom    1 type  1   force =    -0.00005343   -0.00005343   -0.00005343
     atom    2 type  1   force =     0.00005343    0.00005343    0.00005343
     The local contribution  to forces
     atom    1 type  1   force =     0.00000000    0.00000000    0.00000000
     atom    2 type  1   force =     0.00182781    0.00182781    0.00182781
     The core correction contribution to forces
     atom    1 type  1   force =     0.00000002    0.00000002    0.00000002
     atom    2 type  1   force =     0.00023406    0.00023406    0.00023406
     The Hubbard contrib.    to forces
     atom    1 type  1   force =     0.00000000    0.00000000    0.00000000
     atom    2 type  1   force =     0.00000000    0.00000000    0.00000000
     The SCF correction term to forces
     atom    1 type  1   force =     0.00000000    0.00000000    0.00000000
     atom    2 type  1   force =     0.00000001    0.00000001    0.00000001

     Total force =     0.000000     Total SCF correction =     0.000000


     Computing stress (Cartesian axis) and pressure

          total   stress  (Ry/bohr**3)                   (kbar)     P=       28.12
   0.00019115  -0.00000000   0.00000000           28.12       -0.00        0.00
  -0.00000000   0.00019115   0.00000000           -0.00       28.12        0.00
   0.00000000   0.00000000   0.00019115            0.00        0.00       28.12


     init_run     :      0.91s CPU      0.71s WALL (       1 calls)
     electrons    :      8.53s CPU      6.06s WALL (       1 calls)
     forces       :      0.16s CPU      0.11s WALL (       1 calls)
     stress       :      1.38s CPU      0.93s WALL (       1 calls)

     Called by init_run:
     wfcinit      :      0.55s CPU      0.36s WALL (       1 calls)
     potinit      :      0.00s CPU      0.00s WALL (       1 calls)
     hinit0       :      0.32s CPU      0.32s WALL (       1 calls)

     Called by electrons:
     c_bands      :      6.56s CPU      4.65s WALL (       8 calls)
     sum_band     :      1.60s CPU      1.11s WALL (       8 calls)
     v_of_rho     :      0.04s CPU      0.04s WALL (       8 calls)
     newd         :      0.30s CPU      0.21s WALL (       8 calls)
     mix_rho      :      0.03s CPU      0.03s WALL (       8 calls)

     Called by c_bands:
     init_us_2    :      0.23s CPU      0.16s WALL (     190 calls)
     init_us_2:cp :      0.22s CPU      0.16s WALL (     190 calls)
     cegterg      :      6.00s CPU      4.19s WALL (      80 calls)

     Called by *egterg:
     cdiaghg      :      0.27s CPU      0.18s WALL (     280 calls)
     h_psi        :      5.65s CPU      3.97s WALL (     300 calls)
     s_psi        :      0.09s CPU      0.06s WALL (     300 calls)
     g_psi        :      0.04s CPU      0.03s WALL (     210 calls)

     Called by h_psi:
     h_psi:calbec :      0.11s CPU      0.08s WALL (     300 calls)
     vloc_psi     :      5.41s CPU      3.80s WALL (     300 calls)
     add_vuspsi   :      0.09s CPU      0.06s WALL (     300 calls)

     General routines
     calbec       :      0.15s CPU      0.10s WALL (     430 calls)
     fft          :      0.12s CPU      0.11s WALL (      41 calls)
     ffts         :      0.02s CPU      0.01s WALL (       8 calls)
     fftw         :      5.83s CPU      4.08s WALL (    7138 calls)

     Parallel routines

     PWSCF        :     11.10s CPU      7.95s WALL


   This run was terminated on:  10:31: 3  16Oct2023            

=------------------------------------------------------------------------------=
   JOB DONE.
=------------------------------------------------------------------------------=
