
     Program PWSCF v.7.2 starts on  2Nov2023 at 17:57:29 

     This program is part of the open-source Quantum ESPRESSO suite
     for quantum simulation of materials; please cite
         "P. Giannozzi et al., J. Phys.:Condens. Matter 21 395502 (2009);
         "P. Giannozzi et al., J. Phys.:Condens. Matter 29 465901 (2017);
         "P. Giannozzi et al., J. Chem. Phys. 152 154105 (2020);
          URL http://www.quantum-espresso.org", 
     in publications or presentations arising from this work. More details at
     http://www.quantum-espresso.org/quote

     Parallel version (MPI), running on     2 processors

     MPI processes distributed on     2 nodes
     187058 MiB available memory on the printing compute node when the environment starts

     Waiting for input...
     Reading input from standard input
Warning: card &CELL ignored
Warning: card / ignored

     Current dimensions of program PWSCF are:
     Max number of different atomic species (ntypx) = 10
     Max number of k-points (npk) =  40000
     Max angular momentum in pseudopotentials (lmaxx) =  4
     file O.pz-rrkjus.UPF: wavefunction(s)  2S renormalized
     Message from routine setup:
     using ibrav=0 with symmetry is DISCOURAGED, use correct ibrav instead

     R & G space division:  proc/nbgrp/npool/nimage =       2
     Subspace diagonalization in iterative solution of the eigenvalue problem:
     a serial algorithm will be used


     Parallelization info
     --------------------
     sticks:   dense  smooth     PW     G-vecs:    dense   smooth      PW
     Min         516     254     74                12418     4366     709
     Max         517     255     75                12419     4367     710
     Sum        1033     509    149                24837     8733    1419

     Using Slab Decomposition



     bravais-lattice index     =            0
     lattice parameter (alat)  =       7.3321  a.u.
     unit-cell volume          =     394.1775 (a.u.)^3
     number of atoms/cell      =            5
     number of atomic types    =            3
     number of electrons       =        44.00
     number of Kohn-Sham states=           22
     kinetic-energy cutoff     =      30.0000  Ry
     charge density cutoff     =     240.0000  Ry
     scf convergence threshold =      1.0E-07
     mixing beta               =       0.7000
     number of iterations used =            8  plain     mixing
     energy convergence thresh.=      1.0E-04
     force convergence thresh. =      1.0E-03
     Exchange-correlation= SLA  PZ   NOGX NOGC
                           (   1   1   0   0   0   0   0)
     nstep                     =           50


     celldm(1)=   7.332137  celldm(2)=   0.000000  celldm(3)=   0.000000
     celldm(4)=   0.000000  celldm(5)=   0.000000  celldm(6)=   0.000000

     crystal axes: (cart. coord. in units of alat)
               a(1) = (   1.000000   0.000000   0.000000 )  
               a(2) = (   0.000000   1.000000   0.000000 )  
               a(3) = (   0.000000   0.000000   1.000000 )  

     reciprocal axes: (cart. coord. in units 2 pi/alat)
               b(1) = (  1.000000  0.000000  0.000000 )  
               b(2) = (  0.000000  1.000000  0.000000 )  
               b(3) = (  0.000000  0.000000  1.000000 )  


     PseudoPot. # 1 for O  read from file:
     /home/gridsan/epan1/labutil/lab3_samples/pseudopotentials/O.pz-rrkjus.UPF
     MD5 check sum: 24fb942a68ef5d262e498166c462ef4a
     Pseudo is Ultrasoft, Zval =  6.0
     Generated by new atomic code, or converted to UPF format
     Using radial grid of 1269 points,  4 beta functions with: 
                l(1) =   0
                l(2) =   0
                l(3) =   1
                l(4) =   1
     Q(r) pseudized with 0 coefficients 


     PseudoPot. # 2 for Pb read from file:
     /home/gridsan/epan1/labutil/lab3_samples/pseudopotentials/Pb.pz-d-van.UPF
     MD5 check sum: 4e1e5920686a026ae26139ac417581ff
     Pseudo is Ultrasoft, Zval = 14.0
     Generated by new atomic code, or converted to UPF format
     Using radial grid of  899 points,  6 beta functions with: 
                l(1) =   0
                l(2) =   0
                l(3) =   1
                l(4) =   1
                l(5) =   2
                l(6) =   2
     Q(r) pseudized with  8 coefficients,  rinner =    1.000   1.000   1.000
                                                       1.000   1.000

     PseudoPot. # 3 for Ti read from file:
     /home/gridsan/epan1/labutil/lab3_samples/pseudopotentials/Ti.pz-sp-van_ak.UPF
     MD5 check sum: 545d0e6e05332b8871a8093f427cb0ca
     Pseudo is Ultrasoft, Zval = 12.0
     Generated by new atomic code, or converted to UPF format
     Using radial grid of  851 points,  6 beta functions with: 
                l(1) =   0
                l(2) =   0
                l(3) =   1
                l(4) =   1
                l(5) =   2
                l(6) =   2
     Q(r) pseudized with  8 coefficients,  rinner =    1.000   1.000   1.000
                                                       1.000   1.000

     atomic species   valence    mass     pseudopotential
        O              6.00    15.99900     O ( 1.00)
        Pb            14.00   207.20000     Pb( 1.00)
        Ti            12.00    47.86700     Ti( 1.00)

      8 Sym. Ops. (no inversion) found



   Cartesian axes

     site n.     atom                  positions (alat units)
         1           Pb  tau(   1) = (   0.0000000   0.0000000   0.0000000  )
         2           Ti  tau(   2) = (   0.5000000   0.5000000   0.4210515  )
         3           O   tau(   3) = (   0.0000000   0.5000000   0.5000000  )
         4           O   tau(   4) = (   0.5000000   0.0000000   0.5000000  )
         5           O   tau(   5) = (   0.5000000   0.5000000   0.0000000  )

     number of k points=     6
                       cart. coord. in units 2pi/alat
        k(    1) = (   0.1250000   0.1250000   0.1250000), wk =   0.2500000
        k(    2) = (   0.1250000   0.1250000   0.3750000), wk =   0.2500000
        k(    3) = (   0.1250000   0.3750000   0.3750000), wk =   0.5000000
        k(    4) = (   0.3750000   0.3750000   0.3750000), wk =   0.2500000
        k(    5) = (   0.3750000  -0.1250000   0.1250000), wk =   0.5000000
        k(    6) = (   0.3750000  -0.3750000   0.1250000), wk =   0.2500000

     Dense  grid:    24837 G-vectors     FFT dimensions: (  40,  40,  40)

     Smooth grid:     8733 G-vectors     FFT dimensions: (  25,  25,  25)

     Estimated max dynamical RAM per process >      51.66 MB

     Estimated total dynamical RAM >     103.32 MB

     Initial potential from superposition of free atoms

     starting charge      42.9982, renormalised to      44.0000
     Starting wfcs are   31 randomized atomic wfcs

     total cpu time spent up to now is        1.0 secs

     Self-consistent Calculation

     iteration #  1     ecut=    30.00 Ry     beta= 0.70
     Davidson diagonalization with overlap
     ethr =  1.00E-02,  avg # of iterations =  2.0

     total cpu time spent up to now is        1.3 secs

     total energy              =    -332.62186225 Ry
     estimated scf accuracy    <       1.06133220 Ry

     iteration #  2     ecut=    30.00 Ry     beta= 0.70
     Davidson diagonalization with overlap
     ethr =  2.41E-03,  avg # of iterations =  5.8

     total cpu time spent up to now is        1.7 secs

     total energy              =    -332.48388147 Ry
     estimated scf accuracy    <       3.09282974 Ry

     iteration #  3     ecut=    30.00 Ry     beta= 0.70
     Davidson diagonalization with overlap
     ethr =  2.41E-03,  avg # of iterations =  4.8

     total cpu time spent up to now is        2.0 secs

     total energy              =    -333.12223382 Ry
     estimated scf accuracy    <       0.20605814 Ry

     iteration #  4     ecut=    30.00 Ry     beta= 0.70
     Davidson diagonalization with overlap
     ethr =  4.68E-04,  avg # of iterations =  2.7

     total cpu time spent up to now is        2.3 secs

     total energy              =    -333.11963737 Ry
     estimated scf accuracy    <       0.05059284 Ry

     iteration #  5     ecut=    30.00 Ry     beta= 0.70
     Davidson diagonalization with overlap
     ethr =  1.15E-04,  avg # of iterations =  5.2

     total cpu time spent up to now is        2.6 secs

     total energy              =    -333.14502428 Ry
     estimated scf accuracy    <       0.03600957 Ry

     iteration #  6     ecut=    30.00 Ry     beta= 0.70
     Davidson diagonalization with overlap
     ethr =  8.18E-05,  avg # of iterations =  1.8

     total cpu time spent up to now is        2.9 secs

     total energy              =    -333.14278545 Ry
     estimated scf accuracy    <       0.01454875 Ry

     iteration #  7     ecut=    30.00 Ry     beta= 0.70
     Davidson diagonalization with overlap
     ethr =  3.31E-05,  avg # of iterations =  3.8

     total cpu time spent up to now is        3.2 secs

     total energy              =    -333.14638828 Ry
     estimated scf accuracy    <       0.00008043 Ry

     iteration #  8     ecut=    30.00 Ry     beta= 0.70
     Davidson diagonalization with overlap
     ethr =  1.83E-07,  avg # of iterations =  7.5

     total cpu time spent up to now is        3.6 secs

     total energy              =    -333.14663420 Ry
     estimated scf accuracy    <       0.00043036 Ry

     iteration #  9     ecut=    30.00 Ry     beta= 0.70
     Davidson diagonalization with overlap
     ethr =  1.83E-07,  avg # of iterations =  2.0

     total cpu time spent up to now is        3.9 secs

     total energy              =    -333.14651906 Ry
     estimated scf accuracy    <       0.00029797 Ry

     iteration # 10     ecut=    30.00 Ry     beta= 0.70
     Davidson diagonalization with overlap
     ethr =  1.83E-07,  avg # of iterations =  5.8

     total cpu time spent up to now is        4.3 secs

     total energy              =    -333.14658706 Ry
     estimated scf accuracy    <       0.00001967 Ry

     iteration # 11     ecut=    30.00 Ry     beta= 0.70
     Davidson diagonalization with overlap
     ethr =  4.47E-08,  avg # of iterations =  2.0

     total cpu time spent up to now is        4.6 secs

     total energy              =    -333.14658800 Ry
     estimated scf accuracy    <       0.00000369 Ry

     iteration # 12     ecut=    30.00 Ry     beta= 0.70
     Davidson diagonalization with overlap
     ethr =  8.38E-09,  avg # of iterations =  4.0

     total cpu time spent up to now is        4.9 secs

     total energy              =    -333.14658886 Ry
     estimated scf accuracy    <       0.00000015 Ry

     iteration # 13     ecut=    30.00 Ry     beta= 0.70
     Davidson diagonalization with overlap
     ethr =  3.36E-10,  avg # of iterations =  4.8

     total cpu time spent up to now is        5.2 secs

     End of self-consistent calculation

          k = 0.1250 0.1250 0.1250 (  1096 PWs)   bands (ev):

   -44.2959 -21.3410 -20.8650 -20.8642  -6.3650  -5.3339  -5.1223  -4.1558
    -4.1110  -4.0989  -3.9289  -3.8889   4.4626   7.0803   7.3293   8.0063
     8.4735   8.5824   9.3318   9.6976  10.0642  10.2167

          k = 0.1250 0.1250 0.3750 (  1095 PWs)   bands (ev):

   -44.2945 -21.3991 -20.8624 -20.8615  -5.8198  -5.2963  -4.9710  -4.1985
    -4.1522  -4.0866  -3.9902  -3.9087   3.6068   6.6995   6.7253   7.6805
     8.2919   8.5424   9.4985   9.6791  10.3312  10.9847

          k = 0.1250 0.3750 0.3750 (  1093 PWs)   bands (ev):

   -44.2933 -21.3955 -20.9170 -20.8601  -5.6190  -5.2216  -4.8885  -4.1748
    -4.1365  -4.0564  -3.9561  -3.7435   3.3475   6.3527   6.9510   7.2050
     7.6410   8.7217   9.0309   9.6002   9.8374  10.5860

          k = 0.3750 0.3750 0.3750 (  1082 PWs)   bands (ev):

   -44.2919 -21.3927 -20.9145 -20.9142  -5.4858  -5.1719  -5.0872  -4.0942
    -4.0514  -3.8328  -3.6774  -3.6313   3.9974   5.6454   5.9564   6.5938
     7.3471   7.5489   7.8832  10.2819  10.3671  10.8653

          k = 0.3750-0.1250 0.1250 (  1095 PWs)   bands (ev):

   -44.2946 -21.3383 -20.9208 -20.8623  -6.0321  -5.1486  -5.0052  -4.1848
    -4.1327  -4.0999  -4.0228  -3.8810   3.7382   7.0054   7.2984   7.7039
     8.3134   8.7023   9.1375   9.5949   9.7742  10.7541

          k = 0.3750-0.3750 0.1250 (  1093 PWs)   bands (ev):

   -44.2933 -21.3363 -20.9179 -20.9170  -5.9513  -4.9392  -4.8574  -4.1352
    -4.1151  -4.0284  -3.9438  -3.8866   3.4794   6.7128   6.7687   7.0088
     7.5167   8.6833   9.4647   9.5616   9.9684  10.8490

     highest occupied level (ev):    10.9847

!    total energy              =    -333.14658889 Ry
     estimated scf accuracy    <       0.00000006 Ry

     The total energy is the sum of the following terms:
     one-electron contribution =     -79.71150951 Ry
     hartree contribution      =      67.82843410 Ry
     xc contribution           =     -49.74155915 Ry
     ewald contribution        =    -271.52195434 Ry

     convergence has been achieved in  13 iterations

     Forces acting on atoms (cartesian axes, Ry/au):

     atom    1 type  2   force =     0.00000000    0.00000000   -0.03471743
     atom    2 type  3   force =     0.00000000    0.00000000    0.21669456
     atom    3 type  1   force =     0.00000000    0.00000000   -0.01089603
     atom    4 type  1   force =     0.00000000    0.00000000   -0.01089603
     atom    5 type  1   force =     0.00000000    0.00000000   -0.16018507
     The non-local contrib.  to forces
     atom    1 type  2   force =     0.00000000    0.00000000    0.01766538
     atom    2 type  3   force =     0.00000000    0.00000000   -0.11321164
     atom    3 type  1   force =     0.00000000    0.00000000   -0.22415844
     atom    4 type  1   force =     0.00000000    0.00000000   -0.22415844
     atom    5 type  1   force =     0.00000000    0.00000000    0.53442762
     The ionic contribution  to forces
     atom    1 type  2   force =     0.00000000    0.00000000   -1.99096923
     atom    2 type  3   force =     0.00000000    0.00000000    5.25053450
     atom    3 type  1   force =     0.00000000   -0.00000000    2.16722517
     atom    4 type  1   force =    -0.00000000    0.00000000    2.16722517
     atom    5 type  1   force =    -0.00000000   -0.00000000   -7.59401561
     The local contribution  to forces
     atom    1 type  2   force =     0.00000000   -0.00000000    1.93853710
     atom    2 type  3   force =    -0.00000000   -0.00000000   -4.92057745
     atom    3 type  1   force =     0.00000000   -0.00000000   -1.95389051
     atom    4 type  1   force =    -0.00000000    0.00000000   -1.95389051
     atom    5 type  1   force =    -0.00000000   -0.00000000    6.89924356
     The core correction contribution to forces
     atom    1 type  2   force =     0.00000000    0.00000000    0.00000000
     atom    2 type  3   force =     0.00000000    0.00000000    0.00000000
     atom    3 type  1   force =     0.00000000    0.00000000    0.00000000
     atom    4 type  1   force =     0.00000000    0.00000000    0.00000000
     atom    5 type  1   force =     0.00000000    0.00000000    0.00000000
     The Hubbard contrib.    to forces
     atom    1 type  2   force =     0.00000000    0.00000000    0.00000000
     atom    2 type  3   force =     0.00000000    0.00000000    0.00000000
     atom    3 type  1   force =     0.00000000    0.00000000    0.00000000
     atom    4 type  1   force =     0.00000000    0.00000000    0.00000000
     atom    5 type  1   force =     0.00000000    0.00000000    0.00000000
     The SCF correction term to forces
     atom    1 type  2   force =    -0.00000000   -0.00000000    0.00000000
     atom    2 type  3   force =    -0.00000000   -0.00000000   -0.00000000
     atom    3 type  1   force =    -0.00000000   -0.00000000   -0.00006596
     atom    4 type  1   force =    -0.00000000    0.00000000   -0.00006596
     atom    5 type  1   force =     0.00000000    0.00000000    0.00016564

     Total force =     0.160925     Total SCF correction =     0.000190


     Computing stress (Cartesian axis) and pressure

          total   stress  (Ry/bohr**3)                   (kbar)     P=       52.84
  -0.00004602   0.00000000   0.00000000           -6.77        0.00        0.00
   0.00000000  -0.00004602   0.00000000            0.00       -6.77        0.00
   0.00000000   0.00000000   0.00116965            0.00        0.00      172.06


     BFGS Geometry Optimization
     Energy error            =      0.0E+00 Ry
     Gradient error          =      1.6E-01 Ry/Bohr

     number of scf cycles    =   1
     number of bfgs steps    =   0

     energy             new  =    -333.1465888864 Ry

     new trust radius        =       0.1601850712 bohr
     new conv_thr            =       0.0000001000 Ry


ATOMIC_POSITIONS (angstrom)
Pb            0.0000000000        0.0000000000        0.0000000000    0   0   0
Ti            1.9400000000        1.9400000000        1.6336800000    0   0   0
O             0.0000000000        1.9400000000        1.9342340690
O             1.9400000000        0.0000000000        1.9342340690
O             1.9400000000        1.9400000000       -0.0847662892



     Writing config-only to output data dir /home/gridsan/epan1/labutil/lab3_samples/problem2/Lab3/PbTiO3_a_3.88_ecut_30_nk_4_displ_-0.07894736842105264/pwscf.save/
     NEW-OLD atomic charge density approx. for the potential

     total cpu time spent up to now is        6.3 secs

     Self-consistent Calculation

     iteration #  1     ecut=    30.00 Ry     beta= 0.70
     Davidson diagonalization with overlap
     ethr =  1.00E-06,  avg # of iterations =  9.5

     total cpu time spent up to now is        6.8 secs

     total energy              =    -333.15849896 Ry
     estimated scf accuracy    <       0.00893729 Ry

     iteration #  2     ecut=    30.00 Ry     beta= 0.70
     Davidson diagonalization with overlap
     ethr =  2.03E-05,  avg # of iterations =  5.8

     total cpu time spent up to now is        7.2 secs

     total energy              =    -333.15749899 Ry
     estimated scf accuracy    <       0.02635133 Ry

     iteration #  3     ecut=    30.00 Ry     beta= 0.70
     Davidson diagonalization with overlap
     ethr =  2.03E-05,  avg # of iterations =  4.7

     total cpu time spent up to now is        7.6 secs

     total energy              =    -333.16233722 Ry
     estimated scf accuracy    <       0.00056516 Ry

     iteration #  4     ecut=    30.00 Ry     beta= 0.70
     Davidson diagonalization with overlap
     ethr =  1.28E-06,  avg # of iterations =  2.8

     total cpu time spent up to now is        7.9 secs

     total energy              =    -333.16241963 Ry
     estimated scf accuracy    <       0.00012108 Ry

     iteration #  5     ecut=    30.00 Ry     beta= 0.70
     Davidson diagonalization with overlap
     ethr =  2.75E-07,  avg # of iterations =  3.7

     total cpu time spent up to now is        8.2 secs

     total energy              =    -333.16245102 Ry
     estimated scf accuracy    <       0.00000470 Ry

     iteration #  6     ecut=    30.00 Ry     beta= 0.70
     Davidson diagonalization with overlap
     ethr =  1.07E-08,  avg # of iterations =  5.8

     total cpu time spent up to now is        8.6 secs

     total energy              =    -333.16245336 Ry
     estimated scf accuracy    <       0.00000508 Ry

     iteration #  7     ecut=    30.00 Ry     beta= 0.70
     Davidson diagonalization with overlap
     ethr =  1.07E-08,  avg # of iterations =  3.3

     total cpu time spent up to now is        8.8 secs

     total energy              =    -333.16245353 Ry
     estimated scf accuracy    <       0.00000112 Ry

     iteration #  8     ecut=    30.00 Ry     beta= 0.70
     Davidson diagonalization with overlap
     ethr =  2.55E-09,  avg # of iterations =  4.2

     total cpu time spent up to now is        9.2 secs

     total energy              =    -333.16245387 Ry
     estimated scf accuracy    <       0.00000014 Ry

     iteration #  9     ecut=    30.00 Ry     beta= 0.70
     Davidson diagonalization with overlap
     ethr =  3.24E-10,  avg # of iterations =  3.2

     total cpu time spent up to now is        9.5 secs

     End of self-consistent calculation

          k = 0.1250 0.1250 0.1250 (  1096 PWs)   bands (ev):

   -44.5003 -21.3105 -21.0881 -21.0873  -6.3868  -5.3247  -5.1624  -4.1054
    -4.0741  -4.0631  -3.8930  -3.8657   4.5107   7.1679   7.2888   7.9937
     8.6750   8.8717   9.4131   9.6877  10.1210  10.1541

          k = 0.1250 0.1250 0.3750 (  1095 PWs)   bands (ev):

   -44.4990 -21.3689 -21.0856 -21.0847  -5.8708  -5.2587  -5.0213  -4.1532
    -4.1014  -4.0532  -3.9657  -3.8719   3.7068   6.7178   6.8968   7.6751
     8.4693   8.5623   9.4714   9.7070  10.2686  10.9773

          k = 0.1250 0.3750 0.3750 (  1093 PWs)   bands (ev):

   -44.4977 -21.3654 -21.1388 -21.0834  -5.6613  -5.1786  -4.9343  -4.1285
    -4.0872  -4.0215  -3.9248  -3.7274   3.4203   6.4682   7.0148   7.1373
     7.6053   8.7315   9.1909   9.5957   9.9362  10.5890

          k = 0.3750 0.3750 0.3750 (  1082 PWs)   bands (ev):

   -44.4964 -21.3627 -21.1364 -21.1361  -5.4532  -5.1951  -5.1207  -4.0457
    -4.0158  -3.7771  -3.6632  -3.6246   4.0532   5.7870   5.9740   6.5642
     7.3227   7.4529   7.9668  10.4133  10.4918  10.8106

          k = 0.3750-0.1250 0.1250 (  1095 PWs)   bands (ev):

   -44.4990 -21.3079 -21.1424 -21.0855  -6.0322  -5.1615  -5.0486  -4.1428
    -4.0873  -4.0634  -3.9869  -3.8545   3.7927   6.9748   7.3765   7.7618
     8.3573   8.7955   9.1836   9.6955   9.8318  10.7795

          k = 0.3750-0.3750 0.1250 (  1093 PWs)   bands (ev):

   -44.4978 -21.3059 -21.1396 -21.1388  -5.9177  -4.9833  -4.9044  -4.1007
    -4.0729  -3.9996  -3.9172  -3.8335   3.4945   6.8229   6.8823   7.1087
     7.5076   8.6772   9.5329   9.5332   9.9529  10.8028

     highest occupied level (ev):    10.9773

!    total energy              =    -333.16245388 Ry
     estimated scf accuracy    <       0.00000001 Ry

     The total energy is the sum of the following terms:
     one-electron contribution =     -77.82725101 Ry
     hartree contribution      =      66.83735979 Ry
     xc contribution           =     -49.67166623 Ry
     ewald contribution        =    -272.50089644 Ry

     convergence has been achieved in   9 iterations

     Forces acting on atoms (cartesian axes, Ry/au):

     atom    1 type  2   force =     0.00000000    0.00000000   -0.03557688
     atom    2 type  3   force =     0.00000000    0.00000000    0.11897506
     atom    3 type  1   force =     0.00000000    0.00000000   -0.02090159
     atom    4 type  1   force =     0.00000000    0.00000000   -0.02090159
     atom    5 type  1   force =     0.00000000    0.00000000   -0.04159499
     The non-local contrib.  to forces
     atom    1 type  2   force =     0.00000000    0.00000000    0.02142970
     atom    2 type  3   force =     0.00000000    0.00000000   -0.06562761
     atom    3 type  1   force =     0.00000000    0.00000000   -0.25415211
     atom    4 type  1   force =     0.00000000    0.00000000   -0.25415211
     atom    5 type  1   force =     0.00000000    0.00000000    0.47543760
     The ionic contribution  to forces
     atom    1 type  2   force =     0.00000000    0.00000000   -1.76539939
     atom    2 type  3   force =     0.00000000    0.00000000    3.09956216
     atom    3 type  1   force =     0.00000000    0.00000000    1.93856804
     atom    4 type  1   force =     0.00000000    0.00000000    1.93856804
     atom    5 type  1   force =     0.00000000    0.00000000   -5.21129886
     The local contribution  to forces
     atom    1 type  2   force =     0.00000000   -0.00000000    1.70835568
     atom    2 type  3   force =    -0.00000000   -0.00000000   -2.91494507
     atom    3 type  1   force =     0.00000000   -0.00000000   -1.70527295
     atom    4 type  1   force =    -0.00000000   -0.00000000   -1.70527295
     atom    5 type  1   force =    -0.00000000   -0.00000000    4.69420541
     The core correction contribution to forces
     atom    1 type  2   force =     0.00000000    0.00000000    0.00000000
     atom    2 type  3   force =     0.00000000    0.00000000    0.00000000
     atom    3 type  1   force =     0.00000000    0.00000000    0.00000000
     atom    4 type  1   force =     0.00000000    0.00000000    0.00000000
     atom    5 type  1   force =     0.00000000    0.00000000    0.00000000
     The Hubbard contrib.    to forces
     atom    1 type  2   force =     0.00000000    0.00000000    0.00000000
     atom    2 type  3   force =     0.00000000    0.00000000    0.00000000
     atom    3 type  1   force =     0.00000000    0.00000000    0.00000000
     atom    4 type  1   force =     0.00000000    0.00000000    0.00000000
     atom    5 type  1   force =     0.00000000    0.00000000    0.00000000
     The SCF correction term to forces
     atom    1 type  2   force =     0.00000000   -0.00000000    0.00000000
     atom    2 type  3   force =    -0.00000000    0.00000000   -0.00000000
     atom    3 type  1   force =     0.00000000    0.00000000   -0.00003895
     atom    4 type  1   force =    -0.00000000    0.00000000   -0.00003895
     atom    5 type  1   force =     0.00000000    0.00000000    0.00006648

     Total force =     0.051028     Total SCF correction =     0.000086


     Computing stress (Cartesian axis) and pressure

          total   stress  (Ry/bohr**3)                   (kbar)     P=        6.30
  -0.00012986   0.00000000   0.00000000          -19.10        0.00        0.00
   0.00000000  -0.00012986   0.00000000            0.00      -19.10        0.00
   0.00000000   0.00000000   0.00038823            0.00        0.00       57.11

     Energy error            =      1.6E-02 Ry
     Gradient error          =      4.2E-02 Ry/Bohr

     number of scf cycles    =   2
     number of bfgs steps    =   1

     energy             old  =    -333.1465888864 Ry
     energy             new  =    -333.1624538808 Ry

     CASE: energy            _new < energy            _old

     new trust radius        =       0.0649764926 bohr
     new conv_thr            =       0.0000000416 Ry


ATOMIC_POSITIONS (angstrom)
Pb            0.0000000000        0.0000000000        0.0000000000    0   0   0
Ti            1.9400000000        1.9400000000        1.6336800000    0   0   0
O             0.0000000000        1.9400000000        1.9187065480
O             1.9400000000        0.0000000000        1.9187065480
O             1.9400000000        1.9400000000       -0.1191503684



     Writing config-only to output data dir /home/gridsan/epan1/labutil/lab3_samples/problem2/Lab3/PbTiO3_a_3.88_ecut_30_nk_4_displ_-0.07894736842105264/pwscf.save/
     NEW-OLD atomic charge density approx. for the potential

     total cpu time spent up to now is       10.6 secs

     Self-consistent Calculation

     iteration #  1     ecut=    30.00 Ry     beta= 0.70
     Davidson diagonalization with overlap
     ethr =  1.00E-06,  avg # of iterations =  8.7

     total cpu time spent up to now is       11.1 secs

     total energy              =    -333.16496911 Ry
     estimated scf accuracy    <       0.00115789 Ry

     iteration #  2     ecut=    30.00 Ry     beta= 0.70
     Davidson diagonalization with overlap
     ethr =  2.63E-06,  avg # of iterations =  5.5

     total cpu time spent up to now is       11.5 secs

     total energy              =    -333.16484498 Ry
     estimated scf accuracy    <       0.00249814 Ry

     iteration #  3     ecut=    30.00 Ry     beta= 0.70
     Davidson diagonalization with overlap
     ethr =  2.63E-06,  avg # of iterations =  4.3

     total cpu time spent up to now is       11.9 secs

     total energy              =    -333.16536529 Ry
     estimated scf accuracy    <       0.00008713 Ry

     iteration #  4     ecut=    30.00 Ry     beta= 0.70
     Davidson diagonalization with overlap
     ethr =  1.98E-07,  avg # of iterations =  2.5

     total cpu time spent up to now is       12.2 secs

     total energy              =    -333.16537295 Ry
     estimated scf accuracy    <       0.00002217 Ry

     iteration #  5     ecut=    30.00 Ry     beta= 0.70
     Davidson diagonalization with overlap
     ethr =  5.04E-08,  avg # of iterations =  4.2

     total cpu time spent up to now is       12.5 secs

     total energy              =    -333.16537716 Ry
     estimated scf accuracy    <       0.00000105 Ry

     iteration #  6     ecut=    30.00 Ry     beta= 0.70
     Davidson diagonalization with overlap
     ethr =  2.39E-09,  avg # of iterations =  5.7

     total cpu time spent up to now is       12.9 secs

     total energy              =    -333.16537783 Ry
     estimated scf accuracy    <       0.00000049 Ry

     iteration #  7     ecut=    30.00 Ry     beta= 0.70
     Davidson diagonalization with overlap
     ethr =  1.11E-09,  avg # of iterations =  2.8

     total cpu time spent up to now is       13.1 secs

     total energy              =    -333.16537785 Ry
     estimated scf accuracy    <       0.00000013 Ry

     iteration #  8     ecut=    30.00 Ry     beta= 0.70
     Davidson diagonalization with overlap
     ethr =  2.86E-10,  avg # of iterations =  4.5

     total cpu time spent up to now is       13.5 secs

     End of self-consistent calculation

          k = 0.1250 0.1250 0.1250 (  1096 PWs)   bands (ev):

   -44.5699 -21.3140 -21.1628 -21.1620  -6.3880  -5.3193  -5.1884  -4.0889
    -4.0626  -4.0522  -3.8818  -3.8591   4.5253   7.1867   7.2701   7.9948
     8.7606   8.9641   9.4632   9.6993  10.1209  10.1406

          k = 0.1250 0.1250 0.3750 (  1095 PWs)   bands (ev):

   -44.5686 -21.3722 -21.1604 -21.1595  -5.8921  -5.2343  -5.0522  -4.1381
    -4.0848  -4.0431  -3.9581  -3.8597   3.7440   6.7272   6.9633   7.6740
     8.5287   8.5531   9.4585   9.7317  10.2356  10.9636

          k = 0.1250 0.3750 0.3750 (  1093 PWs)   bands (ev):

   -44.5673 -21.3687 -21.2136 -21.1581  -5.6813  -5.1509  -4.9549  -4.1134
    -4.0712  -4.0100  -3.9141  -3.7238   3.4429   6.5155   7.0294   7.0988
     7.5738   8.7194   9.2503   9.5734   9.9789  10.5969

          k = 0.3750 0.3750 0.3750 (  1082 PWs)   bands (ev):

   -44.5660 -21.3660 -21.2111 -21.2108  -5.4307  -5.2021  -5.1371  -4.0300
    -4.0049  -3.7569  -3.6583  -3.6228   4.0652   5.8267   5.9649   6.5684
     7.2889   7.3880   7.9882  10.4661  10.5400  10.7823

          k = 0.3750-0.1250 0.1250 (  1095 PWs)   bands (ev):

   -44.5686 -21.3115 -21.2171 -21.1602  -6.0219  -5.1682  -5.0704  -4.1298
    -4.0728  -4.0522  -3.9733  -3.8458   3.8095   6.9471   7.3825   7.7651
     8.3655   8.8194   9.2025   9.7491   9.8622  10.7890

          k = 0.3750-0.3750 0.1250 (  1093 PWs)   bands (ev):

   -44.5674 -21.3096 -21.2143 -21.2135  -5.8890  -5.0033  -4.9267  -4.0903
    -4.0594  -3.9899  -3.9077  -3.8142   3.4939   6.8167   6.9079   7.1430
     7.5017   8.6707   9.5208   9.5415   9.9530  10.7785

     highest occupied level (ev):    10.9636

!    total energy              =    -333.16537787 Ry
     estimated scf accuracy    <       0.00000003 Ry

     The total energy is the sum of the following terms:
     one-electron contribution =     -77.43843646 Ry
     hartree contribution      =      66.62578243 Ry
     xc contribution           =     -49.65340624 Ry
     ewald contribution        =    -272.69931760 Ry

     convergence has been achieved in   8 iterations

     Forces acting on atoms (cartesian axes, Ry/au):

     atom    1 type  2   force =     0.00000000    0.00000000   -0.03472175
     atom    2 type  3   force =     0.00000000    0.00000000    0.09080404
     atom    3 type  1   force =     0.00000000    0.00000000   -0.02332742
     atom    4 type  1   force =     0.00000000    0.00000000   -0.02332742
     atom    5 type  1   force =     0.00000000    0.00000000   -0.00942746
     The non-local contrib.  to forces
     atom    1 type  2   force =     0.00000000    0.00000000    0.03281054
     atom    2 type  3   force =     0.00000000    0.00000000   -0.05282972
     atom    3 type  1   force =     0.00000000    0.00000000   -0.26019997
     atom    4 type  1   force =     0.00000000    0.00000000   -0.26019997
     atom    5 type  1   force =     0.00000000    0.00000000    0.43871954
     The ionic contribution  to forces
     atom    1 type  2   force =     0.00000000    0.00000000   -1.85636986
     atom    2 type  3   force =     0.00000000    0.00000000    2.43220448
     atom    3 type  1   force =     0.00000000   -0.00000000    1.89117961
     atom    4 type  1   force =    -0.00000000    0.00000000    1.89117961
     atom    5 type  1   force =    -0.00000000   -0.00000000   -4.35819384
     The local contribution  to forces
     atom    1 type  2   force =    -0.00000000   -0.00000000    1.78880264
     atom    2 type  3   force =    -0.00000000   -0.00000000   -2.28835528
     atom    3 type  1   force =    -0.00000000   -0.00000000   -1.65421400
     atom    4 type  1   force =    -0.00000000    0.00000000   -1.65421400
     atom    5 type  1   force =    -0.00000000   -0.00000000    3.91000660
     The core correction contribution to forces
     atom    1 type  2   force =     0.00000000    0.00000000    0.00000000
     atom    2 type  3   force =     0.00000000    0.00000000    0.00000000
     atom    3 type  1   force =     0.00000000    0.00000000    0.00000000
     atom    4 type  1   force =     0.00000000    0.00000000    0.00000000
     atom    5 type  1   force =     0.00000000    0.00000000    0.00000000
     The Hubbard contrib.    to forces
     atom    1 type  2   force =     0.00000000    0.00000000    0.00000000
     atom    2 type  3   force =     0.00000000    0.00000000    0.00000000
     atom    3 type  1   force =     0.00000000    0.00000000    0.00000000
     atom    4 type  1   force =     0.00000000    0.00000000    0.00000000
     atom    5 type  1   force =     0.00000000    0.00000000    0.00000000
     The SCF correction term to forces
     atom    1 type  2   force =     0.00000000   -0.00000000    0.00000000
     atom    2 type  3   force =     0.00000000    0.00000000   -0.00000000
     atom    3 type  1   force =    -0.00000000    0.00000000   -0.00005482
     atom    4 type  1   force =     0.00000000   -0.00000000   -0.00005482
     atom    5 type  1   force =    -0.00000000   -0.00000000    0.00007847

     Total force =     0.034311     Total SCF correction =     0.000110


     Computing stress (Cartesian axis) and pressure

          total   stress  (Ry/bohr**3)                   (kbar)     P=       -5.51
  -0.00014207   0.00000000   0.00000000          -20.90        0.00        0.00
   0.00000000  -0.00014207   0.00000000            0.00      -20.90        0.00
   0.00000000   0.00000000   0.00017178            0.00        0.00       25.27

     Energy error            =      2.9E-03 Ry
     Gradient error          =      2.3E-02 Ry/Bohr

     number of scf cycles    =   3
     number of bfgs steps    =   2

     energy             old  =    -333.1624538808 Ry
     energy             new  =    -333.1653778726 Ry

     CASE: energy            _new < energy            _old

     new trust radius        =       0.0714615910 bohr
     new conv_thr            =       0.0000000233 Ry


ATOMIC_POSITIONS (angstrom)
Pb            0.0000000000        0.0000000000        0.0000000000    0   0   0
Ti            1.9400000000        1.9400000000        1.6336800000    0   0   0
O             0.0000000000        1.9400000000        1.8841092708
O             1.9400000000        0.0000000000        1.8841092708
O             1.9400000000        1.9400000000       -0.1569662138



     Writing config-only to output data dir /home/gridsan/epan1/labutil/lab3_samples/problem2/Lab3/PbTiO3_a_3.88_ecut_30_nk_4_displ_-0.07894736842105264/pwscf.save/
     NEW-OLD atomic charge density approx. for the potential

     total cpu time spent up to now is       14.7 secs

     Self-consistent Calculation

     iteration #  1     ecut=    30.00 Ry     beta= 0.70
     Davidson diagonalization with overlap
     ethr =  1.00E-06,  avg # of iterations =  9.8

     total cpu time spent up to now is       15.2 secs

     total energy              =    -333.16778407 Ry
     estimated scf accuracy    <       0.00166228 Ry

     iteration #  2     ecut=    30.00 Ry     beta= 0.70
     Davidson diagonalization with overlap
     ethr =  3.78E-06,  avg # of iterations =  5.0

     total cpu time spent up to now is       15.6 secs

     total energy              =    -333.16758184 Ry
     estimated scf accuracy    <       0.00261008 Ry

     iteration #  3     ecut=    30.00 Ry     beta= 0.70
     Davidson diagonalization with overlap
     ethr =  3.78E-06,  avg # of iterations =  4.5

     total cpu time spent up to now is       15.9 secs

     total energy              =    -333.16821487 Ry
     estimated scf accuracy    <       0.00026090 Ry

     iteration #  4     ecut=    30.00 Ry     beta= 0.70
     Davidson diagonalization with overlap
     ethr =  5.93E-07,  avg # of iterations =  2.7

     total cpu time spent up to now is       16.2 secs

     total energy              =    -333.16822474 Ry
     estimated scf accuracy    <       0.00005404 Ry

     iteration #  5     ecut=    30.00 Ry     beta= 0.70
     Davidson diagonalization with overlap
     ethr =  1.23E-07,  avg # of iterations =  4.5

     total cpu time spent up to now is       16.5 secs

     total energy              =    -333.16824435 Ry
     estimated scf accuracy    <       0.00000449 Ry

     iteration #  6     ecut=    30.00 Ry     beta= 0.70
     Davidson diagonalization with overlap
     ethr =  1.02E-08,  avg # of iterations =  2.8

     total cpu time spent up to now is       16.8 secs

     total energy              =    -333.16824422 Ry
     estimated scf accuracy    <       0.00000169 Ry

     iteration #  7     ecut=    30.00 Ry     beta= 0.70
     Davidson diagonalization with overlap
     ethr =  3.85E-09,  avg # of iterations =  4.5

     total cpu time spent up to now is       17.1 secs

     total energy              =    -333.16824477 Ry
     estimated scf accuracy    <       0.00000015 Ry

     iteration #  8     ecut=    30.00 Ry     beta= 0.70
     Davidson diagonalization with overlap
     ethr =  3.30E-10,  avg # of iterations =  2.7

     total cpu time spent up to now is       17.4 secs

     total energy              =    -333.16824475 Ry
     estimated scf accuracy    <       0.00000008 Ry

     iteration #  9     ecut=    30.00 Ry     beta= 0.70
     Davidson diagonalization with overlap
     ethr =  1.82E-10,  avg # of iterations =  4.3

     total cpu time spent up to now is       17.7 secs

     End of self-consistent calculation

          k = 0.1250 0.1250 0.1250 (  1096 PWs)   bands (ev):

   -44.6375 -21.3247 -21.2363 -21.2355  -6.3886  -5.3181  -5.2321  -4.0715
    -4.0508  -4.0409  -3.8714  -3.8505   4.5403   7.2064   7.2527   8.0087
     8.8473   9.0297   9.5473   9.7272  10.0697  10.1448

          k = 0.1250 0.1250 0.3750 (  1095 PWs)   bands (ev):

   -44.6362 -21.3824 -21.2339 -21.2330  -5.9214  -5.2068  -5.1031  -4.1209
    -4.0669  -4.0324  -3.9479  -3.8474   3.7868   6.7423   7.0522   7.6858
     8.5107   8.5762   9.4316   9.7711  10.1852  10.9336

          k = 0.1250 0.3750 0.3750 (  1093 PWs)   bands (ev):

   -44.6350 -21.3790 -21.2875 -21.2316  -5.7106  -5.1197  -4.9836  -4.0972
    -4.0546  -3.9970  -3.9016  -3.7193   3.4639   6.5744   6.9905   7.0901
     7.5195   8.6961   9.2965   9.5342  10.0164  10.6087

          k = 0.3750 0.3750 0.3750 (  1082 PWs)   bands (ev):

   -44.6337 -21.3763 -21.2850 -21.2847  -5.4050  -5.2097  -5.1617  -4.0133
    -3.9933  -3.7353  -3.6515  -3.6191   4.0668   5.8591   5.9384   6.5876
     7.2201   7.2805   8.0075  10.5200  10.5872  10.7401

          k = 0.3750-0.1250 0.1250 (  1095 PWs)   bands (ev):

   -44.6362 -21.3223 -21.2909 -21.2336  -6.0081  -5.1846  -5.1024  -4.1163
    -4.0574  -4.0404  -3.9549  -3.8352   3.8240   6.8987   7.3710   7.7663
     8.3682   8.8081   9.2295   9.8019   9.9055  10.7966

          k = 0.3750-0.3750 0.1250 (  1093 PWs)   bands (ev):

   -44.6350 -21.3204 -21.2880 -21.2873  -5.8495  -5.0333  -4.9601  -4.0794
    -4.0442  -3.9764  -3.8939  -3.7929   3.4845   6.7965   6.9028   7.1600
     7.4794   8.6575   9.5004   9.5241   9.9616  10.7411

     highest occupied level (ev):    10.9336

!    total energy              =    -333.16824477 Ry
     estimated scf accuracy    <          1.4E-10 Ry

     The total energy is the sum of the following terms:
     one-electron contribution =     -77.36109920 Ry
     hartree contribution      =      66.56905608 Ry
     xc contribution           =     -49.64226873 Ry
     ewald contribution        =    -272.73393292 Ry

     convergence has been achieved in   9 iterations

     Forces acting on atoms (cartesian axes, Ry/au):

     atom    1 type  2   force =     0.00000000    0.00000000   -0.03237305
     atom    2 type  3   force =     0.00000000    0.00000000    0.06585380
     atom    3 type  1   force =     0.00000000    0.00000000   -0.02366174
     atom    4 type  1   force =     0.00000000    0.00000000   -0.02366174
     atom    5 type  1   force =     0.00000000    0.00000000    0.01384273
     The non-local contrib.  to forces
     atom    1 type  2   force =     0.00000000    0.00000000    0.05818209
     atom    2 type  3   force =     0.00000000    0.00000000   -0.04138349
     atom    3 type  1   force =     0.00000000    0.00000000   -0.25810480
     atom    4 type  1   force =     0.00000000    0.00000000   -0.25810480
     atom    5 type  1   force =     0.00000000    0.00000000    0.38337985
     The ionic contribution  to forces
     atom    1 type  2   force =     0.00000000    0.00000000   -2.19801933
     atom    2 type  3   force =     0.00000000    0.00000000    1.95210453
     atom    3 type  1   force =     0.00000000   -0.00000000    1.89256044
     atom    4 type  1   force =    -0.00000000    0.00000000    1.89256044
     atom    5 type  1   force =    -0.00000000   -0.00000000   -3.53920608
     The local contribution  to forces
     atom    1 type  2   force =     0.00000000   -0.00000000    2.10745258
     atom    2 type  3   force =    -0.00000000   -0.00000000   -1.84487731
     atom    3 type  1   force =     0.00000000   -0.00000000   -1.65813358
     atom    4 type  1   force =    -0.00000000   -0.00000000   -1.65813358
     atom    5 type  1   force =    -0.00000000   -0.00000000    3.16965471
     The core correction contribution to forces
     atom    1 type  2   force =     0.00000000    0.00000000    0.00000000
     atom    2 type  3   force =     0.00000000    0.00000000    0.00000000
     atom    3 type  1   force =     0.00000000    0.00000000    0.00000000
     atom    4 type  1   force =     0.00000000    0.00000000    0.00000000
     atom    5 type  1   force =     0.00000000    0.00000000    0.00000000
     The Hubbard contrib.    to forces
     atom    1 type  2   force =     0.00000000    0.00000000    0.00000000
     atom    2 type  3   force =     0.00000000    0.00000000    0.00000000
     atom    3 type  1   force =     0.00000000    0.00000000    0.00000000
     atom    4 type  1   force =     0.00000000    0.00000000    0.00000000
     atom    5 type  1   force =     0.00000000    0.00000000    0.00000000
     The SCF correction term to forces
     atom    1 type  2   force =    -0.00000000    0.00000000   -0.00000000
     atom    2 type  3   force =    -0.00000000    0.00000000   -0.00000000
     atom    3 type  1   force =     0.00000000   -0.00000000   -0.00000126
     atom    4 type  1   force =    -0.00000000    0.00000000   -0.00000126
     atom    5 type  1   force =     0.00000000   -0.00000000   -0.00000319

     Total force =     0.036213     Total SCF correction =     0.000004


     Computing stress (Cartesian axis) and pressure

          total   stress  (Ry/bohr**3)                   (kbar)     P=      -12.49
  -0.00013133   0.00000000   0.00000000          -19.32        0.00        0.00
   0.00000000  -0.00013133   0.00000000            0.00      -19.32        0.00
   0.00000000   0.00000000   0.00000797            0.00        0.00        1.17

     Energy error            =      2.9E-03 Ry
     Gradient error          =      2.4E-02 Ry/Bohr

     number of scf cycles    =   4
     number of bfgs steps    =   3

     energy             old  =    -333.1653778726 Ry
     energy             new  =    -333.1682447724 Ry

     CASE: energy            _new < energy            _old

     new trust radius        =       0.0786077501 bohr
     new conv_thr            =       0.0000000237 Ry


ATOMIC_POSITIONS (angstrom)
Pb            0.0000000000        0.0000000000        0.0000000000    0   0   0
Ti            1.9400000000        1.9400000000        1.6336800000    0   0   0
O             0.0000000000        1.9400000000        1.8425118409
O             1.9400000000        0.0000000000        1.8425118409
O             1.9400000000        1.9400000000       -0.1859922539



     Writing config-only to output data dir /home/gridsan/epan1/labutil/lab3_samples/problem2/Lab3/PbTiO3_a_3.88_ecut_30_nk_4_displ_-0.07894736842105264/pwscf.save/
     NEW-OLD atomic charge density approx. for the potential

     total cpu time spent up to now is       18.8 secs

     Self-consistent Calculation

     iteration #  1     ecut=    30.00 Ry     beta= 0.70
     Davidson diagonalization with overlap
     ethr =  1.00E-06,  avg # of iterations =  9.5

     total cpu time spent up to now is       19.3 secs

     total energy              =    -333.17050301 Ry
     estimated scf accuracy    <       0.00139548 Ry

     iteration #  2     ecut=    30.00 Ry     beta= 0.70
     Davidson diagonalization with overlap
     ethr =  3.17E-06,  avg # of iterations =  4.2

     total cpu time spent up to now is       19.7 secs

     total energy              =    -333.17046486 Ry
     estimated scf accuracy    <       0.00106055 Ry

     iteration #  3     ecut=    30.00 Ry     beta= 0.70
     Davidson diagonalization with overlap
     ethr =  2.41E-06,  avg # of iterations =  4.3

     total cpu time spent up to now is       20.0 secs

     total energy              =    -333.17074254 Ry
     estimated scf accuracy    <       0.00044192 Ry

     iteration #  4     ecut=    30.00 Ry     beta= 0.70
     Davidson diagonalization with overlap
     ethr =  1.00E-06,  avg # of iterations =  3.0

     total cpu time spent up to now is       20.3 secs

     total energy              =    -333.17077689 Ry
     estimated scf accuracy    <       0.00004354 Ry

     iteration #  5     ecut=    30.00 Ry     beta= 0.70
     Davidson diagonalization with overlap
     ethr =  9.90E-08,  avg # of iterations =  5.0

     total cpu time spent up to now is       20.6 secs

     total energy              =    -333.17081029 Ry
     estimated scf accuracy    <       0.00004338 Ry

     iteration #  6     ecut=    30.00 Ry     beta= 0.70
     Davidson diagonalization with overlap
     ethr =  9.86E-08,  avg # of iterations =  1.0

     total cpu time spent up to now is       20.9 secs

     total energy              =    -333.17080382 Ry
     estimated scf accuracy    <       0.00002679 Ry

     iteration #  7     ecut=    30.00 Ry     beta= 0.70
     Davidson diagonalization with overlap
     ethr =  6.09E-08,  avg # of iterations =  2.7

     total cpu time spent up to now is       21.2 secs

     total energy              =    -333.17080768 Ry
     estimated scf accuracy    <       0.00000187 Ry

     iteration #  8     ecut=    30.00 Ry     beta= 0.70
     Davidson diagonalization with overlap
     ethr =  4.24E-09,  avg # of iterations =  4.8

     total cpu time spent up to now is       21.5 secs

     total energy              =    -333.17080853 Ry
     estimated scf accuracy    <       0.00000013 Ry

     iteration #  9     ecut=    30.00 Ry     beta= 0.70
     Davidson diagonalization with overlap
     ethr =  3.05E-10,  avg # of iterations =  4.5

     total cpu time spent up to now is       21.8 secs

     total energy              =    -333.17080850 Ry
     estimated scf accuracy    <       0.00000021 Ry

     iteration # 10     ecut=    30.00 Ry     beta= 0.70
     Davidson diagonalization with overlap
     ethr =  3.05E-10,  avg # of iterations =  3.3

     total cpu time spent up to now is       22.1 secs

     total energy              =    -333.17080850 Ry
     estimated scf accuracy    <       0.00000005 Ry

     iteration # 11     ecut=    30.00 Ry     beta= 0.70
     Davidson diagonalization with overlap
     ethr =  1.08E-10,  avg # of iterations =  4.8

     total cpu time spent up to now is       22.4 secs

     total energy              =    -333.17080852 Ry
     estimated scf accuracy    <       0.00000002 Ry

     iteration # 12     ecut=    30.00 Ry     beta= 0.70
     Davidson diagonalization with overlap
     ethr =  5.58E-11,  avg # of iterations =  1.0

     total cpu time spent up to now is       22.7 secs

     End of self-consistent calculation

          k = 0.1250 0.1250 0.1250 (  1096 PWs)   bands (ev):

   -44.6822 -21.3352 -21.2862 -21.2854  -6.3940  -5.3196  -5.2818  -4.0555
    -4.0398  -4.0300  -3.8625  -3.8378   4.5527   7.2206   7.2430   8.0277
     8.9055   9.0525   9.6362   9.7565  10.0136  10.1272

          k = 0.1250 0.1250 0.3750 (  1095 PWs)   bands (ev):

   -44.6809 -21.3924 -21.2839 -21.2829  -5.9553  -5.1832  -5.1605  -4.1040
    -4.0503  -4.0220  -3.9336  -3.8360   3.8236   6.7584   7.1353   7.7006
     8.4494   8.6044   9.3938   9.8064  10.1301  10.8991

          k = 0.1250 0.3750 0.3750 (  1093 PWs)   bands (ev):

   -44.6797 -21.3891 -21.3381 -21.2815  -5.7445  -5.0989  -5.0124  -4.0819
    -4.0397  -3.9834  -3.8879  -3.7111   3.4793   6.6250   6.9175   7.1060
     7.4677   8.6665   9.3137   9.4943  10.0371  10.6187

          k = 0.3750 0.3750 0.3750 (  1082 PWs)   bands (ev):

   -44.6784 -21.3864 -21.3356 -21.3353  -5.3913  -5.2136  -5.1907  -3.9979
    -3.9820  -3.7171  -3.6414  -3.6111   4.0559   5.8783   5.9059   6.6094
     7.1448   7.1721   8.0286  10.5552  10.6128  10.6974

          k = 0.3750-0.1250 0.1250 (  1095 PWs)   bands (ev):

   -44.6810 -21.3417 -21.3326 -21.2835  -6.0008  -5.2060  -5.1372  -4.1039
    -4.0426  -4.0291  -3.9336  -3.8223   3.8322   6.8475   7.3467   7.7693
     8.3680   8.7702   9.2516   9.8256   9.9479  10.8011

          k = 0.3750-0.3750 0.1250 (  1093 PWs)   bands (ev):

   -44.6797 -21.3391 -21.3379 -21.3305  -5.8143  -5.0690  -5.0001  -4.0689
    -4.0285  -3.9587  -3.8753  -3.7734   3.4672   6.7710   6.8741   7.1544
     7.4512   8.6466   9.4800   9.4906   9.9785  10.6989

     highest occupied level (ev):    10.8991

!    total energy              =    -333.17080851 Ry
     estimated scf accuracy    <       0.00000001 Ry

     The total energy is the sum of the following terms:
     one-electron contribution =     -77.58489577 Ry
     hartree contribution      =      66.66753104 Ry
     xc contribution           =     -49.64071057 Ry
     ewald contribution        =    -272.61273321 Ry

     convergence has been achieved in  12 iterations

     Forces acting on atoms (cartesian axes, Ry/au):

     atom    1 type  2   force =     0.00000000    0.00000000   -0.02972544
     atom    2 type  3   force =     0.00000000    0.00000000    0.05103310
     atom    3 type  1   force =     0.00000000    0.00000000   -0.02189341
     atom    4 type  1   force =     0.00000000    0.00000000   -0.02189341
     atom    5 type  1   force =     0.00000000    0.00000000    0.02247916
     The non-local contrib.  to forces
     atom    1 type  2   force =     0.00000000    0.00000000    0.08845941
     atom    2 type  3   force =     0.00000000    0.00000000   -0.03428721
     atom    3 type  1   force =     0.00000000    0.00000000   -0.24899504
     atom    4 type  1   force =     0.00000000    0.00000000   -0.24899504
     atom    5 type  1   force =     0.00000000    0.00000000    0.32892093
     The ionic contribution  to forces
     atom    1 type  2   force =     0.00000000    0.00000000   -2.66578147
     atom    2 type  3   force =     0.00000000    0.00000000    1.81127644
     atom    3 type  1   force =     0.00000000    0.00000000    1.93098359
     atom    4 type  1   force =     0.00000000    0.00000000    1.93098359
     atom    5 type  1   force =    -0.00000000   -0.00000000   -3.00746215
     The local contribution  to forces
     atom    1 type  2   force =    -0.00000000    0.00000000    2.54762768
     atom    2 type  3   force =    -0.00000000   -0.00000000   -1.72596249
     atom    3 type  1   force =     0.00000000   -0.00000000   -1.70391821
     atom    4 type  1   force =    -0.00000000    0.00000000   -1.70391821
     atom    5 type  1   force =    -0.00000000   -0.00000000    2.70106433
     The core correction contribution to forces
     atom    1 type  2   force =     0.00000000    0.00000000    0.00000000
     atom    2 type  3   force =     0.00000000    0.00000000    0.00000000
     atom    3 type  1   force =     0.00000000    0.00000000    0.00000000
     atom    4 type  1   force =     0.00000000    0.00000000    0.00000000
     atom    5 type  1   force =     0.00000000    0.00000000    0.00000000
     The Hubbard contrib.    to forces
     atom    1 type  2   force =     0.00000000    0.00000000    0.00000000
     atom    2 type  3   force =     0.00000000    0.00000000    0.00000000
     atom    3 type  1   force =     0.00000000    0.00000000    0.00000000
     atom    4 type  1   force =     0.00000000    0.00000000    0.00000000
     atom    5 type  1   force =     0.00000000    0.00000000    0.00000000
     The SCF correction term to forces
     atom    1 type  2   force =     0.00000000    0.00000000   -0.00000000
     atom    2 type  3   force =    -0.00000000   -0.00000000    0.00000000
     atom    3 type  1   force =     0.00000000    0.00000000    0.00003069
     atom    4 type  1   force =     0.00000000   -0.00000000    0.00003069
     atom    5 type  1   force =    -0.00000000   -0.00000000   -0.00004951

     Total force =     0.038262     Total SCF correction =     0.000066


     Computing stress (Cartesian axis) and pressure

          total   stress  (Ry/bohr**3)                   (kbar)     P=      -13.62
  -0.00010630   0.00000000   0.00000000          -15.64        0.00        0.00
   0.00000000  -0.00010630   0.00000000            0.00      -15.64        0.00
   0.00000000   0.00000000  -0.00006518            0.00        0.00       -9.59

     Energy error            =      2.6E-03 Ry
     Gradient error          =      2.2E-02 Ry/Bohr

     number of scf cycles    =   5
     number of bfgs steps    =   4

     energy             old  =    -333.1682447724 Ry
     energy             new  =    -333.1708085092 Ry

     CASE: energy            _new < energy            _old

     new trust radius        =       0.1179116252 bohr
     new conv_thr            =       0.0000000225 Ry


ATOMIC_POSITIONS (angstrom)
Pb            0.0000000000        0.0000000000        0.0000000000    0   0   0
Ti            1.9400000000        1.9400000000        1.6336800000    0   0   0
O             0.0000000000        1.9400000000        1.7801156959
O             1.9400000000        0.0000000000        1.7801156959
O             1.9400000000        1.9400000000       -0.2196559524



     Writing config-only to output data dir /home/gridsan/epan1/labutil/lab3_samples/problem2/Lab3/PbTiO3_a_3.88_ecut_30_nk_4_displ_-0.07894736842105264/pwscf.save/
     NEW-OLD atomic charge density approx. for the potential

     total cpu time spent up to now is       23.8 secs

     Self-consistent Calculation

     iteration #  1     ecut=    30.00 Ry     beta= 0.70
     Davidson diagonalization with overlap
     ethr =  1.00E-06,  avg # of iterations = 10.0

     total cpu time spent up to now is       24.3 secs

     total energy              =    -333.17347141 Ry
     estimated scf accuracy    <       0.00263826 Ry

     iteration #  2     ecut=    30.00 Ry     beta= 0.70
     Davidson diagonalization with overlap
     ethr =  6.00E-06,  avg # of iterations =  4.2

     total cpu time spent up to now is       24.6 secs

     total energy              =    -333.17353159 Ry
     estimated scf accuracy    <       0.00133329 Ry

     iteration #  3     ecut=    30.00 Ry     beta= 0.70
     Davidson diagonalization with overlap
     ethr =  3.03E-06,  avg # of iterations =  4.5

     total cpu time spent up to now is       25.0 secs

     total energy              =    -333.17386763 Ry
     estimated scf accuracy    <       0.00089331 Ry

     iteration #  4     ecut=    30.00 Ry     beta= 0.70
     Davidson diagonalization with overlap
     ethr =  2.03E-06,  avg # of iterations =  3.2

     total cpu time spent up to now is       25.3 secs

     total energy              =    -333.17396723 Ry
     estimated scf accuracy    <       0.00004632 Ry

     iteration #  5     ecut=    30.00 Ry     beta= 0.70
     Davidson diagonalization with overlap
     ethr =  1.05E-07,  avg # of iterations =  5.8

     total cpu time spent up to now is       25.6 secs

     total energy              =    -333.17401805 Ry
     estimated scf accuracy    <       0.00009085 Ry

     iteration #  6     ecut=    30.00 Ry     beta= 0.70
     Davidson diagonalization with overlap
     ethr =  1.05E-07,  avg # of iterations =  2.0

     total cpu time spent up to now is       25.9 secs

     total energy              =    -333.17400554 Ry
     estimated scf accuracy    <       0.00005405 Ry

     iteration #  7     ecut=    30.00 Ry     beta= 0.70
     Davidson diagonalization with overlap
     ethr =  1.05E-07,  avg # of iterations =  3.8

     total cpu time spent up to now is       26.2 secs

     total energy              =    -333.17401374 Ry
     estimated scf accuracy    <       0.00000247 Ry

     iteration #  8     ecut=    30.00 Ry     beta= 0.70
     Davidson diagonalization with overlap
     ethr =  5.61E-09,  avg # of iterations =  5.2

     total cpu time spent up to now is       26.6 secs

     total energy              =    -333.17401514 Ry
     estimated scf accuracy    <       0.00000068 Ry

     iteration #  9     ecut=    30.00 Ry     beta= 0.70
     Davidson diagonalization with overlap
     ethr =  1.54E-09,  avg # of iterations =  1.8

     total cpu time spent up to now is       26.8 secs

     total energy              =    -333.17401508 Ry
     estimated scf accuracy    <       0.00000029 Ry

     iteration # 10     ecut=    30.00 Ry     beta= 0.70
     Davidson diagonalization with overlap
     ethr =  6.55E-10,  avg # of iterations =  4.0

     total cpu time spent up to now is       27.1 secs

     End of self-consistent calculation

          k = 0.1250 0.1250 0.1250 (  1096 PWs)   bands (ev):

   -44.7287 -21.3504 -21.3390 -21.3383  -6.4147  -5.3586  -5.3185  -4.0304
    -4.0205  -4.0098  -3.8467  -3.8078   4.5693   7.2273   7.2353   8.0511
     8.9626   9.0530   9.7596   9.7880   9.9309  10.0808

          k = 0.1250 0.1250 0.3750 (  1095 PWs)   bands (ev):

   -44.7274 -21.4069 -21.3368 -21.3359  -6.0149  -5.2483  -5.1492  -4.0763
    -4.0230  -4.0028  -3.9013  -3.8161   3.8716   6.7806   7.2324   7.7055
     8.3600   8.6399   9.3280   9.8427  10.0463  10.8555

          k = 0.1250 0.3750 0.3750 (  1093 PWs)   bands (ev):

   -44.7262 -21.4037 -21.3919 -21.3344  -5.8021  -5.1120  -5.0250  -4.0567
    -4.0156  -3.9588  -3.8618  -3.6884   3.5001   6.6779   6.8236   7.1035
     7.4175   8.6142   9.3065   9.4508  10.0563  10.6306

          k = 0.3750 0.3750 0.3750 (  1082 PWs)   bands (ev):

   -44.7249 -21.4011 -21.3893 -21.3891  -5.4014  -5.2413  -5.2043  -3.9726
    -3.9614  -3.6918  -3.6181  -3.5899   4.0264   5.8612   5.8982   6.6275
     7.0358   7.0510   8.0738  10.5867  10.5925  10.6699

          k = 0.3750-0.1250 0.1250 (  1095 PWs)   bands (ev):

   -44.7274 -21.3953 -21.3479 -21.3363  -6.0065  -5.2405  -5.1889  -4.0827
    -4.0178  -4.0080  -3.8954  -3.7955   3.8388   6.7780   7.3030   7.7726
     8.3647   8.7083   9.2722   9.8299   9.9960  10.8111

          k = 0.3750-0.3750 0.1250 (  1093 PWs)   bands (ev):

   -44.7262 -21.3925 -21.3916 -21.3460  -5.7726  -5.1289  -5.0697  -4.0494
    -4.0007  -3.9228  -3.8368  -3.7429   3.4335   6.7304   6.8175   7.1321
     7.4177   8.6394   9.4418   9.4573  10.0128  10.6327

     highest occupied level (ev):    10.8555

!    total energy              =    -333.17401515 Ry
     estimated scf accuracy    <          4.7E-09 Ry

     The total energy is the sum of the following terms:
     one-electron contribution =     -78.12983164 Ry
     hartree contribution      =      66.92530205 Ry
     xc contribution           =     -49.64577879 Ry
     ewald contribution        =    -272.32370676 Ry

     convergence has been achieved in  10 iterations

     Forces acting on atoms (cartesian axes, Ry/au):

     atom    1 type  2   force =     0.00000000    0.00000000   -0.02671161
     atom    2 type  3   force =     0.00000000    0.00000000    0.03932398
     atom    3 type  1   force =     0.00000000    0.00000000   -0.01777245
     atom    4 type  1   force =     0.00000000    0.00000000   -0.01777245
     atom    5 type  1   force =     0.00000000    0.00000000    0.02293252
     The non-local contrib.  to forces
     atom    1 type  2   force =     0.00000000    0.00000000    0.13297649
     atom    2 type  3   force =     0.00000000    0.00000000   -0.02795692
     atom    3 type  1   force =     0.00000000    0.00000000   -0.23253316
     atom    4 type  1   force =     0.00000000    0.00000000   -0.23253316
     atom    5 type  1   force =     0.00000000    0.00000000    0.25486413
     The ionic contribution  to forces
     atom    1 type  2   force =     0.00000000    0.00000000   -3.39538218
     atom    2 type  3   force =     0.00000000    0.00000000    1.88332537
     atom    3 type  1   force =     0.00000000   -0.00000000    1.99640997
     atom    4 type  1   force =    -0.00000000    0.00000000    1.99640997
     atom    5 type  1   force =    -0.00000000   -0.00000000   -2.48076313
     The local contribution  to forces
     atom    1 type  2   force =    -0.00000000   -0.00000000    3.23569872
     atom    2 type  3   force =    -0.00000000   -0.00000000   -1.81602665
     atom    3 type  1   force =     0.00000000   -0.00000000   -1.78165498
     atom    4 type  1   force =    -0.00000000    0.00000000   -1.78165498
     atom    5 type  1   force =    -0.00000000   -0.00000000    2.24882702
     The core correction contribution to forces
     atom    1 type  2   force =     0.00000000    0.00000000    0.00000000
     atom    2 type  3   force =     0.00000000    0.00000000    0.00000000
     atom    3 type  1   force =     0.00000000    0.00000000    0.00000000
     atom    4 type  1   force =     0.00000000    0.00000000    0.00000000
     atom    5 type  1   force =     0.00000000    0.00000000    0.00000000
     The Hubbard contrib.    to forces
     atom    1 type  2   force =     0.00000000    0.00000000    0.00000000
     atom    2 type  3   force =     0.00000000    0.00000000    0.00000000
     atom    3 type  1   force =     0.00000000    0.00000000    0.00000000
     atom    4 type  1   force =     0.00000000    0.00000000    0.00000000
     atom    5 type  1   force =     0.00000000    0.00000000    0.00000000
     The SCF correction term to forces
     atom    1 type  2   force =     0.00000000   -0.00000000   -0.00000000
     atom    2 type  3   force =     0.00000000    0.00000000   -0.00000000
     atom    3 type  1   force =    -0.00000000    0.00000000   -0.00000081
     atom    4 type  1   force =     0.00000000    0.00000000   -0.00000081
     atom    5 type  1   force =     0.00000000    0.00000000   -0.00000202

     Total force =     0.034024     Total SCF correction =     0.000002


     Computing stress (Cartesian axis) and pressure

          total   stress  (Ry/bohr**3)                   (kbar)     P=      -11.46
  -0.00006534   0.00000000   0.00000000           -9.61        0.00        0.00
   0.00000000  -0.00006534   0.00000000            0.00       -9.61        0.00
   0.00000000   0.00000000  -0.00010304            0.00        0.00      -15.16

     Energy error            =      3.2E-03 Ry
     Gradient error          =      2.3E-02 Ry/Bohr

     number of scf cycles    =   6
     number of bfgs steps    =   5

     energy             old  =    -333.1708085092 Ry
     energy             new  =    -333.1740151492 Ry

     CASE: energy            _new < energy            _old

     new trust radius        =       0.1768674378 bohr
     new conv_thr            =       0.0000000229 Ry


ATOMIC_POSITIONS (angstrom)
Pb            0.0000000000        0.0000000000        0.0000000000    0   0   0
Ti            1.9400000000        1.9400000000        1.6336800000    0   0   0
O             0.0000000000        1.9400000000        1.6865214785
O             1.9400000000        0.0000000000        1.6865214785
O             1.9400000000        1.9400000000       -0.2641252049



     Writing config-only to output data dir /home/gridsan/epan1/labutil/lab3_samples/problem2/Lab3/PbTiO3_a_3.88_ecut_30_nk_4_displ_-0.07894736842105264/pwscf.save/
     NEW-OLD atomic charge density approx. for the potential

     total cpu time spent up to now is       28.3 secs

     Self-consistent Calculation

     iteration #  1     ecut=    30.00 Ry     beta= 0.70
     Davidson diagonalization with overlap
     ethr =  1.00E-06,  avg # of iterations = 11.2

     total cpu time spent up to now is       29.0 secs

     total energy              =    -333.17628148 Ry
     estimated scf accuracy    <       0.00553104 Ry

     iteration #  2     ecut=    30.00 Ry     beta= 0.70
     Davidson diagonalization with overlap
     ethr =  1.26E-05,  avg # of iterations =  4.3

     total cpu time spent up to now is       29.3 secs

     total energy              =    -333.17649325 Ry
     estimated scf accuracy    <       0.00235959 Ry

     iteration #  3     ecut=    30.00 Ry     beta= 0.70
     Davidson diagonalization with overlap
     ethr =  5.36E-06,  avg # of iterations =  4.5

     total cpu time spent up to now is       29.6 secs

     total energy              =    -333.17709592 Ry
     estimated scf accuracy    <       0.00183065 Ry

     iteration #  4     ecut=    30.00 Ry     beta= 0.70
     Davidson diagonalization with overlap
     ethr =  4.16E-06,  avg # of iterations =  3.3

     total cpu time spent up to now is       29.9 secs

     total energy              =    -333.17730367 Ry
     estimated scf accuracy    <       0.00008991 Ry

     iteration #  5     ecut=    30.00 Ry     beta= 0.70
     Davidson diagonalization with overlap
     ethr =  2.04E-07,  avg # of iterations =  5.8

     total cpu time spent up to now is       30.3 secs

     total energy              =    -333.17740337 Ry
     estimated scf accuracy    <       0.00019673 Ry

     iteration #  6     ecut=    30.00 Ry     beta= 0.70
     Davidson diagonalization with overlap
     ethr =  2.04E-07,  avg # of iterations =  2.7

     total cpu time spent up to now is       30.6 secs

     total energy              =    -333.17738195 Ry
     estimated scf accuracy    <       0.00010419 Ry

     iteration #  7     ecut=    30.00 Ry     beta= 0.70
     Davidson diagonalization with overlap
     ethr =  2.04E-07,  avg # of iterations =  4.3

     total cpu time spent up to now is       30.9 secs

     total energy              =    -333.17739781 Ry
     estimated scf accuracy    <       0.00000348 Ry

     iteration #  8     ecut=    30.00 Ry     beta= 0.70
     Davidson diagonalization with overlap
     ethr =  7.92E-09,  avg # of iterations =  5.8

     total cpu time spent up to now is       31.2 secs

     total energy              =    -333.17740003 Ry
     estimated scf accuracy    <       0.00000166 Ry

     iteration #  9     ecut=    30.00 Ry     beta= 0.70
     Davidson diagonalization with overlap
     ethr =  3.76E-09,  avg # of iterations =  3.0

     total cpu time spent up to now is       31.5 secs

     total energy              =    -333.17740002 Ry
     estimated scf accuracy    <       0.00000039 Ry

     iteration # 10     ecut=    30.00 Ry     beta= 0.70
     Davidson diagonalization with overlap
     ethr =  8.87E-10,  avg # of iterations =  4.7

     total cpu time spent up to now is       31.8 secs

     total energy              =    -333.17740020 Ry
     estimated scf accuracy    <       0.00000009 Ry

     iteration # 11     ecut=    30.00 Ry     beta= 0.70
     Davidson diagonalization with overlap
     ethr =  2.06E-10,  avg # of iterations =  1.7

     total cpu time spent up to now is       32.1 secs

     total energy              =    -333.17740019 Ry
     estimated scf accuracy    <       0.00000005 Ry

     iteration # 12     ecut=    30.00 Ry     beta= 0.70
     Davidson diagonalization with overlap
     ethr =  1.24E-10,  avg # of iterations =  2.3

     total cpu time spent up to now is       32.4 secs

     End of self-consistent calculation

          k = 0.1250 0.1250 0.1250 (  1096 PWs)   bands (ev):

   -44.7850 -21.4028 -21.4019 -21.3768  -6.4738  -5.4805  -5.3048  -3.9862
    -3.9809  -3.9632  -3.8126  -3.7361   4.5943   7.1987   7.2250   8.0672
     9.0168   9.0215   9.7532   9.8647   9.8962  10.0224

          k = 0.1250 0.1250 0.3750 (  1095 PWs)   bands (ev):

   -44.7838 -21.4328 -21.4005 -21.3996  -6.1248  -5.3855  -5.0940  -4.0264
    -3.9719  -3.9603  -3.8248  -3.7757   3.9382   6.8091   7.2927   7.6587
     8.2792   8.6904   9.2259   9.8537   9.9244  10.8193

          k = 0.1250 0.3750 0.3750 (  1093 PWs)   bands (ev):

   -44.7825 -21.4566 -21.4294 -21.3981  -5.9041  -5.2166  -4.9850  -4.0096
    -3.9682  -3.9091  -3.8058  -3.6295   3.5346   6.6571   6.7752   7.0348
     7.3969   8.5238   9.2381   9.4342  10.0901  10.6421

          k = 0.3750 0.3750 0.3750 (  1082 PWs)   bands (ev):

   -44.7812 -21.4539 -21.4536 -21.4268  -5.4719  -5.3365  -5.1635  -3.9239
    -3.9177  -3.6495  -3.5644  -3.5363   3.9580   5.8100   5.9212   6.6054
     6.8906   6.9708   8.1784  10.4792  10.6103  10.6822

          k = 0.3750-0.1250 0.1250 (  1095 PWs)   bands (ev):

   -44.7837 -21.4598 -21.4000 -21.3744  -6.0518  -5.3237  -5.2367  -4.0391
    -3.9736  -3.9589  -3.8225  -3.7330   3.8439   6.6867   7.2365   7.7627
     8.3414   8.6366   9.2865   9.8054  10.0253  10.8449

          k = 0.3750-0.3750 0.1250 (  1093 PWs)   bands (ev):

   -44.7825 -21.4569 -21.4560 -21.3725  -5.7329  -5.2288  -5.1966  -4.0072
    -3.9466  -3.8490  -3.7537  -3.6872   3.3679   6.6615   6.7261   7.1017
     7.3981   8.6444   9.3922   9.4386  10.0789  10.5247

     highest occupied level (ev):    10.8449

!    total energy              =    -333.17740018 Ry
     estimated scf accuracy    <       0.00000002 Ry

     The total energy is the sum of the following terms:
     one-electron contribution =     -79.15467692 Ry
     hartree contribution      =      67.42215340 Ry
     xc contribution           =     -49.65964011 Ry
     ewald contribution        =    -271.78523655 Ry

     convergence has been achieved in  12 iterations

     Forces acting on atoms (cartesian axes, Ry/au):

     atom    1 type  2   force =     0.00000000    0.00000000   -0.02536046
     atom    2 type  3   force =     0.00000000    0.00000000    0.03289448
     atom    3 type  1   force =     0.00000000    0.00000000   -0.00982716
     atom    4 type  1   force =     0.00000000    0.00000000   -0.00982716
     atom    5 type  1   force =     0.00000000    0.00000000    0.01212031
     The non-local contrib.  to forces
     atom    1 type  2   force =     0.00000000    0.00000000    0.19716026
     atom    2 type  3   force =     0.00000000    0.00000000   -0.02236411
     atom    3 type  1   force =     0.00000000    0.00000000   -0.20784078
     atom    4 type  1   force =     0.00000000    0.00000000   -0.20784078
     atom    5 type  1   force =     0.00000000    0.00000000    0.14888738
     The ionic contribution  to forces
     atom    1 type  2   force =     0.00000000    0.00000000   -4.48402144
     atom    2 type  3   force =     0.00000000    0.00000000    2.19971326
     atom    3 type  1   force =     0.00000000   -0.00000000    2.07099382
     atom    4 type  1   force =    -0.00000000    0.00000000    2.07099382
     atom    5 type  1   force =    -0.00000000   -0.00000000   -1.85767946
     The local contribution  to forces
     atom    1 type  2   force =    -0.00000000    0.00000000    4.26149764
     atom    2 type  3   force =    -0.00000000   -0.00000000   -2.14448189
     atom    3 type  1   force =     0.00000000   -0.00000000   -1.87301279
     atom    4 type  1   force =    -0.00000000    0.00000000   -1.87301279
     atom    5 type  1   force =    -0.00000000   -0.00000000    1.72091564
     The core correction contribution to forces
     atom    1 type  2   force =     0.00000000    0.00000000    0.00000000
     atom    2 type  3   force =     0.00000000    0.00000000    0.00000000
     atom    3 type  1   force =     0.00000000    0.00000000    0.00000000
     atom    4 type  1   force =     0.00000000    0.00000000    0.00000000
     atom    5 type  1   force =     0.00000000    0.00000000    0.00000000
     The Hubbard contrib.    to forces
     atom    1 type  2   force =     0.00000000    0.00000000    0.00000000
     atom    2 type  3   force =     0.00000000    0.00000000    0.00000000
     atom    3 type  1   force =     0.00000000    0.00000000    0.00000000
     atom    4 type  1   force =     0.00000000    0.00000000    0.00000000
     atom    5 type  1   force =     0.00000000    0.00000000    0.00000000
     The SCF correction term to forces
     atom    1 type  2   force =     0.00000000   -0.00000000   -0.00000000
     atom    2 type  3   force =     0.00000000    0.00000000    0.00000000
     atom    3 type  1   force =    -0.00000000   -0.00000000    0.00001276
     atom    4 type  1   force =     0.00000000   -0.00000000    0.00001276
     atom    5 type  1   force =     0.00000000   -0.00000000   -0.00002309

     Total force =     0.018440     Total SCF correction =     0.000029


     Computing stress (Cartesian axis) and pressure

          total   stress  (Ry/bohr**3)                   (kbar)     P=       -4.39
   0.00000131   0.00000000   0.00000000            0.19        0.00        0.00
   0.00000000   0.00000131   0.00000000            0.00        0.19        0.00
   0.00000000   0.00000000  -0.00009212            0.00        0.00      -13.55

     Energy error            =      3.4E-03 Ry
     Gradient error          =      1.2E-02 Ry/Bohr

     number of scf cycles    =   7
     number of bfgs steps    =   6

     energy             old  =    -333.1740151492 Ry
     energy             new  =    -333.1774001755 Ry

     CASE: energy            _new < energy            _old

     new trust radius        =       0.2302481031 bohr
     new conv_thr            =       0.0000000121 Ry


ATOMIC_POSITIONS (angstrom)
Pb            0.0000000000        0.0000000000        0.0000000000    0   0   0
Ti            1.9400000000        1.9400000000        1.6336800000    0   0   0
O             0.0000000000        1.9400000000        1.5646794295
O             1.9400000000        0.0000000000        1.5646794295
O             1.9400000000        1.9400000000       -0.3229095830



     Writing config-only to output data dir /home/gridsan/epan1/labutil/lab3_samples/problem2/Lab3/PbTiO3_a_3.88_ecut_30_nk_4_displ_-0.07894736842105264/pwscf.save/
     NEW-OLD atomic charge density approx. for the potential

     total cpu time spent up to now is       33.5 secs

     Self-consistent Calculation

     iteration #  1     ecut=    30.00 Ry     beta= 0.70
     Davidson diagonalization with overlap
     ethr =  1.00E-06,  avg # of iterations = 11.8

     total cpu time spent up to now is       34.1 secs

     total energy              =    -333.17715390 Ry
     estimated scf accuracy    <       0.00940637 Ry

     iteration #  2     ecut=    30.00 Ry     beta= 0.70
     Davidson diagonalization with overlap
     ethr =  2.14E-05,  avg # of iterations =  4.3

     total cpu time spent up to now is       34.4 secs

     total energy              =    -333.17751564 Ry
     estimated scf accuracy    <       0.00390131 Ry

     iteration #  3     ecut=    30.00 Ry     beta= 0.70
     Davidson diagonalization with overlap
     ethr =  8.87E-06,  avg # of iterations =  4.8

     total cpu time spent up to now is       34.8 secs

     total energy              =    -333.17847379 Ry
     estimated scf accuracy    <       0.00324379 Ry

     iteration #  4     ecut=    30.00 Ry     beta= 0.70
     Davidson diagonalization with overlap
     ethr =  7.37E-06,  avg # of iterations =  3.7

     total cpu time spent up to now is       35.1 secs

     total energy              =    -333.17892578 Ry
     estimated scf accuracy    <       0.00006596 Ry

     iteration #  5     ecut=    30.00 Ry     beta= 0.70
     Davidson diagonalization with overlap
     ethr =  1.50E-07,  avg # of iterations =  7.2

     total cpu time spent up to now is       35.5 secs

     total energy              =    -333.17903592 Ry
     estimated scf accuracy    <       0.00016586 Ry

     iteration #  6     ecut=    30.00 Ry     beta= 0.70
     Davidson diagonalization with overlap
     ethr =  1.50E-07,  avg # of iterations =  3.0

     total cpu time spent up to now is       35.7 secs

     total energy              =    -333.17902112 Ry
     estimated scf accuracy    <       0.00007354 Ry

     iteration #  7     ecut=    30.00 Ry     beta= 0.70
     Davidson diagonalization with overlap
     ethr =  1.50E-07,  avg # of iterations =  4.7

     total cpu time spent up to now is       36.1 secs

     total energy              =    -333.17903671 Ry
     estimated scf accuracy    <       0.00000055 Ry

     iteration #  8     ecut=    30.00 Ry     beta= 0.70
     Davidson diagonalization with overlap
     ethr =  1.25E-09,  avg # of iterations =  5.5

     total cpu time spent up to now is       36.4 secs

     total energy              =    -333.17903689 Ry
     estimated scf accuracy    <       0.00000185 Ry

     iteration #  9     ecut=    30.00 Ry     beta= 0.70
     Davidson diagonalization with overlap
     ethr =  1.25E-09,  avg # of iterations =  5.3

     total cpu time spent up to now is       36.8 secs

     End of self-consistent calculation

          k = 0.1250 0.1250 0.1250 (  1096 PWs)   bands (ev):

   -44.8469 -21.4696 -21.4687 -21.4191  -6.5910  -5.6458  -5.2747  -3.9157
    -3.9111  -3.8748  -3.7502  -3.5966   4.6269   7.0886   7.1976   8.0543
     8.9459   9.0338   9.6040   9.7893   9.8532  10.1711

          k = 0.1250 0.1250 0.3750 (  1095 PWs)   bands (ev):

   -44.8457 -21.4747 -21.4670 -21.4664  -6.2916  -5.5676  -5.0255  -3.9490
    -3.8941  -3.8735  -3.7063  -3.6761   4.0150   6.8277   7.1649   7.5261
     8.3309   8.6581   9.1681   9.7169   9.8539  10.8381

          k = 0.1250 0.3750 0.3750 (  1093 PWs)   bands (ev):

   -44.8444 -21.5235 -21.4711 -21.4647  -6.0544  -5.3998  -4.9353  -3.9339
    -3.8836  -3.8242  -3.7044  -3.5103   3.5866   6.5366   6.7584   6.9351
     7.3740   8.4233   9.1065   9.4411  10.1763  10.6323

          k = 0.3750 0.3750 0.3750 (  1082 PWs)   bands (ev):

   -44.8431 -21.5208 -21.5205 -21.4683  -5.6191  -5.4923  -5.1049  -3.8424
    -3.8375  -3.5821  -3.4686  -3.4287   3.8285   5.7745   5.9333   6.5118
     6.8280   6.9684   8.3763  10.3113  10.6044  10.6790

          k = 0.3750-0.1250 0.1250 (  1095 PWs)   bands (ev):

   -44.8456 -21.5267 -21.4668 -21.4166  -6.1646  -5.4874  -5.2528  -3.9601
[...]
     Davidson diagonalization with overlap
     ethr =  9.43E-11,  avg # of iterations =  5.0

     total cpu time spent up to now is       52.2 secs

     total energy              =    -333.17953672 Ry
     estimated scf accuracy    <       0.00000001 Ry

     iteration #  9     ecut=    30.00 Ry     beta= 0.70
     Davidson diagonalization with overlap
     ethr =  3.07E-11,  avg # of iterations =  1.7

     total cpu time spent up to now is       52.5 secs

     total energy              =    -333.17953672 Ry
     estimated scf accuracy    <          5.6E-09 Ry

     iteration # 10     ecut=    30.00 Ry     beta= 0.70
     Davidson diagonalization with overlap
     ethr =  1.28E-11,  avg # of iterations =  4.7

     total cpu time spent up to now is       52.8 secs

     End of self-consistent calculation

          k = 0.1250 0.1250 0.1250 (  1096 PWs)   bands (ev):

   -44.8386 -21.4627 -21.4617 -21.4224  -6.6396  -5.7083  -5.2705  -3.8901
    -3.8851  -3.8412  -3.7296  -3.5346   4.6318   7.0430   7.1725   8.0703
     8.9134   8.9999   9.5582   9.6714   9.8170  10.2209

          k = 0.1250 0.1250 0.3750 (  1095 PWs)   bands (ev):

   -44.8373 -21.4781 -21.4601 -21.4593  -6.3528  -5.6354  -5.0104  -3.9216
    -3.8651  -3.8396  -3.6858  -3.6099   4.0244   6.8237   7.0837   7.4848
     8.3614   8.5988   9.1539   9.6545   9.8181  10.8631

          k = 0.1250 0.3750 0.3750 (  1093 PWs)   bands (ev):

   -44.8361 -21.5164 -21.4745 -21.4578  -6.1104  -5.4759  -4.9305  -3.9070
    -3.8504  -3.7942  -3.6641  -3.4560   3.6059   6.4707   6.7274   6.9250
     7.3573   8.4033   9.0533   9.4134  10.2201  10.6064

          k = 0.3750 0.3750 0.3750 (  1082 PWs)   bands (ev):

   -44.8348 -21.5138 -21.5134 -21.4716  -5.6824  -5.5579  -5.0889  -3.8132
    -3.8050  -3.5661  -3.4320  -3.3806   3.7676   5.7638   5.9337   6.4721
     6.8484   6.9875   8.4673  10.2489  10.5690  10.6504

          k = 0.3750-0.1250 0.1250 (  1095 PWs)   bands (ev):

   -44.8373 -21.5196 -21.4598 -21.4199  -6.2141  -5.5570  -5.2656  -3.9283
    -3.8745  -3.8368  -3.6662  -3.5486   3.8449   6.5648   7.1415   7.6887
     8.2210   8.5943   9.2552   9.7047   9.9068  10.9565

          k = 0.3750-0.3750 0.1250 (  1093 PWs)   bands (ev):

   -44.8361 -21.5167 -21.5158 -21.4179  -5.7768  -5.4698  -5.3815  -3.8956
    -3.8266  -3.6874  -3.5610  -3.5450   3.2087   6.5283   6.6162   7.1010
     7.4615   8.6802   9.3698   9.3880  10.2162  10.3140

     highest occupied level (ev):    10.9565

!    total energy              =    -333.17953672 Ry
     estimated scf accuracy    <          1.3E-10 Ry

     The total energy is the sum of the following terms:
     one-electron contribution =     -81.29804940 Ry
     hartree contribution      =      68.48204760 Ry
     xc contribution           =     -49.69929524 Ry
     ewald contribution        =    -270.66423968 Ry

     convergence has been achieved in  10 iterations

     Forces acting on atoms (cartesian axes, Ry/au):

     atom    1 type  2   force =     0.00000000    0.00000000   -0.03488094
     atom    2 type  3   force =     0.00000000    0.00000000    0.03752363
     atom    3 type  1   force =     0.00000000    0.00000000    0.00177522
     atom    4 type  1   force =     0.00000000    0.00000000    0.00177522
     atom    5 type  1   force =     0.00000000    0.00000000   -0.00619312
     The non-local contrib.  to forces
     atom    1 type  2   force =     0.00000000    0.00000000    0.30519299
     atom    2 type  3   force =     0.00000000    0.00000000   -0.01059019
     atom    3 type  1   force =     0.00000000    0.00000000   -0.17555857
     atom    4 type  1   force =     0.00000000    0.00000000   -0.17555857
     atom    5 type  1   force =     0.00000000    0.00000000   -0.08060333
     The ionic contribution  to forces
     atom    1 type  2   force =     0.00000000    0.00000000   -6.20557996
     atom    2 type  3   force =     0.00000000    0.00000000    2.01779833
     atom    3 type  1   force =     0.00000000   -0.00000000    2.01506034
     atom    4 type  1   force =    -0.00000000    0.00000000    2.01506034
     atom    5 type  1   force =    -0.00000000   -0.00000000    0.15766095
     The local contribution  to forces
     atom    1 type  2   force =    -0.00000000    0.00000000    5.86550556
     atom    2 type  3   force =    -0.00000000   -0.00000000   -1.96967491
     atom    3 type  1   force =     0.00000000   -0.00000000   -1.83771353
     atom    4 type  1   force =    -0.00000000    0.00000000   -1.83771353
     atom    5 type  1   force =    -0.00000000   -0.00000000   -0.08324705
     The core correction contribution to forces
     atom    1 type  2   force =     0.00000000    0.00000000    0.00000000
     atom    2 type  3   force =     0.00000000    0.00000000    0.00000000
     atom    3 type  1   force =     0.00000000    0.00000000    0.00000000
     atom    4 type  1   force =     0.00000000    0.00000000    0.00000000
     atom    5 type  1   force =     0.00000000    0.00000000    0.00000000
     The Hubbard contrib.    to forces
     atom    1 type  2   force =     0.00000000    0.00000000    0.00000000
     atom    2 type  3   force =     0.00000000    0.00000000    0.00000000
     atom    3 type  1   force =     0.00000000    0.00000000    0.00000000
     atom    4 type  1   force =     0.00000000    0.00000000    0.00000000
     atom    5 type  1   force =     0.00000000    0.00000000    0.00000000
     The SCF correction term to forces
     atom    1 type  2   force =     0.00000000   -0.00000000    0.00000000
     atom    2 type  3   force =    -0.00000000   -0.00000000   -0.00000000
     atom    3 type  1   force =     0.00000000   -0.00000000   -0.00000663
     atom    4 type  1   force =     0.00000000    0.00000000   -0.00000663
     atom    5 type  1   force =    -0.00000000    0.00000000    0.00000269

     Total force =     0.006683     Total SCF correction =     0.000010


     Computing stress (Cartesian axis) and pressure

          total   stress  (Ry/bohr**3)                   (kbar)     P=       15.58
   0.00012259   0.00000000   0.00000000           18.03        0.00        0.00
   0.00000000   0.00012259   0.00000000            0.00       18.03        0.00
   0.00000000   0.00000000   0.00007248            0.00        0.00       10.66

     Energy error            =      1.7E-04 Ry
     Gradient error          =      6.2E-03 Ry/Bohr

     number of scf cycles    =  12
     number of bfgs steps    =  11

     energy             old  =    -333.1793641326 Ry
     energy             new  =    -333.1795367232 Ry

     CASE: energy            _new < energy            _old

     new trust radius        =       0.0615281028 bohr
     new conv_thr            =       0.0000000017 Ry


ATOMIC_POSITIONS (angstrom)
Pb            0.0000000000        0.0000000000        0.0000000000    0   0   0
Ti            1.9400000000        1.9400000000        1.6336800000    0   0   0
O             0.0000000000        1.9400000000        1.4967849476
O             1.9400000000        0.0000000000        1.4967849476
O             1.9400000000        1.9400000000       -0.4100631841



     Writing config-only to output data dir /home/gridsan/epan1/labutil/lab3_samples/problem2/Lab3/PbTiO3_a_3.88_ecut_30_nk_4_displ_-0.07894736842105264/pwscf.save/
     NEW-OLD atomic charge density approx. for the potential

     total cpu time spent up to now is       53.9 secs

     Self-consistent Calculation

     iteration #  1     ecut=    30.00 Ry     beta= 0.70
     Davidson diagonalization with overlap
     ethr =  1.00E-06,  avg # of iterations = 10.2

     total cpu time spent up to now is       54.4 secs

     total energy              =    -333.17948526 Ry
     estimated scf accuracy    <       0.00080749 Ry

     iteration #  2     ecut=    30.00 Ry     beta= 0.70
     Davidson diagonalization with overlap
     ethr =  1.84E-06,  avg # of iterations =  4.2

     total cpu time spent up to now is       54.7 secs

     total energy              =    -333.17951999 Ry
     estimated scf accuracy    <       0.00027988 Ry

     iteration #  3     ecut=    30.00 Ry     beta= 0.70
     Davidson diagonalization with overlap
     ethr =  6.36E-07,  avg # of iterations =  4.7

     total cpu time spent up to now is       55.0 secs

     total energy              =    -333.17959007 Ry
     estimated scf accuracy    <       0.00024029 Ry

     iteration #  4     ecut=    30.00 Ry     beta= 0.70
     Davidson diagonalization with overlap
     ethr =  5.46E-07,  avg # of iterations =  3.2

     total cpu time spent up to now is       55.3 secs

     total energy              =    -333.17962365 Ry
     estimated scf accuracy    <       0.00000803 Ry

     iteration #  5     ecut=    30.00 Ry     beta= 0.70
     Davidson diagonalization with overlap
     ethr =  1.83E-08,  avg # of iterations =  6.0

     total cpu time spent up to now is       55.7 secs

     total energy              =    -333.17963083 Ry
     estimated scf accuracy    <       0.00001473 Ry

     iteration #  6     ecut=    30.00 Ry     beta= 0.70
     Davidson diagonalization with overlap
     ethr =  1.83E-08,  avg # of iterations =  3.3

     total cpu time spent up to now is       56.0 secs

     total energy              =    -333.17963034 Ry
     estimated scf accuracy    <       0.00000517 Ry

     iteration #  7     ecut=    30.00 Ry     beta= 0.70
     Davidson diagonalization with overlap
     ethr =  1.17E-08,  avg # of iterations =  4.7

     total cpu time spent up to now is       56.3 secs

     total energy              =    -333.17963139 Ry
     estimated scf accuracy    <       0.00000023 Ry

     iteration #  8     ecut=    30.00 Ry     beta= 0.70
     Davidson diagonalization with overlap
     ethr =  5.16E-10,  avg # of iterations =  5.5

     total cpu time spent up to now is       56.7 secs

     total energy              =    -333.17963145 Ry
     estimated scf accuracy    <       0.00000018 Ry

     iteration #  9     ecut=    30.00 Ry     beta= 0.70
     Davidson diagonalization with overlap
     ethr =  4.09E-10,  avg # of iterations =  3.3

     total cpu time spent up to now is       57.0 secs

     total energy              =    -333.17963146 Ry
     estimated scf accuracy    <       0.00000002 Ry

     iteration # 10     ecut=    30.00 Ry     beta= 0.70
     Davidson diagonalization with overlap
     ethr =  5.07E-11,  avg # of iterations =  5.0

     total cpu time spent up to now is       57.3 secs

     total energy              =    -333.17963147 Ry
     estimated scf accuracy    <          6.8E-09 Ry

     iteration # 11     ecut=    30.00 Ry     beta= 0.70
     Davidson diagonalization with overlap
     ethr =  1.54E-11,  avg # of iterations =  1.0

     total cpu time spent up to now is       57.5 secs

     total energy              =    -333.17963147 Ry
     estimated scf accuracy    <          3.8E-09 Ry

     iteration # 12     ecut=    30.00 Ry     beta= 0.70
     Davidson diagonalization with overlap
     ethr =  8.59E-12,  avg # of iterations =  2.7

     total cpu time spent up to now is       57.8 secs

     End of self-consistent calculation

          k = 0.1250 0.1250 0.1250 (  1096 PWs)   bands (ev):

   -44.8131 -21.4378 -21.4368 -21.4160  -6.6595  -5.7339  -5.2756  -3.8806
    -3.8755  -3.8286  -3.7236  -3.5057   4.6315   7.0244   7.1591   8.0852
     8.8981   8.9671   9.5412   9.5936   9.7881  10.2228

          k = 0.1250 0.1250 0.3750 (  1095 PWs)   bands (ev):

   -44.8119 -21.4720 -21.4352 -21.4344  -6.3761  -5.6631  -5.0117  -3.9116
    -3.8536  -3.8270  -3.6807  -3.5792   4.0195   6.8155   7.0416   7.4778
     8.3701   8.5595   9.1391   9.6299   9.7948  10.8782

          k = 0.1250 0.3750 0.3750 (  1093 PWs)   bands (ev):

   -44.8107 -21.4916 -21.4684 -21.4328  -6.1323  -5.5086  -4.9374  -3.8973
    -3.8374  -3.7834  -3.6476  -3.4308   3.6123   6.4344   6.7105   6.9259
     7.3482   8.4006   9.0326   9.3813  10.2359  10.5865

          k = 0.3750 0.3750 0.3750 (  1082 PWs)   bands (ev):

   -44.8094 -21.4890 -21.4885 -21.4655  -5.7091  -5.5859  -5.0881  -3.8030
    -3.7918  -3.5652  -3.4167  -3.3581   3.7374   5.7567   5.9299   6.4579
     6.8705   6.9984   8.5101  10.2243  10.5364  10.6233

          k = 0.3750-0.1250 0.1250 (  1095 PWs)   bands (ev):

   -44.8119 -21.4948 -21.4349 -21.4136  -6.2348  -5.5869  -5.2787  -3.9155
    -3.8645  -3.8254  -3.6489  -3.5218   3.8445   6.5580   7.1286   7.6822
     8.1976   8.5930   9.2217   9.6803   9.8563  10.9663

          k = 0.3750-0.3750 0.1250 (  1093 PWs)   bands (ev):

   -44.8107 -21.4918 -21.4909 -21.4116  -5.7947  -5.5030  -5.3988  -3.8821
    -3.8150  -3.6731  -3.5478  -3.5169   3.1853   6.5170   6.6222   7.0995
     7.4716   8.6808   9.3604   9.3608  10.2297  10.2880

     highest occupied level (ev):    10.9663

!    total energy              =    -333.17963147 Ry
     estimated scf accuracy    <          1.1E-09 Ry

     The total energy is the sum of the following terms:
     one-electron contribution =     -81.67322487 Ry
     hartree contribution      =      68.67547686 Ry
     xc contribution           =     -49.71142408 Ry
     ewald contribution        =    -270.47045938 Ry

     convergence has been achieved in  12 iterations

     Forces acting on atoms (cartesian axes, Ry/au):

     atom    1 type  2   force =     0.00000000    0.00000000   -0.03700909
     atom    2 type  3   force =     0.00000000    0.00000000    0.03546208
     atom    3 type  1   force =     0.00000000    0.00000000    0.00035900
     atom    4 type  1   force =     0.00000000    0.00000000    0.00035900
     atom    5 type  1   force =     0.00000000    0.00000000    0.00082902
     The non-local contrib.  to forces
     atom    1 type  2   force =     0.00000000    0.00000000    0.31906035
     atom    2 type  3   force =     0.00000000    0.00000000   -0.00587362
     atom    3 type  1   force =     0.00000000    0.00000000   -0.17955496
     atom    4 type  1   force =     0.00000000    0.00000000   -0.17955496
     atom    5 type  1   force =     0.00000000    0.00000000   -0.13054927
     The ionic contribution  to forces
     atom    1 type  2   force =     0.00000000    0.00000000   -6.35901085
     atom    2 type  3   force =     0.00000000    0.00000000    1.55134973
     atom    3 type  1   force =     0.00000000   -0.00000000    1.94907238
     atom    4 type  1   force =    -0.00000000    0.00000000    1.94907238
     atom    5 type  1   force =     0.00000000    0.00000000    0.90951636
     The local contribution  to forces
     atom    1 type  2   force =     0.00000000   -0.00000000    6.00294073
     atom    2 type  3   force =    -0.00000000   -0.00000000   -1.51001593
     atom    3 type  1   force =     0.00000000   -0.00000000   -1.76916318
     atom    4 type  1   force =    -0.00000000    0.00000000   -1.76916318
     atom    5 type  1   force =    -0.00000000   -0.00000000   -0.77812783
     The core correction contribution to forces
     atom    1 type  2   force =     0.00000000    0.00000000    0.00000000
     atom    2 type  3   force =     0.00000000    0.00000000    0.00000000
     atom    3 type  1   force =     0.00000000    0.00000000    0.00000000
     atom    4 type  1   force =     0.00000000    0.00000000    0.00000000
     atom    5 type  1   force =     0.00000000    0.00000000    0.00000000
     The Hubbard contrib.    to forces
     atom    1 type  2   force =     0.00000000    0.00000000    0.00000000
     atom    2 type  3   force =     0.00000000    0.00000000    0.00000000
     atom    3 type  1   force =     0.00000000    0.00000000    0.00000000
     atom    4 type  1   force =     0.00000000    0.00000000    0.00000000
     atom    5 type  1   force =     0.00000000    0.00000000    0.00000000
     The SCF correction term to forces
     atom    1 type  2   force =     0.00000000   -0.00000000   -0.00000000
     atom    2 type  3   force =    -0.00000000   -0.00000000    0.00000000
     atom    3 type  1   force =     0.00000000   -0.00000000    0.00000406
     atom    4 type  1   force =    -0.00000000    0.00000000    0.00000406
     atom    5 type  1   force =     0.00000000    0.00000000   -0.00001094

     Total force =     0.000972     Total SCF correction =     0.000012


     Computing stress (Cartesian axis) and pressure

          total   stress  (Ry/bohr**3)                   (kbar)     P=       22.44
   0.00014749   0.00000000   0.00000000           21.70        0.00        0.00
   0.00000000   0.00014749   0.00000000            0.00       21.70        0.00
   0.00000000   0.00000000   0.00016266            0.00        0.00       23.93

     Energy error            =      9.5E-05 Ry
     Gradient error          =      8.3E-04 Ry/Bohr

     bfgs converged in  13 scf cycles and  12 bfgs steps
     (criteria: energy <  1.0E-04 Ry, force <  1.0E-03 Ry/Bohr)

     End of BFGS Geometry Optimization

     Final energy             =    -333.1796314722 Ry

     File /home/gridsan/epan1/labutil/lab3_samples/problem2/Lab3/PbTiO3_a_3.88_ecut_30_nk_4_displ_-0.07894736842105264/pwscf.bfgs deleted, as requested
Begin final coordinates

ATOMIC_POSITIONS (angstrom)
Pb            0.0000000000        0.0000000000        0.0000000000    0   0   0
Ti            1.9400000000        1.9400000000        1.6336800000    0   0   0
O             0.0000000000        1.9400000000        1.4967849476
O             1.9400000000        0.0000000000        1.4967849476
O             1.9400000000        1.9400000000       -0.4100631841
End final coordinates



     init_run     :      0.74s CPU      0.70s WALL (       1 calls)
     electrons    :     52.47s CPU     42.97s WALL (      13 calls)
     update_pot   :      0.47s CPU      0.46s WALL (      12 calls)
     forces       :      1.83s CPU      1.40s WALL (      13 calls)
     stress       :     13.70s CPU     11.69s WALL (      13 calls)

     Called by init_run:
     wfcinit      :      0.10s CPU      0.08s WALL (       1 calls)
     potinit      :      0.04s CPU      0.04s WALL (       1 calls)
     hinit0       :      0.46s CPU      0.46s WALL (       1 calls)

     Called by electrons:
     c_bands      :     30.27s CPU     23.85s WALL (     128 calls)
     sum_band     :     13.51s CPU     11.57s WALL (     128 calls)
     v_of_rho     :      0.46s CPU      0.43s WALL (     141 calls)
     newd         :      8.40s CPU      7.24s WALL (     141 calls)
     mix_rho      :      0.28s CPU      0.26s WALL (     128 calls)

     Called by c_bands:
     init_us_2    :      0.90s CPU      0.72s WALL (    1698 calls)
     init_us_2:cp :      0.89s CPU      0.71s WALL (    1698 calls)
     cegterg      :     28.01s CPU     21.78s WALL (     768 calls)

     Called by *egterg:
     cdiaghg      :      4.90s CPU      3.73s WALL (    4136 calls)
     h_psi        :     18.63s CPU     14.70s WALL (    4214 calls)
     s_psi        :      0.81s CPU      0.62s WALL (    4214 calls)
     g_psi        :      0.20s CPU      0.15s WALL (    3440 calls)

     Called by h_psi:
     h_psi:calbec :      1.13s CPU      0.89s WALL (    4214 calls)
     vloc_psi     :     16.55s CPU     13.07s WALL (    4214 calls)
     add_vuspsi   :      0.84s CPU      0.65s WALL (    4214 calls)

     General routines
     calbec       :      1.52s CPU      1.21s WALL (    5372 calls)
     fft          :      0.81s CPU      0.71s WALL (     897 calls)
     ffts         :      0.09s CPU      0.08s WALL (     269 calls)
     fftw         :     15.63s CPU     12.38s WALL (  124380 calls)
     interpolate  :      0.17s CPU      0.15s WALL (     141 calls)

     Parallel routines

     PWSCF        :   1m10.42s CPU     58.84s WALL


   This run was terminated on:  17:58:27   2Nov2023            

=------------------------------------------------------------------------------=
   JOB DONE.
=------------------------------------------------------------------------------=
