Header of the LAMMPS data file 

4 atoms 
1 atom types

0.0 4.368421052631579  xlo xhi
0.0 4.368421052631579  ylo yhi
0.0 4.368421052631579  zlo zhi

Masses 

1  107.8682

Atoms # atomic 

1 1 0.00000 0.00000 0.00000 
2 1 0.00000 2.18421 2.18421 
3 1 2.18421 0.00000 2.18421 
4 1 2.18421 2.18421 0.00000 
