LAMMPS (29 Oct 2020)
Reading data file ...
  orthogonal box = (0.0000000 0.0000000 0.0000000) to (16.360000 16.360000 8.1800000)
  1 by 1 by 1 MPI processor grid
  reading atoms ...
  128 atoms
  read_data CPU = 0.001 seconds
Reading eam potential file /home/gridsan/epan1/3320_atomistic_shared/lammps/potentials/Ag_u3.eam with DATE: 2007-06-11
WARNING: No fixes defined, atoms won't move (../verlet.cpp:54)
Neighbor list info ...
  update every 1 steps, delay 10 steps, check yes
  max neighbors/atom: 2000, page size: 100000
  master list distance cutoff = 7.55
  ghost atom cutoff = 7.55
  binsize = 3.775, bins = 5 5 3
  1 neighbor lists, perpetual/occasional/extra = 1 0 0
  (1) pair eam, perpetual
      attributes: half, newton on
      pair build: half/bin/atomonly/newton
      stencil: half/bin/3d/newton
      bin: standard
Setting up Verlet run ...
  Unit style    : metal
  Current step  : 0
  Time step     : 0.001
Per MPI rank memory allocation (min/avg/max) = 3.365 | 3.365 | 3.365 Mbytes
Step PotEng Lx Ly Lz Press Pxx Pyy Pzz 
       0       -364.8        16.36        16.36         8.18 -0.058146225 -0.058146225 -0.058146225 -0.058146225 
Loop time of 1.19209e-06 on 1 procs for 0 steps with 128 atoms

83.9% CPU use with 1 MPI tasks x no OpenMP threads

MPI task timing breakdown:
Section |  min time  |  avg time  |  max time  |%varavg| %total
---------------------------------------------------------------
Pair    | 0          | 0          | 0          |   0.0 |  0.00
Neigh   | 0          | 0          | 0          |   0.0 |  0.00
Comm    | 0          | 0          | 0          |   0.0 |  0.00
Output  | 0          | 0          | 0          |   0.0 |  0.00
Modify  | 0          | 0          | 0          |   0.0 |  0.00
Other   |            | 1.192e-06  |            |       |100.00

Nlocal:        128.000 ave         128 max         128 min
Histogram: 1 0 0 0 0 0 0 0 0 0
Nghost:        1109.00 ave        1109 max        1109 min
Histogram: 1 0 0 0 0 0 0 0 0 0
Neighs:        5504.00 ave        5504 max        5504 min
Histogram: 1 0 0 0 0 0 0 0 0 0

Total # of neighbors = 5504
Ave neighs/atom = 43.000000
Neighbor list builds = 0
Dangerous builds = 0
WARNING: Using 'neigh_modify every 1 delay 0 check yes' setting during minimization (../min.cpp:187)
Setting up cg style minimization ...
  Unit style    : metal
  Current step  : 0
WARNING: Energy due to 1 extra global DOFs will be included in minimizer energies
Per MPI rank memory allocation (min/avg/max) = 4.490 | 4.490 | 4.490 Mbytes
Step PotEng Lx Ly Lz Press Pxx Pyy Pzz 
       0       -364.8        16.36        16.36         8.18 -0.058146225 -0.058146225 -0.058146225 -0.058146225 
       1       -364.8        16.36        16.36    8.1799998 -8.1329071e-05 -8.1329059e-05 -8.1329059e-05 -8.1329094e-05 
Loop time of 0.000509977 on 1 procs for 1 steps with 128 atoms

100.0% CPU use with 1 MPI tasks x no OpenMP threads

Minimization stats:
  Stopping criterion = energy tolerance
  Energy initial, next-to-last, final = 
     -364.800000200468  -364.800000200468  -364.800000200469
  Force two-norm initial, final = 0.0002383704 3.3340844e-07
  Force max component initial, final = 0.0002383704 3.3340844e-07
  Final line search alpha, max atom move = 1.0000000 3.3340844e-07
  Iterations, force evaluations = 1 2

MPI task timing breakdown:
Section |  min time  |  avg time  |  max time  |%varavg| %total
---------------------------------------------------------------
Pair    | 0.00045037 | 0.00045037 | 0.00045037 |   0.0 | 88.31
Neigh   | 0          | 0          | 0          |   0.0 |  0.00
Comm    | 1.049e-05  | 1.049e-05  | 1.049e-05  |   0.0 |  2.06
Output  | 0          | 0          | 0          |   0.0 |  0.00
Modify  | 0          | 0          | 0          |   0.0 |  0.00
Other   |            | 4.911e-05  |            |       |  9.63

Nlocal:        128.000 ave         128 max         128 min
Histogram: 1 0 0 0 0 0 0 0 0 0
Nghost:        1109.00 ave        1109 max        1109 min
Histogram: 1 0 0 0 0 0 0 0 0 0
Neighs:        5504.00 ave        5504 max        5504 min
Histogram: 1 0 0 0 0 0 0 0 0 0

Total # of neighbors = 5504
Ave neighs/atom = 43.000000
Neighbor list builds = 0
Dangerous builds = 0
Total energy (eV) = -364.800000200469
Number of atoms = 128
Lattice constant (Angstoms) = 16.359999694769
Total wall time: 0:00:00
