
     Program PWSCF v.7.2 starts on  2Nov2023 at 18: 5:13 

     This program is part of the open-source Quantum ESPRESSO suite
     for quantum simulation of materials; please cite
         "P. Giannozzi et al., J. Phys.:Condens. Matter 21 395502 (2009);
         "P. Giannozzi et al., J. Phys.:Condens. Matter 29 465901 (2017);
         "P. Giannozzi et al., J. Chem. Phys. 152 154105 (2020);
          URL http://www.quantum-espresso.org", 
     in publications or presentations arising from this work. More details at
     http://www.quantum-espresso.org/quote

     Parallel version (MPI), running on     2 processors

     MPI processes distributed on     2 nodes
     187046 MiB available memory on the printing compute node when the environment starts

     Waiting for input...
     Reading input from standard input
Warning: card &CELL ignored
Warning: card / ignored

     Current dimensions of program PWSCF are:
     Max number of different atomic species (ntypx) = 10
     Max number of k-points (npk) =  40000
     Max angular momentum in pseudopotentials (lmaxx) =  4
     file O.pz-rrkjus.UPF: wavefunction(s)  2S renormalized
     Message from routine setup:
     using ibrav=0 with symmetry is DISCOURAGED, use correct ibrav instead

     R & G space division:  proc/nbgrp/npool/nimage =       2
     Subspace diagonalization in iterative solution of the eigenvalue problem:
     a serial algorithm will be used


     Parallelization info
     --------------------
     sticks:   dense  smooth     PW     G-vecs:    dense   smooth      PW
     Min         516     254     74                12418     4366     709
     Max         517     255     75                12419     4367     710
     Sum        1033     509    149                24837     8733    1419

     Using Slab Decomposition



     bravais-lattice index     =            0
     lattice parameter (alat)  =       7.3321  a.u.
     unit-cell volume          =     394.1775 (a.u.)^3
     number of atoms/cell      =            5
     number of atomic types    =            3
     number of electrons       =        44.00
     number of Kohn-Sham states=           22
     kinetic-energy cutoff     =      30.0000  Ry
     charge density cutoff     =     240.0000  Ry
     scf convergence threshold =      1.0E-07
     mixing beta               =       0.7000
     number of iterations used =            8  plain     mixing
     energy convergence thresh.=      1.0E-04
     force convergence thresh. =      1.0E-03
     Exchange-correlation= SLA  PZ   NOGX NOGC
                           (   1   1   0   0   0   0   0)
     nstep                     =           50


     celldm(1)=   7.332137  celldm(2)=   0.000000  celldm(3)=   0.000000
     celldm(4)=   0.000000  celldm(5)=   0.000000  celldm(6)=   0.000000

     crystal axes: (cart. coord. in units of alat)
               a(1) = (   1.000000   0.000000   0.000000 )  
               a(2) = (   0.000000   1.000000   0.000000 )  
               a(3) = (   0.000000   0.000000   1.000000 )  

     reciprocal axes: (cart. coord. in units 2 pi/alat)
               b(1) = (  1.000000  0.000000  0.000000 )  
               b(2) = (  0.000000  1.000000  0.000000 )  
               b(3) = (  0.000000  0.000000  1.000000 )  


     PseudoPot. # 1 for O  read from file:
     /home/gridsan/epan1/labutil/lab3_samples/pseudopotentials/O.pz-rrkjus.UPF
     MD5 check sum: 24fb942a68ef5d262e498166c462ef4a
     Pseudo is Ultrasoft, Zval =  6.0
     Generated by new atomic code, or converted to UPF format
     Using radial grid of 1269 points,  4 beta functions with: 
                l(1) =   0
                l(2) =   0
                l(3) =   1
                l(4) =   1
     Q(r) pseudized with 0 coefficients 


     PseudoPot. # 2 for Pb read from file:
     /home/gridsan/epan1/labutil/lab3_samples/pseudopotentials/Pb.pz-d-van.UPF
     MD5 check sum: 4e1e5920686a026ae26139ac417581ff
     Pseudo is Ultrasoft, Zval = 14.0
     Generated by new atomic code, or converted to UPF format
     Using radial grid of  899 points,  6 beta functions with: 
                l(1) =   0
                l(2) =   0
                l(3) =   1
                l(4) =   1
                l(5) =   2
                l(6) =   2
     Q(r) pseudized with  8 coefficients,  rinner =    1.000   1.000   1.000
                                                       1.000   1.000

     PseudoPot. # 3 for Ti read from file:
     /home/gridsan/epan1/labutil/lab3_samples/pseudopotentials/Ti.pz-sp-van_ak.UPF
     MD5 check sum: 545d0e6e05332b8871a8093f427cb0ca
     Pseudo is Ultrasoft, Zval = 12.0
     Generated by new atomic code, or converted to UPF format
     Using radial grid of  851 points,  6 beta functions with: 
                l(1) =   0
                l(2) =   0
                l(3) =   1
                l(4) =   1
                l(5) =   2
                l(6) =   2
     Q(r) pseudized with  8 coefficients,  rinner =    1.000   1.000   1.000
                                                       1.000   1.000

     atomic species   valence    mass     pseudopotential
        O              6.00    15.99900     O ( 1.00)
        Pb            14.00   207.20000     Pb( 1.00)
        Ti            12.00    47.86700     Ti( 1.00)

      8 Sym. Ops. (no inversion) found



   Cartesian axes

     site n.     atom                  positions (alat units)
         1           Pb  tau(   1) = (   0.0000000   0.0000000   0.0000000  )
         2           Ti  tau(   2) = (   0.5000000   0.5000000   0.4842113  )
         3           O   tau(   3) = (   0.0000000   0.5000000   0.5000000  )
         4           O   tau(   4) = (   0.5000000   0.0000000   0.5000000  )
         5           O   tau(   5) = (   0.5000000   0.5000000   0.0000000  )

     number of k points=     6
                       cart. coord. in units 2pi/alat
        k(    1) = (   0.1250000   0.1250000   0.1250000), wk =   0.2500000
        k(    2) = (   0.1250000   0.1250000   0.3750000), wk =   0.2500000
        k(    3) = (   0.1250000   0.3750000   0.3750000), wk =   0.5000000
        k(    4) = (   0.3750000   0.3750000   0.3750000), wk =   0.2500000
        k(    5) = (   0.3750000  -0.1250000   0.1250000), wk =   0.5000000
        k(    6) = (   0.3750000  -0.3750000   0.1250000), wk =   0.2500000

     Dense  grid:    24837 G-vectors     FFT dimensions: (  40,  40,  40)

     Smooth grid:     8733 G-vectors     FFT dimensions: (  25,  25,  25)

     Estimated max dynamical RAM per process >      51.66 MB

     Estimated total dynamical RAM >     103.32 MB

     Initial potential from superposition of free atoms

     starting charge      42.9982, renormalised to      44.0000
     Starting wfcs are   31 randomized atomic wfcs

     total cpu time spent up to now is        1.0 secs

     Self-consistent Calculation

     iteration #  1     ecut=    30.00 Ry     beta= 0.70
     Davidson diagonalization with overlap
     ethr =  1.00E-02,  avg # of iterations =  2.0

     total cpu time spent up to now is        1.3 secs

     total energy              =    -332.61384663 Ry
     estimated scf accuracy    <       1.10258380 Ry

     iteration #  2     ecut=    30.00 Ry     beta= 0.70
     Davidson diagonalization with overlap
     ethr =  2.51E-03,  avg # of iterations =  6.0

     total cpu time spent up to now is        1.7 secs

     total energy              =    -332.30307409 Ry
     estimated scf accuracy    <       4.57908966 Ry

     iteration #  3     ecut=    30.00 Ry     beta= 0.70
     Davidson diagonalization with overlap
     ethr =  2.51E-03,  avg # of iterations =  5.7

     total cpu time spent up to now is        2.0 secs

     total energy              =    -333.15760772 Ry
     estimated scf accuracy    <       0.24098269 Ry

     iteration #  4     ecut=    30.00 Ry     beta= 0.70
     Davidson diagonalization with overlap
     ethr =  5.48E-04,  avg # of iterations =  2.2

     total cpu time spent up to now is        2.3 secs

     total energy              =    -333.15397511 Ry
     estimated scf accuracy    <       0.06876594 Ry

     iteration #  5     ecut=    30.00 Ry     beta= 0.70
     Davidson diagonalization with overlap
     ethr =  1.56E-04,  avg # of iterations =  4.8

     total cpu time spent up to now is        2.6 secs

     total energy              =    -333.18294462 Ry
     estimated scf accuracy    <       0.01918318 Ry

     iteration #  6     ecut=    30.00 Ry     beta= 0.70
     Davidson diagonalization with overlap
     ethr =  4.36E-05,  avg # of iterations =  2.3

     total cpu time spent up to now is        2.9 secs

     total energy              =    -333.18210178 Ry
     estimated scf accuracy    <       0.00662959 Ry

     iteration #  7     ecut=    30.00 Ry     beta= 0.70
     Davidson diagonalization with overlap
     ethr =  1.51E-05,  avg # of iterations =  4.5

     total cpu time spent up to now is        3.2 secs

     total energy              =    -333.18405840 Ry
     estimated scf accuracy    <       0.00021876 Ry

     iteration #  8     ecut=    30.00 Ry     beta= 0.70
     Davidson diagonalization with overlap
     ethr =  4.97E-07,  avg # of iterations =  3.5

     total cpu time spent up to now is        3.5 secs

     total energy              =    -333.18404787 Ry
     estimated scf accuracy    <       0.00022409 Ry

     iteration #  9     ecut=    30.00 Ry     beta= 0.70
     Davidson diagonalization with overlap
     ethr =  4.97E-07,  avg # of iterations =  2.0

     total cpu time spent up to now is        3.8 secs

     total energy              =    -333.18403321 Ry
     estimated scf accuracy    <       0.00009003 Ry

     iteration # 10     ecut=    30.00 Ry     beta= 0.70
     Davidson diagonalization with overlap
     ethr =  2.05E-07,  avg # of iterations =  4.5

     total cpu time spent up to now is        4.1 secs

     total energy              =    -333.18405854 Ry
     estimated scf accuracy    <       0.00000277 Ry

     iteration # 11     ecut=    30.00 Ry     beta= 0.70
     Davidson diagonalization with overlap
     ethr =  6.30E-09,  avg # of iterations =  4.7

     total cpu time spent up to now is        4.5 secs

     total energy              =    -333.18405834 Ry
     estimated scf accuracy    <       0.00000493 Ry

     iteration # 12     ecut=    30.00 Ry     beta= 0.70
     Davidson diagonalization with overlap
     ethr =  6.30E-09,  avg # of iterations =  1.5

     total cpu time spent up to now is        4.7 secs

     total energy              =    -333.18405786 Ry
     estimated scf accuracy    <       0.00000246 Ry

     iteration # 13     ecut=    30.00 Ry     beta= 0.70
     Davidson diagonalization with overlap
     ethr =  5.58E-09,  avg # of iterations =  3.7

     total cpu time spent up to now is        5.0 secs

     End of self-consistent calculation

          k = 0.1250 0.1250 0.1250 (  1096 PWs)   bands (ev):

   -44.7154 -21.3338 -21.3193 -21.3185  -6.3705  -5.3098  -5.2927  -4.0271
    -4.0255  -4.0125  -3.8452  -3.8433   4.6027   7.2603   7.2684   8.0294
     9.0711   9.0929   9.8384   9.8393   9.9395  10.0864

          k = 0.1250 0.1250 0.3750 (  1095 PWs)   bands (ev):

   -44.7142 -21.3905 -21.3170 -21.3161  -5.9561  -5.1718  -5.1456  -4.0876
    -4.0222  -4.0087  -3.9412  -3.8152   3.8681   6.7904   7.2768   7.8083
     8.4141   8.6768   9.3479   9.8923  10.0799  10.8193

          k = 0.1250 0.3750 0.3750 (  1093 PWs)   bands (ev):

   -44.7130 -21.3872 -21.3721 -21.3146  -5.7428  -5.0598  -4.9883  -4.0612
    -4.0176  -3.9638  -3.8751  -3.7222   3.5078   6.7212   6.8414   7.1505
     7.4584   8.6355   9.3925   9.4417   9.9873  10.6689

          k = 0.3750 0.3750 0.3750 (  1082 PWs)   bands (ev):

   -44.7117 -21.3845 -21.3696 -21.3693  -5.3535  -5.1879  -5.1747  -3.9742
    -3.9720  -3.6843  -3.6196  -3.6136   4.1269   5.9063   5.9203   6.6639
     7.0024   7.0127   7.9325  10.6202  10.6393  10.7078

          k = 0.3750-0.1250 0.1250 (  1095 PWs)   bands (ev):

   -44.7142 -21.3755 -21.3314 -21.3166  -5.9673  -5.1861  -5.1252  -4.0867
    -4.0210  -4.0091  -3.9434  -3.8135   3.8749   6.8059   7.3075   7.8066
     8.4014   8.7145   9.3176   9.8952  10.0433  10.8015

          k = 0.3750-0.3750 0.1250 (  1093 PWs)   bands (ev):

   -44.7130 -21.3726 -21.3717 -21.3294  -5.7646  -5.0488  -4.9781  -4.0593
    -4.0171  -3.9617  -3.8742  -3.7298   3.5139   6.7730   6.8106   7.1419
     7.4478   8.6262   9.4130   9.4426   9.9800  10.6904

     highest occupied level (ev):    10.8193

!    total energy              =    -333.18405822 Ry
     estimated scf accuracy    <       0.00000008 Ry

     The total energy is the sum of the following terms:
     one-electron contribution =     -77.04304071 Ry
     hartree contribution      =      66.40617421 Ry
     xc contribution           =     -49.63684321 Ry
     ewald contribution        =    -272.91034852 Ry

     convergence has been achieved in  13 iterations

     Forces acting on atoms (cartesian axes, Ry/au):

     atom    1 type  2   force =     0.00000000    0.00000000   -0.00678897
     atom    2 type  3   force =     0.00000000    0.00000000    0.00909373
     atom    3 type  1   force =     0.00000000    0.00000000    0.00013375
     atom    4 type  1   force =     0.00000000    0.00000000    0.00013375
     atom    5 type  1   force =     0.00000000    0.00000000   -0.00257225
     The non-local contrib.  to forces
     atom    1 type  2   force =     0.00000000    0.00000000    0.00368972
     atom    2 type  3   force =     0.00000000    0.00000000   -0.00569805
     atom    3 type  1   force =     0.00000000    0.00000000   -0.03097150
     atom    4 type  1   force =     0.00000000    0.00000000   -0.03097150
     atom    5 type  1   force =     0.00000000    0.00000000    0.11724000
     The ionic contribution  to forces
     atom    1 type  2   force =     0.00000000    0.00000000   -0.41273300
     atom    2 type  3   force =    -0.00000000   -0.00000000    0.94895092
     atom    3 type  1   force =     0.00000000   -0.00000000    0.45789920
     atom    4 type  1   force =    -0.00000000    0.00000000    0.45789920
     atom    5 type  1   force =    -0.00000000   -0.00000000   -1.45201632
     The local contribution  to forces
     atom    1 type  2   force =    -0.00000000   -0.00000000    0.40227380
     atom    2 type  3   force =    -0.00000000   -0.00000000   -0.93415742
     atom    3 type  1   force =     0.00000000   -0.00000000   -0.42679672
     atom    4 type  1   force =    -0.00000000    0.00000000   -0.42679672
     atom    5 type  1   force =    -0.00000000   -0.00000000    1.33226478
     The core correction contribution to forces
     atom    1 type  2   force =     0.00000000    0.00000000    0.00000000
     atom    2 type  3   force =     0.00000000    0.00000000    0.00000000
     atom    3 type  1   force =     0.00000000    0.00000000    0.00000000
     atom    4 type  1   force =     0.00000000    0.00000000    0.00000000
     atom    5 type  1   force =     0.00000000    0.00000000    0.00000000
     The Hubbard contrib.    to forces
     atom    1 type  2   force =     0.00000000    0.00000000    0.00000000
     atom    2 type  3   force =     0.00000000    0.00000000    0.00000000
     atom    3 type  1   force =     0.00000000    0.00000000    0.00000000
     atom    4 type  1   force =     0.00000000    0.00000000    0.00000000
     atom    5 type  1   force =     0.00000000    0.00000000    0.00000000
     The SCF correction term to forces
     atom    1 type  2   force =     0.00000000    0.00000000   -0.00000000
     atom    2 type  3   force =     0.00000000    0.00000000    0.00000000
     atom    3 type  1   force =     0.00000000   -0.00000000    0.00000620
     atom    4 type  1   force =     0.00000000   -0.00000000    0.00000620
     atom    5 type  1   force =     0.00000000    0.00000000   -0.00005730

     Total force =     0.002579     Total SCF correction =     0.000058


     Computing stress (Cartesian axis) and pressure

          total   stress  (Ry/bohr**3)                   (kbar)     P=      -20.22
  -0.00014992   0.00000000   0.00000000          -22.05        0.00        0.00
   0.00000000  -0.00014992   0.00000000            0.00      -22.05        0.00
   0.00000000   0.00000000  -0.00011258            0.00        0.00      -16.56


     BFGS Geometry Optimization
     Energy error            =      0.0E+00 Ry
     Gradient error          =      2.6E-03 Ry/Bohr

     number of scf cycles    =   1
     number of bfgs steps    =   0

     energy             new  =    -333.1840582204 Ry

     new trust radius        =       0.0025722538 bohr
     new conv_thr            =       0.0000001000 Ry


ATOMIC_POSITIONS (angstrom)
Pb            0.0000000000        0.0000000000        0.0000000000    0   0   0
Ti            1.9400000000        1.9400000000        1.8787400000    0   0   0
O             0.0000000000        1.9400000000        1.9400707758
O             1.9400000000        0.0000000000        1.9400707758
O             1.9400000000        1.9400000000       -0.0013611781



     Writing config-only to output data dir /home/gridsan/epan1/labutil/lab3_samples/problem2/Lab3/PbTiO3_a_3.88_ecut_30_nk_4_displ_-0.015789473684210534/pwscf.save/
     NEW-OLD atomic charge density approx. for the potential

     total cpu time spent up to now is        6.1 secs

     Self-consistent Calculation

     iteration #  1     ecut=    30.00 Ry     beta= 0.70
     Davidson diagonalization with overlap
     ethr =  1.00E-06,  avg # of iterations =  2.0

     Threshold (ethr) on eigenvalues was too large:
     Diagonalizing with lowered threshold

     Davidson diagonalization with overlap
     ethr =  2.25E-09,  avg # of iterations =  6.8

     total cpu time spent up to now is        6.7 secs

     total energy              =    -333.18406231 Ry
     estimated scf accuracy    <       0.00000359 Ry

     iteration #  2     ecut=    30.00 Ry     beta= 0.70
     Davidson diagonalization with overlap
     ethr =  8.15E-09,  avg # of iterations =  5.8

     total cpu time spent up to now is        7.1 secs

     total energy              =    -333.18406199 Ry
     estimated scf accuracy    <       0.00001258 Ry

     iteration #  3     ecut=    30.00 Ry     beta= 0.70
     Davidson diagonalization with overlap
     ethr =  8.15E-09,  avg # of iterations =  5.3

     total cpu time spent up to now is        7.5 secs

     End of self-consistent calculation

          k = 0.1250 0.1250 0.1250 (  1096 PWs)   bands (ev):

   -44.7157 -21.3334 -21.3196 -21.3188  -6.3710  -5.3098  -5.2932  -4.0267
    -4.0252  -4.0121  -3.8450  -3.8431   4.6028   7.2601   7.2679   8.0289
     9.0716   9.0930   9.8382   9.8407   9.9389  10.0858

          k = 0.1250 0.1250 0.3750 (  1095 PWs)   bands (ev):

   -44.7144 -21.3902 -21.3174 -21.3164  -5.9568  -5.1724  -5.1455  -4.0872
    -4.0218  -4.0084  -3.9410  -3.8149   3.8685   6.7901   7.2770   7.8076
     8.4140   8.6775   9.3476   9.8920  10.0792  10.8190

          k = 0.1250 0.3750 0.3750 (  1093 PWs)   bands (ev):

   -44.7132 -21.3869 -21.3724 -21.3150  -5.7433  -5.0600  -4.9886  -4.0608
    -4.0172  -3.9636  -3.8748  -3.7221   3.5080   6.7217   6.8406   7.1501
     7.4581   8.6350   9.3929   9.4414   9.9873  10.6688

          k = 0.3750 0.3750 0.3750 (  1082 PWs)   bands (ev):

   -44.7119 -21.3842 -21.3699 -21.3696  -5.3538  -5.1880  -5.1751  -3.9738
    -3.9717  -3.6841  -3.6194  -3.6135   4.1270   5.9066   5.9201   6.6634
     7.0022   7.0122   7.9327  10.6202  10.6389  10.7075

          k = 0.3750-0.1250 0.1250 (  1095 PWs)   bands (ev):

   -44.7144 -21.3758 -21.3311 -21.3169  -5.9677  -5.1864  -5.1257  -4.0864
    -4.0207  -4.0088  -3.9431  -3.8133   3.8750   6.8055   7.3074   7.8063
     8.4011   8.7143   9.3182   9.8950  10.0435  10.8016

          k = 0.3750-0.3750 0.1250 (  1093 PWs)   bands (ev):

   -44.7132 -21.3729 -21.3721 -21.3291  -5.7646  -5.0493  -4.9787  -4.0590
    -4.0167  -3.9615  -3.8740  -3.7294   3.5139   6.7726   6.8102   7.1422
     7.4482   8.6259   9.4128   9.4422   9.9799  10.6898

     highest occupied level (ev):    10.8190

!    total energy              =    -333.18406406 Ry
     estimated scf accuracy    <       0.00000010 Ry

     The total energy is the sum of the following terms:
     one-electron contribution =     -77.03455452 Ry
     hartree contribution      =      66.40144685 Ry
     xc contribution           =     -49.63679715 Ry
     ewald contribution        =    -272.91415923 Ry

     convergence has been achieved in   3 iterations

     Forces acting on atoms (cartesian axes, Ry/au):

     atom    1 type  2   force =     0.00000000    0.00000000   -0.00708612
     atom    2 type  3   force =     0.00000000    0.00000000    0.00911118
     atom    3 type  1   force =     0.00000000    0.00000000   -0.00004332
     atom    4 type  1   force =     0.00000000    0.00000000   -0.00004332
     atom    5 type  1   force =     0.00000000    0.00000000   -0.00193842
     The non-local contrib.  to forces
     atom    1 type  2   force =     0.00000000    0.00000000    0.00336050
     atom    2 type  3   force =     0.00000000    0.00000000   -0.00565351
     atom    3 type  1   force =     0.00000000    0.00000000   -0.03190108
     atom    4 type  1   force =     0.00000000    0.00000000   -0.03190108
     atom    5 type  1   force =     0.00000000    0.00000000    0.11581309
     The ionic contribution  to forces
     atom    1 type  2   force =     0.00000000    0.00000000   -0.40685108
     atom    2 type  3   force =    -0.00000000   -0.00000000    0.91551935
     atom    3 type  1   force =     0.00000000   -0.00000000    0.45372744
     atom    4 type  1   force =    -0.00000000    0.00000000    0.45372744
     atom    5 type  1   force =     0.00000000    0.00000000   -1.41612315
     The local contribution  to forces
     atom    1 type  2   force =    -0.00000000    0.00000000    0.39683762
     atom    2 type  3   force =    -0.00000000   -0.00000000   -0.90178139
     atom    3 type  1   force =     0.00000000   -0.00000000   -0.42219804
     atom    4 type  1   force =    -0.00000000    0.00000000   -0.42219804
     atom    5 type  1   force =    -0.00000000   -0.00000000    1.29874987
     The core correction contribution to forces
     atom    1 type  2   force =     0.00000000    0.00000000    0.00000000
     atom    2 type  3   force =     0.00000000    0.00000000    0.00000000
     atom    3 type  1   force =     0.00000000    0.00000000    0.00000000
     atom    4 type  1   force =     0.00000000    0.00000000    0.00000000
     atom    5 type  1   force =     0.00000000    0.00000000    0.00000000
     The Hubbard contrib.    to forces
     atom    1 type  2   force =     0.00000000    0.00000000    0.00000000
     atom    2 type  3   force =     0.00000000    0.00000000    0.00000000
     atom    3 type  1   force =     0.00000000    0.00000000    0.00000000
     atom    4 type  1   force =     0.00000000    0.00000000    0.00000000
     atom    5 type  1   force =     0.00000000    0.00000000    0.00000000
     The SCF correction term to forces
     atom    1 type  2   force =     0.00000000    0.00000000   -0.00000000
     atom    2 type  3   force =    -0.00000000   -0.00000000    0.00000000
     atom    3 type  1   force =     0.00000000    0.00000000    0.00028478
     atom    4 type  1   force =    -0.00000000    0.00000000    0.00028478
     atom    5 type  1   force =     0.00000000   -0.00000000   -0.00042182

     Total force =     0.001939     Total SCF correction =     0.000583
     SCF correction compared to forces is large: reduce conv_thr to get better values


     Computing stress (Cartesian axis) and pressure

          total   stress  (Ry/bohr**3)                   (kbar)     P=      -21.09
  -0.00015521   0.00000000   0.00000000          -22.83        0.00        0.00
   0.00000000  -0.00015521   0.00000000            0.00      -22.83        0.00
   0.00000000   0.00000000  -0.00011972            0.00        0.00      -17.61

     Energy error            =      5.8E-06 Ry
     Gradient error          =      1.9E-03 Ry/Bohr

     number of scf cycles    =   2
     number of bfgs steps    =   1

     energy             old  =    -333.1840582204 Ry
     energy             new  =    -333.1840640600 Ry

     CASE: energy            _new < energy            _old

     new trust radius        =       0.0028294791 bohr
     new conv_thr            =       0.0000000010 Ry


ATOMIC_POSITIONS (angstrom)
Pb            0.0000000000        0.0000000000        0.0000000000    0   0   0
Ti            1.9400000000        1.9400000000        1.8787400000    0   0   0
O             0.0000000000        1.9400000000        1.9400408377
O             1.9400000000        0.0000000000        1.9400408377
O             1.9400000000        1.9400000000       -0.0028584739



     Writing config-only to output data dir /home/gridsan/epan1/labutil/lab3_samples/problem2/Lab3/PbTiO3_a_3.88_ecut_30_nk_4_displ_-0.015789473684210534/pwscf.save/
     NEW-OLD atomic charge density approx. for the potential

     total cpu time spent up to now is        8.6 secs

     Self-consistent Calculation

     iteration #  1     ecut=    30.00 Ry     beta= 0.70
     Davidson diagonalization with overlap
     ethr =  1.00E-06,  avg # of iterations =  2.0

     Threshold (ethr) on eigenvalues was too large:
     Diagonalizing with lowered threshold

     Davidson diagonalization with overlap
     ethr =  2.21E-09,  avg # of iterations =  6.7

     total cpu time spent up to now is        9.2 secs

     total energy              =    -333.18406760 Ry
     estimated scf accuracy    <       0.00000186 Ry

     iteration #  2     ecut=    30.00 Ry     beta= 0.70
     Davidson diagonalization with overlap
     ethr =  4.22E-09,  avg # of iterations =  4.0

     total cpu time spent up to now is        9.5 secs

     total energy              =    -333.18406787 Ry
     estimated scf accuracy    <       0.00000096 Ry

     iteration #  3     ecut=    30.00 Ry     beta= 0.70
     Davidson diagonalization with overlap
     ethr =  2.19E-09,  avg # of iterations =  4.3

     total cpu time spent up to now is        9.8 secs

     total energy              =    -333.18406810 Ry
     estimated scf accuracy    <       0.00000025 Ry

     iteration #  4     ecut=    30.00 Ry     beta= 0.70
     Davidson diagonalization with overlap
     ethr =  5.65E-10,  avg # of iterations =  4.3

     total cpu time spent up to now is       10.1 secs

     total energy              =    -333.18406815 Ry
     estimated scf accuracy    <          2.6E-09 Ry

     iteration #  5     ecut=    30.00 Ry     beta= 0.70
     Davidson diagonalization with overlap
     ethr =  5.84E-12,  avg # of iterations =  5.7

     total cpu time spent up to now is       10.5 secs

     total energy              =    -333.18406815 Ry
     estimated scf accuracy    <          3.1E-09 Ry

     iteration #  6     ecut=    30.00 Ry     beta= 0.70
     Davidson diagonalization with overlap
     ethr =  5.84E-12,  avg # of iterations =  4.2

     total cpu time spent up to now is       10.9 secs

     End of self-consistent calculation

          k = 0.1250 0.1250 0.1250 (  1096 PWs)   bands (ev):

   -44.7174 -21.3344 -21.3213 -21.3205  -6.3706  -5.3091  -5.2930  -4.0267
    -4.0252  -4.0121  -3.8448  -3.8430   4.6030   7.2604   7.2680   8.0291
     9.0729   9.0938   9.8389   9.8432   9.9391  10.0859

          k = 0.1250 0.1250 0.3750 (  1095 PWs)   bands (ev):

   -44.7162 -21.3912 -21.3191 -21.3181  -5.9566  -5.1723  -5.1446  -4.0872
    -4.0218  -4.0084  -3.9410  -3.8148   3.8690   6.7903   7.2777   7.8074
     8.4144   8.6789   9.3479   9.8927  10.0794  10.8192

          k = 0.1250 0.3750 0.3750 (  1093 PWs)   bands (ev):

   -44.7150 -21.3879 -21.3741 -21.3167  -5.7432  -5.0594  -4.9882  -4.0608
    -4.0172  -3.9635  -3.8747  -3.7221   3.5083   6.7228   6.8401   7.1503
     7.4583   8.6351   9.3940   9.4418   9.9878  10.6697

          k = 0.3750 0.3750 0.3750 (  1082 PWs)   bands (ev):

   -44.7137 -21.3852 -21.3716 -21.3713  -5.3535  -5.1874  -5.1750  -3.9737
    -3.9718  -3.6840  -3.6192  -3.6135   4.1273   5.9073   5.9203   6.6636
     7.0023   7.0120   7.9330  10.6214  10.6395  10.7082

          k = 0.3750-0.1250 0.1250 (  1095 PWs)   bands (ev):

   -44.7162 -21.3775 -21.3321 -21.3186  -5.9672  -5.1857  -5.1256  -4.0863
    -4.0207  -4.0088  -3.9430  -3.8132   3.8753   6.8054   7.3077   7.8065
     8.4014   8.7145   9.3195   9.8957  10.0446  10.8023

          k = 0.3750-0.3750 0.1250 (  1093 PWs)   bands (ev):

   -44.7150 -21.3746 -21.3738 -21.3301  -5.7638  -5.0491  -4.9785  -4.0591
    -4.0167  -3.9615  -3.8739  -3.7292   3.5140   6.7726   6.8101   7.1431
     7.4492   8.6263   9.4133   9.4425   9.9803  10.6901

     highest occupied level (ev):    10.8192

!    total energy              =    -333.18406815 Ry
     estimated scf accuracy    <          2.5E-10 Ry

     The total energy is the sum of the following terms:
     one-electron contribution =     -77.02653693 Ry
     hartree contribution      =      66.39682734 Ry
     xc contribution           =     -49.63629848 Ry
     ewald contribution        =    -272.91806008 Ry

     convergence has been achieved in   6 iterations

     Forces acting on atoms (cartesian axes, Ry/au):

     atom    1 type  2   force =     0.00000000    0.00000000   -0.00685818
     atom    2 type  3   force =     0.00000000    0.00000000    0.00886121
     atom    3 type  1   force =     0.00000000    0.00000000   -0.00040670
     atom    4 type  1   force =     0.00000000    0.00000000   -0.00040670
     atom    5 type  1   force =     0.00000000    0.00000000   -0.00118962
     The non-local contrib.  to forces
     atom    1 type  2   force =     0.00000000    0.00000000    0.00367167
     atom    2 type  3   force =     0.00000000    0.00000000   -0.00571295
     atom    3 type  1   force =     0.00000000    0.00000000   -0.03282200
     atom    4 type  1   force =     0.00000000    0.00000000   -0.03282200
     atom    5 type  1   force =     0.00000000    0.00000000    0.11435374
     The ionic contribution  to forces
     atom    1 type  2   force =     0.00000000    0.00000000   -0.40186080
     atom    2 type  3   force =    -0.00000000   -0.00000000    0.88035759
     atom    3 type  1   force =     0.00000000    0.00000000    0.44939353
     atom    4 type  1   force =     0.00000000    0.00000000    0.44939353
     atom    5 type  1   force =    -0.00000000   -0.00000000   -1.37728384
     The local contribution  to forces
     atom    1 type  2   force =    -0.00000000   -0.00000000    0.39132807
     atom    2 type  3   force =    -0.00000000   -0.00000000   -0.86577378
     atom    3 type  1   force =     0.00000000   -0.00000000   -0.41697191
     atom    4 type  1   force =    -0.00000000    0.00000000   -0.41697191
     atom    5 type  1   force =    -0.00000000   -0.00000000    1.26174525
     The core correction contribution to forces
     atom    1 type  2   force =     0.00000000    0.00000000    0.00000000
     atom    2 type  3   force =     0.00000000    0.00000000    0.00000000
     atom    3 type  1   force =     0.00000000    0.00000000    0.00000000
     atom    4 type  1   force =     0.00000000    0.00000000    0.00000000
     atom    5 type  1   force =     0.00000000    0.00000000    0.00000000
     The Hubbard contrib.    to forces
     atom    1 type  2   force =     0.00000000    0.00000000    0.00000000
     atom    2 type  3   force =     0.00000000    0.00000000    0.00000000
     atom    3 type  1   force =     0.00000000    0.00000000    0.00000000
     atom    4 type  1   force =     0.00000000    0.00000000    0.00000000
     atom    5 type  1   force =     0.00000000    0.00000000    0.00000000
     The SCF correction term to forces
     atom    1 type  2   force =     0.00000000    0.00000000    0.00000000
     atom    2 type  3   force =    -0.00000000   -0.00000000   -0.00000000
     atom    3 type  1   force =    -0.00000000   -0.00000000   -0.00000125
     atom    4 type  1   force =    -0.00000000   -0.00000000   -0.00000125
     atom    5 type  1   force =     0.00000000   -0.00000000    0.00000030

     Total force =     0.001321     Total SCF correction =     0.000002


     Computing stress (Cartesian axis) and pressure

          total   stress  (Ry/bohr**3)                   (kbar)     P=      -21.03
  -0.00015404   0.00000000   0.00000000          -22.66        0.00        0.00
   0.00000000  -0.00015404   0.00000000            0.00      -22.66        0.00
   0.00000000   0.00000000  -0.00012071            0.00        0.00      -17.76

     Energy error            =      4.1E-06 Ry
     Gradient error          =      1.2E-03 Ry/Bohr

     number of scf cycles    =   3
     number of bfgs steps    =   2

     energy             old  =    -333.1840640600 Ry
     energy             new  =    -333.1840681495 Ry

     CASE: energy            _new < energy            _old

     new trust radius        =       0.0042442187 bohr
     new conv_thr            =       0.0000000010 Ry


ATOMIC_POSITIONS (angstrom)
Pb            0.0000000000        0.0000000000        0.0000000000    0   0   0
Ti            1.9400000000        1.9400000000        1.8787400000    0   0   0
O             0.0000000000        1.9400000000        1.9396065168
O             1.9400000000        0.0000000000        1.9396065168
O             1.9400000000        1.9400000000       -0.0051044178



     Writing config-only to output data dir /home/gridsan/epan1/labutil/lab3_samples/problem2/Lab3/PbTiO3_a_3.88_ecut_30_nk_4_displ_-0.015789473684210534/pwscf.save/
     NEW-OLD atomic charge density approx. for the potential

     total cpu time spent up to now is       12.1 secs

     Self-consistent Calculation

     iteration #  1     ecut=    30.00 Ry     beta= 0.70
     Davidson diagonalization with overlap
     ethr =  1.00E-06,  avg # of iterations =  2.2

     Threshold (ethr) on eigenvalues was too large:
     Diagonalizing with lowered threshold

     Davidson diagonalization with overlap
     ethr =  3.37E-09,  avg # of iterations =  7.3

     total cpu time spent up to now is       12.8 secs

     total energy              =    -333.18407148 Ry
     estimated scf accuracy    <       0.00000302 Ry

     iteration #  2     ecut=    30.00 Ry     beta= 0.70
     Davidson diagonalization with overlap
     ethr =  6.87E-09,  avg # of iterations =  4.2

     total cpu time spent up to now is       13.1 secs

     total energy              =    -333.18407177 Ry
     estimated scf accuracy    <       0.00000111 Ry

     iteration #  3     ecut=    30.00 Ry     beta= 0.70
     Davidson diagonalization with overlap
     ethr =  2.52E-09,  avg # of iterations =  4.8

     total cpu time spent up to now is       13.4 secs

     total energy              =    -333.18407204 Ry
     estimated scf accuracy    <       0.00000061 Ry

     iteration #  4     ecut=    30.00 Ry     beta= 0.70
     Davidson diagonalization with overlap
     ethr =  1.38E-09,  avg # of iterations =  4.0

     total cpu time spent up to now is       13.7 secs

     total energy              =    -333.18407214 Ry
     estimated scf accuracy    <       0.00000001 Ry

     iteration #  5     ecut=    30.00 Ry     beta= 0.70
     Davidson diagonalization with overlap
     ethr =  2.62E-11,  avg # of iterations =  6.3

     total cpu time spent up to now is       14.1 secs

     total energy              =    -333.18407215 Ry
     estimated scf accuracy    <       0.00000003 Ry

     iteration #  6     ecut=    30.00 Ry     beta= 0.70
     Davidson diagonalization with overlap
     ethr =  2.62E-11,  avg # of iterations =  4.2

     total cpu time spent up to now is       14.4 secs

     total energy              =    -333.18407215 Ry
     estimated scf accuracy    <          6.4E-09 Ry

     iteration #  7     ecut=    30.00 Ry     beta= 0.70
     Davidson diagonalization with overlap
     ethr =  1.45E-11,  avg # of iterations =  4.7

     total cpu time spent up to now is       14.8 secs

     End of self-consistent calculation

          k = 0.1250 0.1250 0.1250 (  1096 PWs)   bands (ev):

   -44.7188 -21.3348 -21.3227 -21.3220  -6.3708  -5.3086  -5.2935  -4.0264
    -4.0250  -4.0119  -3.8446  -3.8429   4.6033   7.2605   7.2676   8.0289
     9.0744   9.0944   9.8393   9.8466   9.9385  10.0852

          k = 0.1250 0.1250 0.3750 (  1095 PWs)   bands (ev):

   -44.7176 -21.3915 -21.3205 -21.3196  -5.9571  -5.1728  -5.1438  -4.0869
    -4.0215  -4.0082  -3.9408  -3.8145   3.8697   6.7905   7.2787   7.8068
     8.4143   8.6805   9.3478   9.8931  10.0788  10.8189

          k = 0.1250 0.3750 0.3750 (  1093 PWs)   bands (ev):

   -44.7164 -21.3883 -21.3756 -21.3181  -5.7436  -5.0590  -4.9881  -4.0605
    -4.0169  -3.9632  -3.8745  -3.7220   3.5087   6.7244   6.8388   7.1501
     7.4582   8.6347   9.3950   9.4418   9.9881  10.6704

          k = 0.3750 0.3750 0.3750 (  1082 PWs)   bands (ev):

   -44.7151 -21.3856 -21.3730 -21.3728  -5.3534  -5.1870  -5.1754  -3.9734
    -3.9716  -3.6837  -3.6188  -3.6135   4.1275   5.9079   5.9202   6.6634
     7.0021   7.0111   7.9334  10.6223  10.6395  10.7084

          k = 0.3750-0.1250 0.1250 (  1095 PWs)   bands (ev):

   -44.7176 -21.3789 -21.3325 -21.3200  -5.9671  -5.1854  -5.1260  -4.0861
    -4.0205  -4.0085  -3.9427  -3.8130   3.8755   6.8049   7.3077   7.8064
     8.4015   8.7143   9.3209   9.8961  10.0457  10.8029

          k = 0.3750-0.3750 0.1250 (  1093 PWs)   bands (ev):

   -44.7164 -21.3761 -21.3752 -21.3305  -5.7631  -5.0494  -4.9790  -4.0589
    -4.0165  -3.9614  -3.8737  -3.7287   3.5140   6.7722   6.8096   7.1438
     7.4502   8.6264   9.4133   9.4424   9.9806  10.6897

     highest occupied level (ev):    10.8189

!    total energy              =    -333.18407216 Ry
     estimated scf accuracy    <          2.5E-10 Ry

     The total energy is the sum of the following terms:
     one-electron contribution =     -77.01641113 Ry
     hartree contribution      =      66.39129470 Ry
     xc contribution           =     -49.63590199 Ry
     ewald contribution        =    -272.92305374 Ry

     convergence has been achieved in   7 iterations

     Forces acting on atoms (cartesian axes, Ry/au):

     atom    1 type  2   force =     0.00000000    0.00000000   -0.00689655
     atom    2 type  3   force =     0.00000000    0.00000000    0.00867909
     atom    3 type  1   force =     0.00000000    0.00000000   -0.00076038
     atom    4 type  1   force =     0.00000000    0.00000000   -0.00076038
     atom    5 type  1   force =     0.00000000    0.00000000   -0.00026177
     The non-local contrib.  to forces
     atom    1 type  2   force =     0.00000000    0.00000000    0.00396663
     atom    2 type  3   force =     0.00000000    0.00000000   -0.00570820
     atom    3 type  1   force =     0.00000000    0.00000000   -0.03406090
     atom    4 type  1   force =     0.00000000    0.00000000   -0.03406090
     atom    5 type  1   force =     0.00000000    0.00000000    0.11178949
     The ionic contribution  to forces
     atom    1 type  2   force =     0.00000000    0.00000000   -0.39972157
     atom    2 type  3   force =    -0.00000000   -0.00000000    0.83342712
     atom    3 type  1   force =     0.00000000    0.00000000    0.44381376
     atom    4 type  1   force =     0.00000000    0.00000000    0.44381376
     atom    5 type  1   force =    -0.00000000   -0.00000000   -1.32133308
     The local contribution  to forces
     atom    1 type  2   force =    -0.00000000   -0.00000000    0.38887074
     atom    2 type  3   force =    -0.00000000   -0.00000000   -0.81905847
     atom    3 type  1   force =     0.00000000   -0.00000000   -0.41051352
     atom    4 type  1   force =    -0.00000000    0.00000000   -0.41051352
     atom    5 type  1   force =    -0.00000000   -0.00000000    1.20929029
     The core correction contribution to forces
     atom    1 type  2   force =     0.00000000    0.00000000    0.00000000
     atom    2 type  3   force =     0.00000000    0.00000000    0.00000000
     atom    3 type  1   force =     0.00000000    0.00000000    0.00000000
     atom    4 type  1   force =     0.00000000    0.00000000    0.00000000
     atom    5 type  1   force =     0.00000000    0.00000000    0.00000000
     The Hubbard contrib.    to forces
     atom    1 type  2   force =     0.00000000    0.00000000    0.00000000
     atom    2 type  3   force =     0.00000000    0.00000000    0.00000000
     atom    3 type  1   force =     0.00000000    0.00000000    0.00000000
     atom    4 type  1   force =     0.00000000    0.00000000    0.00000000
     atom    5 type  1   force =     0.00000000    0.00000000    0.00000000
     The SCF correction term to forces
     atom    1 type  2   force =    -0.00000000   -0.00000000   -0.00000000
     atom    2 type  3   force =     0.00000000   -0.00000000    0.00000000
     atom    3 type  1   force =    -0.00000000    0.00000000    0.00000390
     atom    4 type  1   force =     0.00000000    0.00000000    0.00000390
     atom    5 type  1   force =     0.00000000   -0.00000000   -0.00000485

     Total force =     0.001107     Total SCF correction =     0.000007


     Computing stress (Cartesian axis) and pressure

          total   stress  (Ry/bohr**3)                   (kbar)     P=      -21.30
  -0.00015496   0.00000000   0.00000000          -22.80        0.00        0.00
   0.00000000  -0.00015496   0.00000000            0.00      -22.80        0.00
   0.00000000   0.00000000  -0.00012454            0.00        0.00      -18.32

     Energy error            =      4.0E-06 Ry
     Gradient error          =      7.6E-04 Ry/Bohr

     bfgs converged in   4 scf cycles and   3 bfgs steps
     (criteria: energy <  1.0E-04 Ry, force <  1.0E-03 Ry/Bohr)

     End of BFGS Geometry Optimization

     Final energy             =    -333.1840721560 Ry

     File /home/gridsan/epan1/labutil/lab3_samples/problem2/Lab3/PbTiO3_a_3.88_ecut_30_nk_4_displ_-0.015789473684210534/pwscf.bfgs deleted, as requested
Begin final coordinates

ATOMIC_POSITIONS (angstrom)
Pb            0.0000000000        0.0000000000        0.0000000000    0   0   0
Ti            1.9400000000        1.9400000000        1.8787400000    0   0   0
O             0.0000000000        1.9400000000        1.9396065168
O             1.9400000000        0.0000000000        1.9396065168
O             1.9400000000        1.9400000000       -0.0051044178
End final coordinates



     init_run     :      0.72s CPU      0.70s WALL (       1 calls)
     electrons    :     12.18s CPU     10.22s WALL (       4 calls)
     update_pot   :      0.09s CPU      0.11s WALL (       3 calls)
     forces       :      0.55s CPU      0.44s WALL (       4 calls)
     stress       :      4.25s CPU      3.58s WALL (       4 calls)

     Called by init_run:
     wfcinit      :      0.09s CPU      0.08s WALL (       1 calls)
     potinit      :      0.04s CPU      0.04s WALL (       1 calls)
     hinit0       :      0.47s CPU      0.47s WALL (       1 calls)

     Called by electrons:
     c_bands      :      7.00s CPU      5.64s WALL (      32 calls)
     sum_band     :      3.25s CPU      2.88s WALL (      32 calls)
     v_of_rho     :      0.10s CPU      0.10s WALL (      33 calls)
     newd         :      1.99s CPU      1.70s WALL (      33 calls)
     mix_rho      :      0.06s CPU      0.06s WALL (      32 calls)

     Called by c_bands:
     init_us_2    :      0.21s CPU      0.19s WALL (     438 calls)
     init_us_2:cp :      0.21s CPU      0.19s WALL (     438 calls)
     cegterg      :      6.46s CPU      5.13s WALL (     192 calls)

     Called by *egterg:
     cdiaghg      :      1.11s CPU      0.89s WALL (     973 calls)
     h_psi        :      4.37s CPU      3.50s WALL (    1015 calls)
     s_psi        :      0.19s CPU      0.15s WALL (    1015 calls)
     g_psi        :      0.04s CPU      0.03s WALL (     817 calls)

     Called by h_psi:
     h_psi:calbec :      0.27s CPU      0.22s WALL (    1015 calls)
     vloc_psi     :      3.88s CPU      3.11s WALL (    1015 calls)
     add_vuspsi   :      0.20s CPU      0.16s WALL (    1015 calls)

     General routines
     calbec       :      0.37s CPU      0.30s WALL (    1327 calls)
     fft          :      0.34s CPU      0.31s WALL (     216 calls)
     ffts         :      0.04s CPU      0.04s WALL (      65 calls)
     fftw         :      3.65s CPU      2.96s WALL (   29772 calls)
     interpolate  :      0.07s CPU      0.06s WALL (      33 calls)

     Parallel routines

     PWSCF        :     18.39s CPU     15.85s WALL


   This run was terminated on:  18: 5:29   2Nov2023            

=------------------------------------------------------------------------------=
   JOB DONE.
=------------------------------------------------------------------------------=
