Header of the LAMMPS data file 

4 atoms 
1 atom types

0.0 4.219191919191919  xlo xhi
0.0 4.219191919191919  ylo yhi
0.0 4.219191919191919  zlo zhi

Masses 

1  107.8682

Atoms # atomic 

1 1 0.00000 0.00000 0.00000 
2 1 0.00000 2.10960 2.10960 
3 1 2.10960 0.00000 2.10960 
4 1 2.10960 2.10960 0.00000 
