LAMMPS (29 Oct 2020)
Reading data file ...
  orthogonal box = (0.0000000 0.0000000 0.0000000) to (32.720000 32.720000 32.720000)
  1 by 1 by 1 MPI processor grid
  reading atoms ...
  2048 atoms
  read_data CPU = 0.002 seconds
Reading eam potential file /home/gridsan/epan1/3320_atomistic_shared/lammps/potentials/Ag_u3.eam with DATE: 2007-06-11
WARNING: Using 'neigh_modify every 1 delay 0 check yes' setting during minimization (../min.cpp:187)
Neighbor list info ...
  update every 1 steps, delay 0 steps, check yes
  max neighbors/atom: 2000, page size: 100000
  master list distance cutoff = 7.55
  ghost atom cutoff = 7.55
  binsize = 3.775, bins = 9 9 9
  1 neighbor lists, perpetual/occasional/extra = 1 0 0
  (1) pair eam, perpetual
      attributes: half, newton on
      pair build: half/bin/atomonly/newton
      stencil: half/bin/3d/newton
      bin: standard
Setting up cg style minimization ...
  Unit style    : metal
  Current step  : 0
WARNING: Energy due to 1 extra global DOFs will be included in minimizer energies
Per MPI rank memory allocation (min/avg/max) = 4.620 | 4.620 | 4.620 Mbytes
Step PotEng Lx Ly Lz Press Pxx Pyy Pzz 
       0      -5836.8        32.72        32.72        32.72 -0.058146225 -0.058146225 -0.058146225 -0.058146225 
       1      -5836.8    32.719999    32.719999    32.719999 -0.00033946216 -0.00033946216 -0.00033946216 -0.00033946216 
Loop time of 0.0883181 on 1 procs for 1 steps with 2048 atoms

9.2% CPU use with 1 MPI tasks x no OpenMP threads

Minimization stats:
  Stopping criterion = energy tolerance
  Energy initial, next-to-last, final = 
     -5836.80000320207  -5836.80000320207  -5836.80000321154
  Force two-norm initial, final = 0.0038139264 2.2265997e-05
  Force max component initial, final = 0.0038139264 2.2265997e-05
  Final line search alpha, max atom move = 0.26219699 5.8380772e-06
  Iterations, force evaluations = 1 2

MPI task timing breakdown:
Section |  min time  |  avg time  |  max time  |%varavg| %total
---------------------------------------------------------------
Pair    | 0.087914   | 0.087914   | 0.087914   |   0.0 | 99.54
Neigh   | 0          | 0          | 0          |   0.0 |  0.00
Comm    | 7.9632e-05 | 7.9632e-05 | 7.9632e-05 |   0.0 |  0.09
Output  | 0          | 0          | 0          |   0.0 |  0.00
Modify  | 0          | 0          | 0          |   0.0 |  0.00
Other   |            | 0.0003247  |            |       |  0.37

Nlocal:        2048.00 ave        2048 max        2048 min
Histogram: 1 0 0 0 0 0 0 0 0 0
Nghost:        4035.00 ave        4035 max        4035 min
Histogram: 1 0 0 0 0 0 0 0 0 0
Neighs:        88064.0 ave       88064 max       88064 min
Histogram: 1 0 0 0 0 0 0 0 0 0

Total # of neighbors = 88064
Ave neighs/atom = 43.000000
Neighbor list builds = 0
Dangerous builds = 0
Total energy (eV) = -5836.80000321154
Number of atoms = 2048
Lattice constant (Angstoms) = 32.719999392252
Total wall time: 0:00:00
