LAMMPS (29 Oct 2020)
Reading data file ...
  orthogonal box = (0.0000000 0.0000000 0.0000000) to (36.810000 36.810000 36.810000)
  1 by 1 by 1 MPI processor grid
  reading atoms ...
  2916 atoms
  read_data CPU = 0.002 seconds
Reading eam potential file /home/gridsan/epan1/3320_atomistic_shared/lammps/potentials/Ag_u3.eam with DATE: 2007-06-11
WARNING: No fixes defined, atoms won't move (../verlet.cpp:54)
Neighbor list info ...
  update every 1 steps, delay 10 steps, check yes
  max neighbors/atom: 2000, page size: 100000
  master list distance cutoff = 7.55
  ghost atom cutoff = 7.55
  binsize = 3.775, bins = 10 10 10
  1 neighbor lists, perpetual/occasional/extra = 1 0 0
  (1) pair eam, perpetual
      attributes: half, newton on
      pair build: half/bin/atomonly/newton
      stencil: half/bin/3d/newton
      bin: standard
Setting up Verlet run ...
  Unit style    : metal
  Current step  : 0
  Time step     : 0.001
Per MPI rank memory allocation (min/avg/max) = 3.918 | 3.918 | 3.918 Mbytes
Step PotEng Lx Ly Lz Press Pxx Pyy Pzz 
       0   -8310.5996        36.81        36.81        36.81 0.0053816254 0.0053816254 0.0053816254 0.0053816254 
Loop time of 9.53674e-07 on 1 procs for 0 steps with 2916 atoms

104.9% CPU use with 1 MPI tasks x no OpenMP threads

MPI task timing breakdown:
Section |  min time  |  avg time  |  max time  |%varavg| %total
---------------------------------------------------------------
Pair    | 0          | 0          | 0          |   0.0 |  0.00
Neigh   | 0          | 0          | 0          |   0.0 |  0.00
Comm    | 0          | 0          | 0          |   0.0 |  0.00
Output  | 0          | 0          | 0          |   0.0 |  0.00
Modify  | 0          | 0          | 0          |   0.0 |  0.00
Other   |            | 9.537e-07  |            |       |100.00

Nlocal:        2916.00 ave        2916 max        2916 min
Histogram: 1 0 0 0 0 0 0 0 0 0
Nghost:        4896.00 ave        4896 max        4896 min
Histogram: 1 0 0 0 0 0 0 0 0 0
Neighs:       125388.0 ave      125388 max      125388 min
Histogram: 1 0 0 0 0 0 0 0 0 0

Total # of neighbors = 125388
Ave neighs/atom = 43.000000
Neighbor list builds = 0
Dangerous builds = 0
WARNING: Using 'neigh_modify every 1 delay 0 check yes' setting during minimization (../min.cpp:187)
Setting up cg style minimization ...
  Unit style    : metal
  Current step  : 0
WARNING: Energy due to 1 extra global DOFs will be included in minimizer energies
Per MPI rank memory allocation (min/avg/max) = 5.043 | 5.043 | 5.043 Mbytes
Step PotEng Lx Ly Lz Press Pxx Pyy Pzz 
       0   -8310.5996        36.81        36.81        36.81 0.0053816254 0.0053816254 0.0053816254 0.0053816254 
       3      -8310.6    36.809999    36.809999    36.809999 -0.0058907334 -0.0058907334 -0.0058907334 -0.0058907334 
Loop time of 0.022646 on 1 procs for 3 steps with 2916 atoms

100.0% CPU use with 1 MPI tasks x no OpenMP threads

Minimization stats:
  Stopping criterion = energy tolerance
  Energy initial, next-to-last, final = 
     -8310.59958477005  -8310.59998760865  -8310.59998767396
  Force two-norm initial, final = 0.094879953 0.011066267
  Force max component initial, final = 0.0010934163 0.00055014568
  Final line search alpha, max atom move = 0.0050267678 2.7654546e-06
  Iterations, force evaluations = 3 6

MPI task timing breakdown:
Section |  min time  |  avg time  |  max time  |%varavg| %total
---------------------------------------------------------------
Pair    | 0.021646   | 0.021646   | 0.021646   |   0.0 | 95.58
Neigh   | 0          | 0          | 0          |   0.0 |  0.00
Comm    | 0.0001297  | 0.0001297  | 0.0001297  |   0.0 |  0.57
Output  | 0          | 0          | 0          |   0.0 |  0.00
Modify  | 0          | 0          | 0          |   0.0 |  0.00
Other   |            | 0.0008702  |            |       |  3.84

Nlocal:        2916.00 ave        2916 max        2916 min
Histogram: 1 0 0 0 0 0 0 0 0 0
Nghost:        4896.00 ave        4896 max        4896 min
Histogram: 1 0 0 0 0 0 0 0 0 0
Neighs:       125388.0 ave      125388 max      125388 min
Histogram: 1 0 0 0 0 0 0 0 0 0

Total # of neighbors = 125388
Ave neighs/atom = 43.000000
Neighbor list builds = 0
Dangerous builds = 0
Total energy (eV) = -8310.59998767396
Number of atoms = 2916
Lattice constant (Angstoms) = 36.8099994076372
Total wall time: 0:00:00
