LAMMPS (29 Oct 2020)
Reading data file ...
  orthogonal box = (0.0000000 0.0000000 0.0000000) to (20.500000 20.500000 20.500000)
  1 by 1 by 1 MPI processor grid
  reading atoms ...
  500 atoms
  read_data CPU = 0.003 seconds
Reading eam potential file /home/gridsan/epan1/3320_atomistic_shared/lammps/potentials/Ag_u3.eam with DATE: 2007-06-11
Neighbor list info ...
  update every 1 steps, delay 10 steps, check yes
  max neighbors/atom: 2000, page size: 100000
  master list distance cutoff = 7.55
  ghost atom cutoff = 7.55
  binsize = 3.775, bins = 6 6 6
  2 neighbor lists, perpetual/occasional/extra = 1 1 0
  (1) pair eam, perpetual
      attributes: half, newton on
      pair build: half/bin/atomonly/newton
      stencil: half/bin/3d/newton
      bin: standard
  (2) compute rdf, occasional, copy from (1)
      attributes: half, newton on
      pair build: copy
      stencil: none
      bin: none
Setting up Verlet run ...
  Unit style    : metal
  Current step  : 0
  Time step     : 0.001
Per MPI rank memory allocation (min/avg/max) = 3.769 | 3.769 | 3.769 Mbytes
Step PotEng KinEng TotEng Temp Press Density c_msdall[4] 
       0   -1424.8524    167.70211   -1257.1503         2600    13326.876    10.395806            0 
     100   -1321.0643    98.077979   -1222.9863    1520.5697    80539.592    10.395806    0.1584378 
     200   -1288.9937    140.30519   -1148.6885    2175.2468    108712.83    10.395806   0.22964651 
     300   -1246.1956    170.66541   -1075.5302     2645.942    139547.91    10.395806   0.28831032 
     400   -1245.7991    171.12901     -1074.67    2653.1295    141704.18    10.395806   0.33087238 
     500   -1246.2946    160.17295   -1086.1217    2483.2703    140088.13    10.395806   0.37515822 
     600   -1231.1162    172.25282   -1058.8634    2670.5527    151358.36    10.395806   0.39883471 
     700   -1238.7422    165.44941   -1073.2928    2565.0749    145875.73    10.395806   0.41582993 
     800   -1249.9466    171.24474   -1078.7018    2654.9238    137912.93    10.395806   0.41376247 
     900   -1243.5826    166.20102   -1077.3816    2576.7276    142096.62    10.395806   0.44352642 
    1000   -1230.0558    173.17784    -1056.878    2684.8939    151729.13    10.395806   0.48282347 
    1100   -1227.9282     167.2207   -1060.7075    2592.5363    151750.22    10.395806   0.48203192 
    1200   -1242.0905    163.82115   -1078.2693    2539.8308    142275.22    10.395806    0.5071831 
    1300   -1242.5002    179.15972   -1063.3405    2777.6351    143983.57    10.395806   0.52923781 
    1400   -1231.2169    167.09075   -1064.1262    2590.5217    149906.82    10.395806   0.56958836 
    1500   -1226.1724    174.76329   -1051.4091    2709.4742    154190.06    10.395806   0.56086979 
    1600   -1244.3724    170.52212   -1073.8503    2643.7205    141853.64    10.395806   0.54654976 
    1700   -1237.1778    157.87653   -1079.3013    2447.6673    145646.32    10.395806   0.56732533 
    1800   -1226.1245    171.93925   -1054.1853    2665.6912    154667.56    10.395806   0.60700663 
    1900   -1227.8441     162.9099   -1064.9342     2525.703    151257.82    10.395806   0.62085875 
    2000   -1232.8971     165.3505   -1067.5466    2563.5413    150152.16    10.395806   0.66325492 
    2100    -1220.686    170.51272   -1050.1733    2643.5748    158270.16    10.395806   0.69129903 
    2200   -1221.2884    155.20448   -1066.0839    2406.2407    156417.79    10.395806   0.76158234 
    2300   -1222.7374    171.20448   -1051.5329    2654.2996    157439.63    10.395806   0.82422959 
    2400   -1212.3244    159.24825   -1053.0761     2468.934    161037.84    10.395806   0.91945434 
    2500   -1212.2712    161.07876   -1051.1925    2497.3137    163139.16    10.395806    1.0582999 
    2600   -1219.0988    157.52174    -1061.577    2442.1668    156593.47    10.395806    1.1230966 
    2700   -1219.6768    174.14375   -1045.5331    2699.8691    159413.64    10.395806    1.1667351 
    2800   -1218.4812    160.82462   -1057.6566    2493.3735    158234.01    10.395806    1.2028529 
    2900   -1211.7622    174.09936   -1037.6628    2699.1809    164419.16    10.395806    1.2555144 
    3000   -1206.5538    161.34606   -1045.2078    2501.4578    166293.81    10.395806    1.3968786 
    3100   -1207.6476    157.30369   -1050.3439    2438.7862     165493.1    10.395806    1.5164246 
    3200   -1210.8133    176.07452   -1034.7387    2729.8031    164682.21    10.395806    1.5741243 
    3300   -1209.7811     161.7168   -1048.0643    2507.2056    164371.87    10.395806    1.6988799 
    3400   -1200.6958    164.47234   -1036.2234    2549.9267    171204.62    10.395806    1.9282492 
    3500   -1194.6461    173.38111    -1021.265    2688.0454    175630.77    10.395806    2.0828405 
    3600   -1193.9265      157.819   -1036.1075    2446.7753    173929.72    10.395806    2.2527285 
    3700   -1203.9549     168.3228   -1035.6321    2609.6229    169854.49    10.395806     2.416747 
    3800   -1185.8234    165.67067   -1020.1527    2568.5052    180099.28    10.395806    2.6778554 
    3900   -1198.2644    173.00415   -1025.2602    2682.2012    174231.63    10.395806    2.8997028 
    4000   -1194.3978    162.40929   -1031.9885    2517.9418    174961.58    10.395806    3.1731994 
    4100   -1186.1072    161.25275   -1024.8544    2500.0112    177019.18    10.395806    3.3873576 
    4200   -1198.1901    159.29768   -1038.8925    2469.7004    171694.76    10.395806     3.529966 
    4300   -1207.4605    170.98477   -1036.4757    2650.8934    169536.38    10.395806    3.6968425 
    4400   -1185.6635      162.118   -1023.5455    2513.4257    179924.31    10.395806    3.9292536 
    4500   -1175.8373     169.0479   -1006.7894    2620.8646    187153.95    10.395806    4.1353437 
    4600   -1195.1926    166.31344   -1028.8792    2578.4705    175162.93    10.395806    4.3132711 
    4700   -1189.3202    162.06574   -1027.2545    2512.6156    177545.07    10.395806    4.5291611 
    4800   -1186.1662    174.34957   -1011.8166      2703.06    180440.12    10.395806    4.6761291 
    4900   -1181.6526    164.10963    -1017.543    2544.3034     181939.8    10.395806    5.0300599 
    5000   -1190.0802    170.12593   -1019.9542    2637.5781    177943.11    10.395806    5.0818814 
    5100   -1199.3572    161.31069   -1038.0465    2500.9095    171060.74    10.395806    5.3530381 
    5200   -1198.2642    165.57502   -1032.6892    2567.0222    171755.32    10.395806    5.6877395 
    5300   -1196.0386    173.64621   -1022.3924    2692.1555    174497.74    10.395806     5.899167 
    5400   -1201.8144     171.5694    -1030.245    2659.9572    170355.44    10.395806    6.2152958 
    5500   -1207.2941    160.22288   -1047.0712    2484.0444    168241.11    10.395806    6.4798577 
    5600   -1197.6584    172.13726   -1025.5212    2668.7611    173210.85    10.395806    6.8158067 
    5700    -1202.512    171.87107   -1030.6409    2664.6342    172361.68    10.395806    7.1442692 
    5800   -1203.0259    154.94662   -1048.0793    2402.2429    168351.02    10.395806    7.2078129 
    5900   -1201.0085    170.96556   -1030.0429    2650.5955    172688.92    10.395806    7.4315118 
    6000   -1196.8742    176.67737   -1020.1968    2739.1496    175608.93    10.395806    7.7967076 
    6100   -1202.0777    166.31413   -1035.7636    2578.4811    170661.19    10.395806    8.0296926 
    6200   -1196.9222    168.45735   -1028.4648     2611.709    173608.82    10.395806    8.3791914 
    6300   -1183.8314    159.61335   -1024.2181    2474.5944    183395.43    10.395806    8.7305102 
    6400   -1193.2528    172.30725   -1020.9455    2671.3965    176552.55    10.395806     8.952594 
    6500   -1195.9948    157.19597   -1038.7988    2437.1162     174510.3    10.395806    9.2623583 
    6600   -1184.2522     169.9025   -1014.3497    2634.1141    182592.19    10.395806    9.4411364 
    6700   -1183.2954    169.67003   -1013.6253      2630.51    182933.98    10.395806     9.673538 
    6800   -1196.4072    166.95329    -1029.454    2588.3906    173006.51    10.395806    9.8097022 
    6900   -1200.0505    163.94337   -1036.1071    2541.7257    171931.32    10.395806    9.9252871 
    7000   -1197.6829    176.19773   -1021.4852    2731.7134    175911.32    10.395806    10.238651 
    7100   -1203.7878    169.07381    -1034.714    2621.2664    170087.18    10.395806     10.54913 
    7200    -1203.525    151.37917   -1052.1458    2346.9343    169775.72    10.395806    10.866875 
    7300   -1200.7551    171.64743   -1029.1077    2661.1669    172181.22    10.395806      11.0534 
    7400   -1195.7596    165.80411   -1029.9555     2570.574    175765.95    10.395806    11.285597 
    7500   -1194.3521    166.02148   -1028.3307    2573.9439    174316.84    10.395806    11.485871 
    7600   -1194.2701    177.18257   -1017.0876    2746.9821    176152.67    10.395806    11.822614 
    7700   -1197.3372    160.06714     -1037.27    2481.6299     173848.2    10.395806    12.048522 
    7800   -1195.1437     172.0007    -1023.143    2666.6439    174949.94    10.395806    12.248333 
    7900   -1194.1226     167.4627   -1026.6599    2596.2883    176795.51    10.395806    12.417537 
    8000   -1191.0543    169.77973   -1021.2746    2632.2107    177198.12    10.395806    12.371809 
    8100   -1199.0464    165.40151   -1033.6449    2564.3322    174422.68    10.395806    12.451897 
    8200   -1190.1307    169.07027   -1021.0604    2621.2115    176139.81    10.395806    12.805639 
    8300   -1189.8714    165.93696   -1023.9345    2572.6336    179011.83    10.395806    12.853283 
    8400   -1189.1965    159.81593   -1029.3806    2477.7351    179055.37    10.395806    13.137378 
    8500   -1181.4554     168.6251   -1012.8303    2614.3097    182162.45    10.395806    13.465289 
    8600   -1191.6907    168.24286   -1023.4479    2608.3835    179335.38    10.395806    13.828082 
    8700   -1192.8018    155.73524   -1037.0665    2414.4694    176671.53    10.395806    13.965357 
    8800    -1187.947     167.2098   -1020.7372    2592.3673    177927.97    10.395806    14.245526 
    8900   -1190.5271    163.39836   -1027.1287     2533.276    176946.54    10.395806    14.610675 
    9000   -1200.2614    159.10444   -1041.1569    2466.7045    171018.16    10.395806    14.740822 
    9100   -1199.0207    176.34883   -1022.6718    2734.0559    172611.74    10.395806    14.881997 
    9200   -1199.1597     166.3978   -1032.7619    2579.7783    171865.82    10.395806    15.321837 
    9300    -1191.453     158.3489   -1033.1041    2454.9908    174215.35    10.395806    15.784589 
    9400   -1190.7839    170.93704   -1019.8468    2650.1533    176085.09    10.395806    16.079702 
    9500   -1194.1927    168.69346   -1025.4993    2615.3696    174719.75    10.395806    16.388554 
    9600   -1203.7582     167.1975   -1036.5607    2592.1767    169980.72    10.395806    16.784376 
    9700   -1196.1226    169.15145   -1026.9711    2622.4701    174378.75    10.395806    17.258532 
    9800   -1186.9061    163.10286   -1023.8033    2528.6946    179698.61    10.395806    17.640979 
    9900   -1194.8357    158.46049   -1036.3752    2456.7208    172865.74    10.395806    18.061986 
   10000   -1198.1267    168.92217   -1029.2046    2618.9154     172689.2    10.395806    18.375236 
Loop time of 14.7503 on 1 procs for 10000 steps with 500 atoms

Performance: 58.575 ns/day, 0.410 hours/ns, 677.952 timesteps/s
99.9% CPU use with 1 MPI tasks x no OpenMP threads

MPI task timing breakdown:
Section |  min time  |  avg time  |  max time  |%varavg| %total
---------------------------------------------------------------
Pair    | 9.0495     | 9.0495     | 9.0495     |   0.0 | 61.35
Neigh   | 0.16008    | 0.16008    | 0.16008    |   0.0 |  1.09
Comm    | 0.10586    | 0.10586    | 0.10586    |   0.0 |  0.72
Output  | 0.0042424  | 0.0042424  | 0.0042424  |   0.0 |  0.03
Modify  | 5.4033     | 5.4033     | 5.4033     |   0.0 | 36.63
Other   |            | 0.02739    |            |       |  0.19

Nlocal:        500.000 ave         500 max         500 min
Histogram: 1 0 0 0 0 0 0 0 0 0
Nghost:        2145.00 ave        2145 max        2145 min
Histogram: 1 0 0 0 0 0 0 0 0 0
Neighs:        26012.0 ave       26012 max       26012 min
Histogram: 1 0 0 0 0 0 0 0 0 0

Total # of neighbors = 26012
Ave neighs/atom = 52.024000
Neighbor list builds = 156
Dangerous builds = 0
Total wall time: 0:00:15
