
     Program PWSCF v.7.2 starts on 11Oct2023 at 14: 0:22 

     This program is part of the open-source Quantum ESPRESSO suite
     for quantum simulation of materials; please cite
         "P. Giannozzi et al., J. Phys.:Condens. Matter 21 395502 (2009);
         "P. Giannozzi et al., J. Phys.:Condens. Matter 29 465901 (2017);
         "P. Giannozzi et al., J. Chem. Phys. 152 154105 (2020);
          URL http://www.quantum-espresso.org", 
     in publications or presentations arising from this work. More details at
     http://www.quantum-espresso.org/quote

     Parallel version (MPI), running on     1 processors

     MPI processes distributed on     1 nodes
     41769 MiB available memory on the printing compute node when the environment starts

     Waiting for input...
     Reading input from standard input
Warning: card &CELL ignored
Warning: card / ignored

     Current dimensions of program PWSCF are:
     Max number of different atomic species (ntypx) = 10
     Max number of k-points (npk) =  40000
     Max angular momentum in pseudopotentials (lmaxx) =  4
     file Ge.pz-dn-rrkjus_psl.0.2.2.UPF: wavefunction(s)  3D renormalized
     Message from routine find_sym:
     Not a group! Trying with lower acceptance parameter...
     Message from routine find_sym:
     Still not a group! symmetry disabled

     Subspace diagonalization in iterative solution of the eigenvalue problem:
     a serial algorithm will be used


     G-vector sticks info
     --------------------
     sticks:   dense  smooth     PW     G-vecs:    dense   smooth      PW
     Sum          85      85     37                  459      459     137

     Using Slab Decomposition



     bravais-lattice index     =            0
     lattice parameter (alat)  =       7.6014  a.u.
     unit-cell volume          =     310.5738 (a.u.)^3
     number of atoms/cell      =            2
     number of atomic types    =            1
     number of electrons       =        28.00
     number of Kohn-Sham states=           14
     kinetic-energy cutoff     =       5.0000  Ry
     charge density cutoff     =      20.0000  Ry
     scf convergence threshold =      1.0E-07
     mixing beta               =       0.5000
     number of iterations used =            8  plain     mixing
     Exchange-correlation= LDA
                           (   1   1   0   0   0   0   0)

     celldm(1)=   7.601395  celldm(2)=   0.000000  celldm(3)=   0.000000
     celldm(4)=   0.000000  celldm(5)=   0.000000  celldm(6)=   0.000000

     crystal axes: (cart. coord. in units of alat)
               a(1) = (   0.000000   0.707107   0.707107 )  
               a(2) = (   0.707107   0.000000   0.707107 )  
               a(3) = (   0.707107   0.707107   0.000000 )  

     reciprocal axes: (cart. coord. in units 2 pi/alat)
               b(1) = ( -0.707107  0.707107  0.707107 )  
               b(2) = (  0.707107 -0.707107  0.707107 )  
               b(3) = (  0.707107  0.707107 -0.707107 )  


     PseudoPot. # 1 for Ge read from file:
     ../Ge.pz-dn-rrkjus_psl.0.2.2.UPF
     MD5 check sum: 9948ad5293734715c8cf6021b6c26e6d
     Pseudo is Ultrasoft + core correction, Zval = 14.0
     Generated using "atomic" code by A. Dal Corso  v.5.0.2 svn rev. 9415
     Using radial grid of 1207 points,  6 beta functions with: 
                l(1) =   0
                l(2) =   0
                l(3) =   1
                l(4) =   1
                l(5) =   2
                l(6) =   2
     Q(r) pseudized with 0 coefficients 


     atomic species   valence    mass     pseudopotential
        Ge            14.00    72.63000     Ge( 1.00)

     No symmetry found



   Cartesian axes

     site n.     atom                  positions (alat units)
         1           Ge  tau(   1) = (   0.0000000   0.0000000   0.0000000  )
         2           Ge  tau(   2) = (   0.3535526   0.3535526   0.3535526  )

     number of k points=    36
                       cart. coord. in units 2pi/alat
        k(    1) = (   0.0000000   0.0000000   0.0000000), wk =   0.0312500
        k(    2) = (   0.1767767   0.1767767  -0.1767767), wk =   0.0625000
        k(    3) = (  -0.3535534  -0.3535534   0.3535534), wk =   0.0312500
        k(    4) = (   0.3535534   0.0000000   0.0000000), wk =   0.0625000
        k(    5) = (  -0.1767767  -0.5303301   0.5303301), wk =   0.0625000
        k(    6) = (   0.0000000  -0.3535534   0.3535534), wk =   0.0625000
        k(    7) = (  -0.7071068   0.0000000   0.0000000), wk =   0.0312500
        k(    8) = (  -0.7071068   0.3535534   0.0000000), wk =   0.0625000
        k(    9) = (  -0.1767767  -0.1767767  -0.1767767), wk =   0.0625000
        k(   10) = (  -0.1767767   0.1767767   0.1767767), wk =   0.0625000
        k(   11) = (   0.1767767  -0.1767767   0.1767767), wk =   0.0625000
        k(   12) = (   0.3535534   0.3535534   0.3535534), wk =   0.0312500
        k(   13) = (   0.3535534  -0.3535534  -0.3535534), wk =   0.0312500
        k(   14) = (  -0.3535534   0.3535534  -0.3535534), wk =   0.0312500
        k(   15) = (   0.0000000  -0.3535534   0.0000000), wk =   0.0625000
        k(   16) = (   0.0000000   0.0000000  -0.3535534), wk =   0.0625000
        k(   17) = (   0.1767767   0.5303301   0.5303301), wk =   0.0625000
        k(   18) = (   0.1767767  -0.5303301  -0.5303301), wk =   0.0625000
        k(   19) = (  -0.1767767   0.5303301  -0.5303301), wk =   0.0625000
        k(   20) = (   0.5303301   0.1767767  -0.5303301), wk =   0.0625000
        k(   21) = (  -0.5303301   0.5303301   0.1767767), wk =   0.0625000
        k(   22) = (  -0.5303301   0.5303301  -0.1767767), wk =   0.0625000
        k(   23) = (   0.5303301   0.5303301   0.1767767), wk =   0.0625000
        k(   24) = (  -0.5303301  -0.5303301   0.1767767), wk =   0.0625000
        k(   25) = (   0.5303301  -0.1767767  -0.5303301), wk =   0.0625000
        k(   26) = (   0.5303301   0.1767767   0.5303301), wk =   0.0625000
        k(   27) = (  -0.5303301   0.1767767  -0.5303301), wk =   0.0625000
        k(   28) = (   0.0000000   0.3535534   0.3535534), wk =   0.0625000
        k(   29) = (   0.3535534   0.0000000  -0.3535534), wk =   0.0625000
        k(   30) = (  -0.3535534   0.3535534   0.0000000), wk =   0.0625000
        k(   31) = (   0.3535534   0.3535534   0.0000000), wk =   0.0625000
        k(   32) = (   0.3535534   0.0000000   0.3535534), wk =   0.0625000
        k(   33) = (   0.0000000   0.7071068   0.0000000), wk =   0.0312500
        k(   34) = (   0.0000000   0.0000000   0.7071068), wk =   0.0312500
        k(   35) = (  -0.3535534   0.7071068   0.0000000), wk =   0.0625000
        k(   36) = (   0.7071068   0.0000000  -0.3535534), wk =   0.0625000

     Dense  grid:      459 G-vectors     FFT dimensions: (  12,  12,  12)

     Estimated max dynamical RAM per process >       2.58 MB

     Check: negative core charge=   -0.046024

     Initial potential from superposition of free atoms

     starting charge      27.9988, renormalised to      28.0000

     negative rho (up, down):  4.272E+00 0.000E+00
     Starting wfcs are   18 randomized atomic wfcs

     total cpu time spent up to now is        0.3 secs

     Self-consistent Calculation

     iteration #  1     ecut=     5.00 Ry     beta= 0.50
     Davidson diagonalization with overlap
     ethr =  1.00E-02,  avg # of iterations =  5.3

     negative rho (up, down):  4.612E-01 0.000E+00

     total cpu time spent up to now is        0.6 secs

     total energy              =    -273.55146714 Ry
     estimated scf accuracy    <     144.75857079 Ry

     iteration #  2     ecut=     5.00 Ry     beta= 0.50
     Davidson diagonalization with overlap
     ethr =  1.00E-02,  avg # of iterations =  5.2

     negative rho (up, down):  2.477E-01 0.000E+00

     total cpu time spent up to now is        0.9 secs

     total energy              =    -270.16768729 Ry
     estimated scf accuracy    <      20.98516656 Ry

     iteration #  3     ecut=     5.00 Ry     beta= 0.50
     Davidson diagonalization with overlap
     ethr =  1.00E-02,  avg # of iterations =  2.0

     negative rho (up, down):  2.201E-01 0.000E+00

     total cpu time spent up to now is        1.1 secs

     total energy              =    -269.08924212 Ry
     estimated scf accuracy    <       1.78051800 Ry

     iteration #  4     ecut=     5.00 Ry     beta= 0.50
     Davidson diagonalization with overlap
     ethr =  6.36E-03,  avg # of iterations =  1.5

     negative rho (up, down):  2.008E-01 0.000E+00

     total cpu time spent up to now is        1.3 secs

     total energy              =    -269.15860604 Ry
     estimated scf accuracy    <       0.00475912 Ry

     iteration #  5     ecut=     5.00 Ry     beta= 0.50
     Davidson diagonalization with overlap
     ethr =  1.70E-05,  avg # of iterations =  5.6

     negative rho (up, down):  2.102E-01 0.000E+00

     total cpu time spent up to now is        1.7 secs

     total energy              =    -269.25037431 Ry
     estimated scf accuracy    <       0.00163306 Ry

     iteration #  6     ecut=     5.00 Ry     beta= 0.50
     Davidson diagonalization with overlap
     ethr =  5.83E-06,  avg # of iterations =  2.0

     negative rho (up, down):  2.163E-01 0.000E+00

     total cpu time spent up to now is        1.9 secs

     total energy              =    -269.25037313 Ry
     estimated scf accuracy    <       0.00021300 Ry

     iteration #  7     ecut=     5.00 Ry     beta= 0.50
     Davidson diagonalization with overlap
     ethr =  7.61E-07,  avg # of iterations =  2.7

     negative rho (up, down):  2.161E-01 0.000E+00

     total cpu time spent up to now is        2.1 secs

     total energy              =    -269.25042862 Ry
     estimated scf accuracy    <       0.00000423 Ry

     iteration #  8     ecut=     5.00 Ry     beta= 0.50
     Davidson diagonalization with overlap
     ethr =  1.51E-08,  avg # of iterations =  3.7

     negative rho (up, down):  2.166E-01 0.000E+00

     total cpu time spent up to now is        2.4 secs

     total energy              =    -269.25042943 Ry
     estimated scf accuracy    <       0.00000156 Ry

     iteration #  9     ecut=     5.00 Ry     beta= 0.50
     Davidson diagonalization with overlap
     ethr =  5.58E-09,  avg # of iterations =  2.1

     negative rho (up, down):  2.167E-01 0.000E+00

     total cpu time spent up to now is        2.6 secs

     End of self-consistent calculation

          k = 0.0000 0.0000 0.0000 (    59 PWs)   bands (ev):

   -50.3113 -49.5529 -12.6521 -12.6520 -12.6520  -9.0723  -9.0723  -9.0723
    10.3729  14.3055  14.3055  16.7874  16.7875  16.7875

          k = 0.1768 0.1768-0.1768 (    61 PWs)   bands (ev):

   -52.7991 -48.3245 -12.6237 -12.6237 -11.6656 -10.6482 -10.6482  -9.1330
    10.8514  14.2457  14.2457  16.2598  17.4117  17.4118

          k =-0.3536-0.3536 0.3536 (    52 PWs)   bands (ev):

   -50.2272 -41.0623 -10.9571  -9.4694  -9.4693  -8.3206  -8.3205  -2.9177
    13.7908  14.8839  15.9258  15.9258  16.1410  16.1410

          k = 0.3536 0.0000 0.0000 (    60 PWs)   bands (ev):

   -51.0406 -49.4608 -12.4230 -12.4230 -11.9794 -10.9406  -8.6131  -8.6131
    11.6912  13.1233  15.5102  16.7374  16.7374  16.9562

          k =-0.1768-0.5303 0.5303 (    57 PWs)   bands (ev):

   -49.0256 -46.8518 -11.7339 -11.0164  -9.7176  -8.6754  -7.7646  -7.7380
    13.4195  14.1798  14.7143  15.1613  17.4305  17.4553

          k = 0.0000-0.3536 0.3536 (    59 PWs)   bands (ev):

   -50.2482 -47.9151 -12.1278 -11.5622 -10.0505  -9.8738  -9.5640  -8.8530
    12.9671  14.1898  14.3460  14.9446  15.6514  18.8032

          k =-0.7071 0.0000 0.0000 (    64 PWs)   bands (ev):

   -51.0905 -51.0904 -13.6044 -13.6044 -11.0125 -11.0125  -8.7824  -8.7824
    13.3376  13.3376  15.0434  15.0434  17.4225  17.4226

          k =-0.7071 0.3536 0.0000 (    56 PWs)   bands (ev):

   -47.8829 -47.8828 -10.4005 -10.4004  -8.9910  -8.9910  -8.3359  -8.3358
    13.5963  13.5963  14.8177  14.8178  18.4346  18.4347

          k =-0.1768-0.1768-0.1768 (    61 PWs)   bands (ev):

   -52.7991 -48.3245 -12.6237 -12.6237 -11.6656 -10.6482 -10.6482  -9.1329
    10.8514  14.2457  14.2457  16.2598  17.4117  17.4118

          k =-0.1768 0.1768 0.1768 (    61 PWs)   bands (ev):

   -52.7991 -48.3245 -12.6237 -12.6237 -11.6656 -10.6483 -10.6482  -9.1329
    10.8514  14.2457  14.2457  16.2598  17.4117  17.4118

          k = 0.1768-0.1768 0.1768 (    61 PWs)   bands (ev):

   -52.7991 -48.3245 -12.6237 -12.6237 -11.6655 -10.6483 -10.6482  -9.1329
    10.8514  14.2457  14.2457  16.2598  17.4117  17.4117

          k = 0.3536 0.3536 0.3536 (    52 PWs)   bands (ev):

   -50.2272 -41.0623 -10.9571  -9.4694  -9.4693  -8.3205  -8.3205  -2.9177
    13.7909  14.8838  15.9258  15.9258  16.1409  16.1409

          k = 0.3536-0.3536-0.3536 (    52 PWs)   bands (ev):

   -50.2272 -41.0623 -10.9571  -9.4694  -9.4693  -8.3206  -8.3205  -2.9177
    13.7908  14.8839  15.9258  15.9258  16.1409  16.1410

          k =-0.3536 0.3536-0.3536 (    52 PWs)   bands (ev):

   -50.2272 -41.0623 -10.9570  -9.4694  -9.4694  -8.3206  -8.3205  -2.9177
    13.7908  14.8839  15.9258  15.9258  16.1409  16.1410

          k = 0.0000-0.3536 0.0000 (    60 PWs)   bands (ev):

   -51.0406 -49.4608 -12.4230 -12.4230 -11.9794 -10.9406  -8.6131  -8.6130
    11.6912  13.1233  15.5102  16.7374  16.7374  16.9562

          k = 0.0000 0.0000-0.3536 (    60 PWs)   bands (ev):

   -51.0406 -49.4608 -12.4231 -12.4230 -11.9794 -10.9406  -8.6131  -8.6131
    11.6912  13.1233  15.5102  16.7374  16.7374  16.9562

          k = 0.1768 0.5303 0.5303 (    57 PWs)   bands (ev):

   -49.0256 -46.8518 -11.7339 -11.0164  -9.7176  -8.6754  -7.7646  -7.7380
    13.4195  14.1798  14.7143  15.1613  17.4304  17.4553

          k = 0.1768-0.5303-0.5303 (    57 PWs)   bands (ev):

   -49.0256 -46.8518 -11.7339 -11.0164  -9.7176  -8.6754  -7.7646  -7.7380
    13.4195  14.1799  14.7143  15.1613  17.4305  17.4553

          k =-0.1768 0.5303-0.5303 (    57 PWs)   bands (ev):

   -49.0256 -46.8518 -11.7339 -11.0164  -9.7176  -8.6753  -7.7646  -7.7380
    13.4195  14.1799  14.7143  15.1613  17.4305  17.4554

          k = 0.5303 0.1768-0.5303 (    57 PWs)   bands (ev):

   -49.0256 -46.8518 -11.7339 -11.0164  -9.7176  -8.6754  -7.7646  -7.7380
    13.4195  14.1798  14.7143  15.1613  17.4305  17.4553

          k =-0.5303 0.5303 0.1768 (    57 PWs)   bands (ev):

   -49.0256 -46.8518 -11.7339 -11.0164  -9.7176  -8.6754  -7.7646  -7.7381
    13.4195  14.1798  14.7143  15.1613  17.4305  17.4554

          k =-0.5303 0.5303-0.1768 (    57 PWs)   bands (ev):

   -49.0256 -46.8518 -11.7339 -11.0163  -9.7176  -8.6753  -7.7646  -7.7381
    13.4195  14.1799  14.7143  15.1613  17.4305  17.4554

          k = 0.5303 0.5303 0.1768 (    57 PWs)   bands (ev):

   -49.0256 -46.8518 -11.7339 -11.0164  -9.7176  -8.6754  -7.7646  -7.7380
    13.4195  14.1798  14.7143  15.1613  17.4304  17.4553

          k =-0.5303-0.5303 0.1768 (    57 PWs)   bands (ev):

   -49.0256 -46.8518 -11.7339 -11.0164  -9.7176  -8.6754  -7.7646  -7.7380
    13.4195  14.1798  14.7143  15.1613  17.4305  17.4553

          k = 0.5303-0.1768-0.5303 (    57 PWs)   bands (ev):

   -49.0256 -46.8518 -11.7339 -11.0164  -9.7176  -8.6754  -7.7646  -7.7380
    13.4195  14.1798  14.7143  15.1613  17.4305  17.4554

          k = 0.5303 0.1768 0.5303 (    57 PWs)   bands (ev):

   -49.0256 -46.8518 -11.7339 -11.0164  -9.7176  -8.6754  -7.7645  -7.7380
    13.4195  14.1798  14.7143  15.1613  17.4304  17.4553

          k =-0.5303 0.1768-0.5303 (    57 PWs)   bands (ev):

   -49.0256 -46.8518 -11.7339 -11.0164  -9.7176  -8.6753  -7.7646  -7.7381
    13.4195  14.1799  14.7143  15.1613  17.4305  17.4553

          k = 0.0000 0.3536 0.3536 (    59 PWs)   bands (ev):

   -50.2482 -47.9151 -12.1278 -11.5622 -10.0505  -9.8738  -9.5640  -8.8530
    12.9671  14.1898  14.3460  14.9446  15.6514  18.8032

          k = 0.3536 0.0000-0.3536 (    59 PWs)   bands (ev):

   -50.2482 -47.9151 -12.1278 -11.5622 -10.0505  -9.8738  -9.5640  -8.8530
    12.9671  14.1898  14.3460  14.9446  15.6514  18.8032

          k =-0.3536 0.3536 0.0000 (    59 PWs)   bands (ev):

   -50.2482 -47.9151 -12.1278 -11.5621 -10.0505  -9.8738  -9.5640  -8.8529
    12.9671  14.1899  14.3459  14.9446  15.6514  18.8032

          k = 0.3536 0.3536 0.0000 (    59 PWs)   bands (ev):

   -50.2482 -47.9151 -12.1278 -11.5622 -10.0504  -9.8738  -9.5640  -8.8529
    12.9671  14.1898  14.3460  14.9446  15.6513  18.8033

          k = 0.3536 0.0000 0.3536 (    59 PWs)   bands (ev):

   -50.2482 -47.9151 -12.1278 -11.5622 -10.0505  -9.8738  -9.5640  -8.8530
    12.9671  14.1898  14.3460  14.9446  15.6514  18.8032

          k = 0.0000 0.7071 0.0000 (    64 PWs)   bands (ev):

   -51.0905 -51.0904 -13.6044 -13.6044 -11.0125 -11.0125  -8.7824  -8.7824
    13.3376  13.3376  15.0434  15.0434  17.4226  17.4226

          k = 0.0000 0.0000 0.7071 (    64 PWs)   bands (ev):

   -51.0905 -51.0904 -13.6045 -13.6044 -11.0125 -11.0125  -8.7824  -8.7823
    13.3376  13.3376  15.0434  15.0434  17.4225  17.4226

          k =-0.3536 0.7071 0.0000 (    56 PWs)   bands (ev):

   -47.8829 -47.8828 -10.4005 -10.4004  -8.9910  -8.9910  -8.3359  -8.3358
    13.5963  13.5963  14.8177  14.8178  18.4346  18.4347

          k = 0.7071 0.0000-0.3536 (    56 PWs)   bands (ev):

   -47.8829 -47.8828 -10.4005 -10.4004  -8.9910  -8.9910  -8.3359  -8.3358
    13.5963  13.5963  14.8177  14.8178  18.4347  18.4347

     highest occupied level (ev):    18.8033

!    total energy              =    -269.25042965 Ry
     estimated scf accuracy    <       0.00000003 Ry

     The total energy is the sum of the following terms:
     one-electron contribution =     -14.65920150 Ry
     hartree contribution      =      21.06276157 Ry
     xc contribution           =     -79.22369437 Ry
     ewald contribution        =    -196.43029534 Ry

     convergence has been achieved in   9 iterations

     negative rho (up, down):  2.167E-01 0.000E+00

     Forces acting on atoms (cartesian axes, Ry/au):

     atom    1 type  1   force =     0.00009177    0.00006229    0.00010163
     atom    2 type  1   force =    -0.00009177   -0.00006229   -0.00010163
     The non-local contrib.  to forces
     atom    1 type  1   force =    -0.00000244    0.00001359   -0.00000844
     atom    2 type  1   force =     0.00000062   -0.00000804    0.00000521
     The ionic contribution  to forces
     atom    1 type  1   force =    -0.00003185   -0.00003185   -0.00003185
     atom    2 type  1   force =     0.00003185    0.00003185    0.00003185
     The local contribution  to forces
     atom    1 type  1   force =     0.00001699    0.00007429   -0.00003017
     atom    2 type  1   force =    -0.00001354   -0.00005200    0.00001403
     The core correction contribution to forces
     atom    1 type  1   force =     0.00003680    0.00003833    0.00003561
     atom    2 type  1   force =    -0.00013190   -0.00013190   -0.00013206
     The Hubbard contrib.    to forces
     atom    1 type  1   force =     0.00000000    0.00000000    0.00000000
     atom    2 type  1   force =     0.00000000    0.00000000    0.00000000
     The SCF correction term to forces
     atom    1 type  1   force =     0.00001541   -0.00010417    0.00008414
     atom    2 type  1   force =    -0.00003565    0.00002571   -0.00007299

     Total force =     0.000213     Total SCF correction =     0.000159
     SCF correction compared to forces is large: reduce conv_thr to get better values


     Computing stress (Cartesian axis) and pressure


     negative rho (up, down):  2.167E-01 0.000E+00
          total   stress  (Ry/bohr**3)                   (kbar)     P=   -15167.86
  -0.10310905   0.00000024  -0.00000013       -15167.86        0.04       -0.02
   0.00000024  -0.10310907   0.00000015            0.04   -15167.87        0.02
  -0.00000013   0.00000015  -0.10310900           -0.02        0.02   -15167.86


     init_run     :      0.18s CPU      0.18s WALL (       1 calls)
     electrons    :      2.97s CPU      2.27s WALL (       1 calls)
     forces       :      0.02s CPU      0.03s WALL (       1 calls)
     stress       :      0.17s CPU      0.12s WALL (       1 calls)

     Called by init_run:
     wfcinit      :      0.08s CPU      0.08s WALL (       1 calls)
     potinit      :      0.00s CPU      0.00s WALL (       1 calls)
     hinit0       :      0.10s CPU      0.10s WALL (       1 calls)

     Called by electrons:
     c_bands      :      2.67s CPU      2.05s WALL (       9 calls)
     sum_band     :      0.26s CPU      0.19s WALL (       9 calls)
     v_of_rho     :      0.01s CPU      0.00s WALL (      10 calls)
     newd         :      0.02s CPU      0.02s WALL (      10 calls)
     mix_rho      :      0.00s CPU      0.00s WALL (       9 calls)

     Called by c_bands:
     init_us_2    :      0.07s CPU      0.05s WALL (     756 calls)
     init_us_2:cp :      0.07s CPU      0.05s WALL (     756 calls)
     cegterg      :      2.39s CPU      1.80s WALL (     324 calls)

     Called by *egterg:
     cdiaghg      :      1.08s CPU      0.83s WALL (    1406 calls)
     h_psi        :      1.05s CPU      0.80s WALL (    1442 calls)
     s_psi        :      0.06s CPU      0.05s WALL (    1442 calls)
     g_psi        :      0.01s CPU      0.01s WALL (    1082 calls)

     Called by h_psi:
     h_psi:calbec :      0.06s CPU      0.04s WALL (    1442 calls)
     vloc_psi     :      0.89s CPU      0.67s WALL (    1442 calls)
     add_vuspsi   :      0.07s CPU      0.05s WALL (    1442 calls)

     General routines
     calbec       :      0.07s CPU      0.05s WALL (    1946 calls)
     fft          :      0.03s CPU      0.03s WALL (      48 calls)
     ffts         :      0.00s CPU      0.00s WALL (       9 calls)
     fftw         :      0.73s CPU      0.55s WALL (   32100 calls)

     Parallel routines

     PWSCF        :      3.45s CPU      2.72s WALL


   This run was terminated on:  14: 0:25  11Oct2023            

=------------------------------------------------------------------------------=
   JOB DONE.
=------------------------------------------------------------------------------=
