LAMMPS (29 Oct 2020)
Reading data file ...
  orthogonal box = (0.0000000 0.0000000 0.0000000) to (23.136500 23.136500 24.090000)
  1 by 1 by 1 MPI processor grid
  reading atoms ...
  192 atoms
  read_data CPU = 0.001 seconds
Reading eam potential file /home/gridsan/epan1/3320_atomistic_shared/lammps/potentials/Ag_u3.eam with DATE: 2007-06-11
WARNING: No fixes defined, atoms won't move (../verlet.cpp:54)
Neighbor list info ...
  update every 1 steps, delay 10 steps, check yes
  max neighbors/atom: 2000, page size: 100000
  master list distance cutoff = 7.55
  ghost atom cutoff = 7.55
  binsize = 3.775, bins = 7 7 7
  1 neighbor lists, perpetual/occasional/extra = 1 0 0
  (1) pair eam, perpetual
      attributes: half, newton on
      pair build: half/bin/atomonly/newton
      stencil: half/bin/3d/newton
      bin: standard
Setting up Verlet run ...
  Unit style    : metal
  Current step  : 0
  Time step     : 0.001
Per MPI rank memory allocation (min/avg/max) = 3.317 | 3.317 | 3.317 Mbytes
Step PotEng Lx Ly Lz Press Pxx Pyy Pzz 
       0   -499.96135      23.1365      23.1365        24.09   -8274.0157   -10129.458   -10129.458   -4563.1319 
Loop time of 9.53674e-07 on 1 procs for 0 steps with 192 atoms

104.9% CPU use with 1 MPI tasks x no OpenMP threads

MPI task timing breakdown:
Section |  min time  |  avg time  |  max time  |%varavg| %total
---------------------------------------------------------------
Pair    | 0          | 0          | 0          |   0.0 |  0.00
Neigh   | 0          | 0          | 0          |   0.0 |  0.00
Comm    | 0          | 0          | 0          |   0.0 |  0.00
Output  | 0          | 0          | 0          |   0.0 |  0.00
Modify  | 0          | 0          | 0          |   0.0 |  0.00
Other   |            | 9.537e-07  |            |       |100.00

Nlocal:        192.000 ave         192 max         192 min
Histogram: 1 0 0 0 0 0 0 0 0 0
Nghost:        342.000 ave         342 max         342 min
Histogram: 1 0 0 0 0 0 0 0 0 0
Neighs:        4800.00 ave        4800 max        4800 min
Histogram: 1 0 0 0 0 0 0 0 0 0

Total # of neighbors = 4800
Ave neighs/atom = 25.000000
Neighbor list builds = 0
Dangerous builds = 0
WARNING: Using 'neigh_modify every 1 delay 0 check yes' setting during minimization (../min.cpp:187)
Setting up cg style minimization ...
  Unit style    : metal
  Current step  : 0
WARNING: Energy due to 1 extra global DOFs will be included in minimizer energies
Per MPI rank memory allocation (min/avg/max) = 4.442 | 4.442 | 4.442 Mbytes
Step PotEng Lx Ly Lz Press Pxx Pyy Pzz 
       0   -499.96135      23.1365      23.1365        24.09   -8274.0157   -10129.458   -10129.458   -4563.1319 
      38   -501.57577    22.637001    22.637001    23.569915   0.26741893  0.066302514  0.066302514   0.66965177 
Loop time of 0.00916409 on 1 procs for 38 steps with 192 atoms

99.9% CPU use with 1 MPI tasks x no OpenMP threads

Minimization stats:
  Stopping criterion = energy tolerance
  Energy initial, next-to-last, final = 
     -499.961352497804   -501.57577134547  -501.575771352375
  Force two-norm initial, final = 199.78969 0.0098770508
  Force max component initial, final = 199.78338 0.0061812686
  Final line search alpha, max atom move = 0.10566086 0.00065311817
  Iterations, force evaluations = 38 55

MPI task timing breakdown:
Section |  min time  |  avg time  |  max time  |%varavg| %total
---------------------------------------------------------------
Pair    | 0.0084822  | 0.0084822  | 0.0084822  |   0.0 | 92.56
Neigh   | 0          | 0          | 0          |   0.0 |  0.00
Comm    | 7.987e-05  | 7.987e-05  | 7.987e-05  |   0.0 |  0.87
Output  | 0          | 0          | 0          |   0.0 |  0.00
Modify  | 0          | 0          | 0          |   0.0 |  0.00
Other   |            | 0.000602   |            |       |  6.57

Nlocal:        192.000 ave         192 max         192 min
Histogram: 1 0 0 0 0 0 0 0 0 0
Nghost:        342.000 ave         342 max         342 min
Histogram: 1 0 0 0 0 0 0 0 0 0
Neighs:        4800.00 ave        4800 max        4800 min
Histogram: 1 0 0 0 0 0 0 0 0 0

Total # of neighbors = 4800
Ave neighs/atom = 25.000000
Neighbor list builds = 0
Dangerous builds = 0
Total energy (eV) = -501.575771352375
Number of atoms = 192
Lattice constant (Angstoms) = 22.6370006891582
Total wall time: 0:00:00
