
     Program PWSCF v.7.2 starts on  3Nov2023 at 14: 1:39 

     This program is part of the open-source Quantum ESPRESSO suite
     for quantum simulation of materials; please cite
         "P. Giannozzi et al., J. Phys.:Condens. Matter 21 395502 (2009);
         "P. Giannozzi et al., J. Phys.:Condens. Matter 29 465901 (2017);
         "P. Giannozzi et al., J. Chem. Phys. 152 154105 (2020);
          URL http://www.quantum-espresso.org", 
     in publications or presentations arising from this work. More details at
     http://www.quantum-espresso.org/quote

     Parallel version (MPI), running on     8 processors

     MPI processes distributed on     8 nodes
     186966 MiB available memory on the printing compute node when the environment starts

     Waiting for input...
     Reading input from standard input

     Current dimensions of program PWSCF are:
     Max number of different atomic species (ntypx) = 10
     Max number of k-points (npk) =  40000
     Max angular momentum in pseudopotentials (lmaxx) =  4
     file Cu.pz-d-rrkjus.UPF: wavefunction(s)  3D renormalized
     Message from routine setup:
     using ibrav=0 with symmetry is DISCOURAGED, use correct ibrav instead

     R & G space division:  proc/nbgrp/npool/nimage =       8
     Subspace diagonalization in iterative solution of the eigenvalue problem:
     a serial algorithm will be used


     Parallelization info
     --------------------
     sticks:   dense  smooth     PW     G-vecs:    dense   smooth      PW
     Min          86      43     14                 2263      801     150
     Max          89      44     15                 2264      804     153
     Sum         697     349    113                18111     6423    1207

     Using Slab Decomposition



     bravais-lattice index     =            0
     lattice parameter (alat)  =       5.2270  a.u.
     unit-cell volume          =     187.0550 (a.u.)^3
     number of atoms/cell      =            2
     number of atomic types    =            2
     number of electrons       =        22.00
     number of Kohn-Sham states=           15
     kinetic-energy cutoff     =      40.0000  Ry
     charge density cutoff     =     320.0000  Ry
     scf convergence threshold =      1.0E-07
     mixing beta               =       0.5000
     number of iterations used =            8  plain     mixing
     energy convergence thresh.=      1.0E-04
     force convergence thresh. =      1.0E-03
     press convergence thresh. =      5.0E-01
     Exchange-correlation=  SLA  PZ   NOGX NOGC
                           (   1   1   0   0   0   0   0)
     nstep                     =           50


     celldm(1)=   5.226982  celldm(2)=   0.000000  celldm(3)=   0.000000
     celldm(4)=   0.000000  celldm(5)=   0.000000  celldm(6)=   0.000000

     crystal axes: (cart. coord. in units of alat)
               a(1) = (   1.000000   0.000000   0.000000 )  
               a(2) = (   0.000000   1.000000   0.000000 )  
               a(3) = (   0.000000   0.000000   1.309834 )  

     reciprocal axes: (cart. coord. in units 2 pi/alat)
               b(1) = (  1.000000  0.000000  0.000000 )  
               b(2) = (  0.000000  1.000000  0.000000 )  
               b(3) = (  0.000000  0.000000  0.763456 )  


     PseudoPot. # 1 for Au read from file:
     /home/gridsan/epan1/labutil/lab3_samples/pseudopotentials/Au.pz-d-rrkjus.UPF
     MD5 check sum: 424ffd4ac9c90487cbadcd287136c95b
     Pseudo is Ultrasoft, Zval = 11.0
     Generated by new atomic code, or converted to UPF format
     Using radial grid of 1279 points,  3 beta functions with: 
                l(1) =   2
                l(2) =   2
                l(3) =   1
     Q(r) pseudized with 0 coefficients 


     PseudoPot. # 2 for Cu read from file:
     /home/gridsan/epan1/labutil/lab3_samples/pseudopotentials/Cu.pz-d-rrkjus.UPF
     MD5 check sum: fd38ae683e239c95a66f426e1f8e5fc7
     Pseudo is Ultrasoft, Zval = 11.0
     Generated by new atomic code, or converted to UPF format
     Using radial grid of  899 points,  3 beta functions with: 
                l(1) =   2
                l(2) =   2
                l(3) =   1
     Q(r) pseudized with 0 coefficients 


     atomic species   valence    mass     pseudopotential
        Au            11.00   196.96657     Au( 1.00)
        Cu            11.00    63.54600     Cu( 1.00)

     Starting magnetic structure 
     atomic species   magnetization
        Au           0.700
        Cu           0.000

     16 Sym. Ops., with inversion, found



   Cartesian axes

     site n.     atom                  positions (alat units)
         1           Cu  tau(   1) = (   0.0000000   0.0000000   0.0000000  )
         2           Au  tau(   2) = (   0.5000000   0.5000000   0.6549168  )

     number of k points=     6  Methfessel-Paxton smearing, width (Ry)=  0.0200
                       cart. coord. in units 2pi/alat
        k(    1) = (   0.0000000   0.0000000   0.0000000), wk =   0.1250000
        k(    2) = (   0.0000000   0.0000000  -0.3817278), wk =   0.1250000
        k(    3) = (   0.0000000  -0.5000000   0.0000000), wk =   0.2500000
        k(    4) = (   0.0000000  -0.5000000  -0.3817278), wk =   0.2500000
        k(    5) = (  -0.5000000  -0.5000000   0.0000000), wk =   0.1250000
        k(    6) = (  -0.5000000  -0.5000000  -0.3817278), wk =   0.1250000

     Dense  grid:    18111 G-vectors     FFT dimensions: (  30,  30,  40)

     Smooth grid:     6423 G-vectors     FFT dimensions: (  24,  24,  27)

     Estimated max dynamical RAM per process >       8.38 MB

     Estimated total dynamical RAM >      67.02 MB
     Generating pointlists ...
     new r_m :   0.3976 (alat units)  2.0781 (a.u.) for type    1
     new r_m :   0.3976 (alat units)  2.0781 (a.u.) for type    2

     Initial potential from superposition of free atoms

     starting charge      21.9996, renormalised to      22.0000
     Starting wfcs are   15 randomized atomic wfcs

     total cpu time spent up to now is        0.6 secs

     Self-consistent Calculation

     iteration #  1     ecut=    40.00 Ry     beta= 0.50
     Davidson diagonalization with overlap
     ethr =  1.00E-02,  avg # of iterations =  3.7

     total cpu time spent up to now is        0.8 secs

     total energy              =    -154.00121023 Ry
     estimated scf accuracy    <       0.90704182 Ry

     total magnetization       =     1.48 Bohr mag/cell
     absolute magnetization    =     1.91 Bohr mag/cell

     iteration #  2     ecut=    40.00 Ry     beta= 0.50
     Davidson diagonalization with overlap
     ethr =  4.12E-03,  avg # of iterations =  2.0

     total cpu time spent up to now is        0.9 secs

     total energy              =    -154.30547675 Ry
     estimated scf accuracy    <       0.85037577 Ry

     total magnetization       =     0.20 Bohr mag/cell
     absolute magnetization    =     0.63 Bohr mag/cell

     iteration #  3     ecut=    40.00 Ry     beta= 0.50
     Davidson diagonalization with overlap
     ethr =  3.87E-03,  avg # of iterations =  1.7

     total cpu time spent up to now is        1.0 secs

     total energy              =    -154.47360183 Ry
     estimated scf accuracy    <       0.16850663 Ry

     total magnetization       =     0.76 Bohr mag/cell
     absolute magnetization    =     0.89 Bohr mag/cell

     iteration #  4     ecut=    40.00 Ry     beta= 0.50
     Davidson diagonalization with overlap
     ethr =  7.66E-04,  avg # of iterations =  1.6

     total cpu time spent up to now is        1.1 secs

     total energy              =    -154.53247644 Ry
     estimated scf accuracy    <       0.11044427 Ry

     total magnetization       =     0.37 Bohr mag/cell
     absolute magnetization    =     0.56 Bohr mag/cell

     iteration #  5     ecut=    40.00 Ry     beta= 0.50
     Davidson diagonalization with overlap
     ethr =  5.02E-04,  avg # of iterations =  1.5

     total cpu time spent up to now is        1.2 secs

     total energy              =    -154.55663592 Ry
     estimated scf accuracy    <       0.16163524 Ry

     total magnetization       =     0.27 Bohr mag/cell
     absolute magnetization    =     0.32 Bohr mag/cell

     iteration #  6     ecut=    40.00 Ry     beta= 0.50
     Davidson diagonalization with overlap
     ethr =  5.02E-04,  avg # of iterations =  1.1

     total cpu time spent up to now is        1.3 secs

     total energy              =    -154.57319891 Ry
     estimated scf accuracy    <       0.00443278 Ry

     total magnetization       =    -0.03 Bohr mag/cell
     absolute magnetization    =     0.08 Bohr mag/cell

     iteration #  7     ecut=    40.00 Ry     beta= 0.50
     Davidson diagonalization with overlap
     ethr =  2.01E-05,  avg # of iterations =  3.5

     total cpu time spent up to now is        1.5 secs

     total energy              =    -154.57405179 Ry
     estimated scf accuracy    <       0.00167111 Ry

     total magnetization       =    -0.04 Bohr mag/cell
     absolute magnetization    =     0.08 Bohr mag/cell

     iteration #  8     ecut=    40.00 Ry     beta= 0.50
     Davidson diagonalization with overlap
     ethr =  7.60E-06,  avg # of iterations =  2.0

     total cpu time spent up to now is        1.6 secs

     total energy              =    -154.57421052 Ry
     estimated scf accuracy    <       0.00090771 Ry

     total magnetization       =    -0.05 Bohr mag/cell
     absolute magnetization    =     0.07 Bohr mag/cell

     iteration #  9     ecut=    40.00 Ry     beta= 0.50
     Davidson diagonalization with overlap
     ethr =  4.13E-06,  avg # of iterations =  1.6

     total cpu time spent up to now is        1.7 secs

     total energy              =    -154.57433347 Ry
     estimated scf accuracy    <       0.00001931 Ry

     total magnetization       =    -0.06 Bohr mag/cell
     absolute magnetization    =     0.07 Bohr mag/cell

     iteration # 10     ecut=    40.00 Ry     beta= 0.50
     Davidson diagonalization with overlap
     ethr =  8.78E-08,  avg # of iterations =  2.9

     total cpu time spent up to now is        1.8 secs

     total energy              =    -154.57433873 Ry
     estimated scf accuracy    <       0.00000500 Ry

     total magnetization       =    -0.06 Bohr mag/cell
     absolute magnetization    =     0.07 Bohr mag/cell

     iteration # 11     ecut=    40.00 Ry     beta= 0.50
     Davidson diagonalization with overlap
     ethr =  2.27E-08,  avg # of iterations =  1.3

     total cpu time spent up to now is        1.9 secs

     total energy              =    -154.57434162 Ry
     estimated scf accuracy    <       0.00000237 Ry

     total magnetization       =    -0.07 Bohr mag/cell
     absolute magnetization    =     0.07 Bohr mag/cell

     iteration # 12     ecut=    40.00 Ry     beta= 0.50
     Davidson diagonalization with overlap
     ethr =  1.08E-08,  avg # of iterations =  1.6

     total cpu time spent up to now is        2.1 secs

     total energy              =    -154.57432256 Ry
     estimated scf accuracy    <       0.00000148 Ry

     total magnetization       =    -0.08 Bohr mag/cell
     absolute magnetization    =     0.08 Bohr mag/cell

     iteration # 13     ecut=    40.00 Ry     beta= 0.50
     Davidson diagonalization with overlap
     ethr =  6.72E-09,  avg # of iterations =  2.6

     total cpu time spent up to now is        2.2 secs

     total energy              =    -154.57431952 Ry
     estimated scf accuracy    <       0.00000434 Ry

     total magnetization       =    -0.05 Bohr mag/cell
     absolute magnetization    =     0.05 Bohr mag/cell

     iteration # 14     ecut=    40.00 Ry     beta= 0.50
     Davidson diagonalization with overlap
     ethr =  6.72E-09,  avg # of iterations =  2.1

     total cpu time spent up to now is        2.3 secs

     total energy              =    -154.57432834 Ry
     estimated scf accuracy    <       0.00000994 Ry

     total magnetization       =    -0.02 Bohr mag/cell
     absolute magnetization    =     0.03 Bohr mag/cell

     iteration # 15     ecut=    40.00 Ry     beta= 0.50
     Davidson diagonalization with overlap
     ethr =  6.72E-09,  avg # of iterations =  2.1

     total cpu time spent up to now is        2.4 secs

     total energy              =    -154.57429793 Ry
     estimated scf accuracy    <       0.00000052 Ry

     total magnetization       =    -0.04 Bohr mag/cell
     absolute magnetization    =     0.04 Bohr mag/cell

     iteration # 16     ecut=    40.00 Ry     beta= 0.50
     Davidson diagonalization with overlap
     ethr =  2.37E-09,  avg # of iterations =  2.8

     total cpu time spent up to now is        2.6 secs

     total energy              =    -154.57432888 Ry
     estimated scf accuracy    <       0.00000012 Ry

     total magnetization       =     0.00 Bohr mag/cell
     absolute magnetization    =     0.00 Bohr mag/cell

     iteration # 17     ecut=    40.00 Ry     beta= 0.50
     Davidson diagonalization with overlap
     ethr =  5.29E-10,  avg # of iterations =  2.0

     Magnetic moment per site  (integrated on atomic sphere of radius R)
     atom   1 (R=0.398)  charge= 10.0496  magn= -0.0071
     atom   2 (R=0.398)  charge=  8.7907  magn= -0.0000

     total cpu time spent up to now is        2.7 secs

     End of self-consistent calculation

 ------ SPIN UP ------------


          k = 0.0000 0.0000 0.0000 (   821 PWs)   bands (ev):

     5.5086   8.5090   8.9435  11.4618  11.4618  12.4691  12.6852  13.4994
    13.9239  14.2187  14.2187  17.9731  24.3055  26.3528  26.3528

          k = 0.0000 0.0000-0.3817 (   814 PWs)   bands (ev):

     7.2233   8.7732   9.7986  11.8747  11.8747  12.0114  12.3012  12.7331
    13.2643  13.2643  13.2750  13.6334  31.0716  31.0716  31.2670

          k = 0.0000-0.5000 0.0000 (   806 PWs)   bands (ev):

     8.5125   9.8998  10.1944  11.0532  11.2803  12.3473  12.5101  12.5764
    13.1811  13.4125  14.8648  15.5315  25.7021  25.8192  27.4499

          k = 0.0000-0.5000-0.3817 (   780 PWs)   bands (ev):

     8.4538   8.5093  10.8500  11.4420  11.5336  12.8595  13.7767  13.9079
    14.0371  14.1301  14.5112  14.7337  18.4776  20.7007  33.1905

          k =-0.5000-0.5000 0.0000 (   800 PWs)   bands (ev):

     8.0783   9.5585   9.5585   9.8840  13.8768  13.9443  13.9661  13.9766
    14.3207  14.3207  16.3820  16.3820  20.9989  23.2422  26.6369

          k =-0.5000-0.5000-0.3817 (   816 PWs)   bands (ev):

     8.6027   9.6976   9.6976  12.0155  12.3298  12.3298  12.5511  13.4814
    13.8821  13.9783  21.3342  21.3342  21.9182  21.9833  23.0511

 ------ SPIN DOWN ----------


          k = 0.0000 0.0000 0.0000 (   821 PWs)   bands (ev):

     5.5087   8.5082   8.9428  11.4600  11.4600  12.4675  12.6726  13.4906
    13.9177  14.2134  14.2134  17.9735  24.3043  26.3530  26.3530

          k = 0.0000 0.0000-0.3817 (   814 PWs)   bands (ev):

     7.2226   8.7730   9.7990  11.8746  11.8746  12.0117  12.2883  12.7327
    13.2576  13.2576  13.2656  13.6261  31.0705  31.0705  31.2647

          k = 0.0000-0.5000 0.0000 (   806 PWs)   bands (ev):

     8.5125   9.8997  10.1951  11.0496  11.2798  12.3471  12.5042  12.5660
    13.1742  13.4056  14.8540  15.5315  25.7015  25.8173  27.4503

          k = 0.0000-0.5000-0.3817 (   780 PWs)   bands (ev):

     8.4532   8.5085  10.8486  11.4401  11.5321  12.8484  13.7738  13.8952
    14.0310  14.1248  14.5105  14.7355  18.4755  20.6994  33.1811

          k =-0.5000-0.5000 0.0000 (   800 PWs)   bands (ev):

     8.0772   9.5573   9.5573   9.8831  13.8768  13.9342  13.9611  13.9619
    14.3151  14.3151  16.3824  16.3824  20.9980  23.2406  26.6363

          k =-0.5000-0.5000-0.3817 (   816 PWs)   bands (ev):

     8.6021   9.6977   9.6977  12.0105  12.3243  12.3243  12.5512  13.4711
    13.8822  13.9628  21.3322  21.3322  21.9164  21.9833  23.0514

     the Fermi energy is    14.8817 ev

!    total energy              =    -154.57432999 Ry
     estimated scf accuracy    <       0.00000006 Ry
     smearing contrib. (-TS)   =      -0.00097422 Ry
     internal energy E=F+TS    =    -154.57335576 Ry

     The total energy is F=E-TS. E is the sum of the following terms:
     one-electron contribution =      -3.56154389 Ry
     hartree contribution      =      27.50413552 Ry
     xc contribution           =     -24.54022352 Ry
     ewald contribution        =    -153.97572388 Ry

     total magnetization       =    -0.01 Bohr mag/cell
     absolute magnetization    =     0.01 Bohr mag/cell

     convergence has been achieved in  17 iterations

     Forces acting on atoms (cartesian axes, Ry/au):

     atom    1 type  2   force =     0.00000000    0.00000000    0.00000000
     atom    2 type  1   force =     0.00000000    0.00000000    0.00000000
     The non-local contrib.  to forces
     atom    1 type  2   force =     0.00000000    0.00000000    0.00000000
     atom    2 type  1   force =     0.00000000    0.00000000    0.00000000
     The ionic contribution  to forces
     atom    1 type  2   force =    -0.00000000   -0.00000000   -0.00000000
     atom    2 type  1   force =     0.00000000    0.00000000    0.00000000
     The local contribution  to forces
     atom    1 type  2   force =    -0.00000000    0.00000000   -0.00000000
     atom    2 type  1   force =    -0.00000000   -0.00000000   -0.00000000
     The core correction contribution to forces
     atom    1 type  2   force =     0.00000000    0.00000000    0.00000000
     atom    2 type  1   force =     0.00000000    0.00000000    0.00000000
     The Hubbard contrib.    to forces
     atom    1 type  2   force =     0.00000000    0.00000000    0.00000000
     atom    2 type  1   force =     0.00000000    0.00000000    0.00000000
     The SCF correction term to forces
     atom    1 type  2   force =    -0.00000000   -0.00000000   -0.00000000
     atom    2 type  1   force =     0.00000000    0.00000000   -0.00000000

     Total force =     0.000000     Total SCF correction =     0.000000


     Computing stress (Cartesian axis) and pressure

          total   stress  (Ry/bohr**3)                   (kbar)     P=      106.28
   0.00080587   0.00000000   0.00000000          118.55        0.00        0.00
   0.00000000   0.00080587   0.00000000            0.00      118.55        0.00
   0.00000000   0.00000000   0.00055572            0.00        0.00       81.75


     BFGS Geometry Optimization
     Energy error            =      0.0E+00 Ry
     Gradient error          =      0.0E+00 Ry/Bohr
     Cell gradient error     =      1.2E+02 kbar

     number of scf cycles    =   1
     number of bfgs steps    =   0

     enthalpy           new  =    -154.5743299863 Ry

     new trust radius        =       0.0551084664 bohr
     new conv_thr            =       0.0000001000 Ry

     new unit-cell volume =    197.37251 a.u.^3 (    29.24759 Ang^3 )
     density =     14.79067 g/cm^3

CELL_PARAMETERS (angstrom)
   2.821725742   0.000000000   0.000000000
   0.000000000   2.821725742   0.000000000
   0.000000000   0.000000000   3.673334391

ATOMIC_POSITIONS (angstrom)
Cu            0.0000000000        0.0000000000        0.0000000000
Au            1.4108628711        1.4108628711        1.8366671957



     Writing config-only to output data dir /home/gridsan/epan1/labutil/lab3_samples/problem3/Lab3/CuAu_a_2.766_c_3.623_ecut_40_nk_2/pwscf.save/
     NEW-OLD atomic charge density approx. for the potential
     extrapolated charge   23.15002, renormalised to   22.00000
     Generating pointlists ...

     total cpu time spent up to now is        3.2 secs

     Self-consistent Calculation

     iteration #  1     ecut=    40.00 Ry     beta= 0.50
     Davidson diagonalization with overlap
     ethr =  1.00E-06,  avg # of iterations =  7.4

     total cpu time spent up to now is        3.5 secs

     total energy              =    -153.09845993 Ry
     estimated scf accuracy    <       1.77951437 Ry

     total magnetization       =    -0.03 Bohr mag/cell
     absolute magnetization    =     0.03 Bohr mag/cell

     iteration #  2     ecut=    40.00 Ry     beta= 0.50
     Davidson diagonalization with overlap
     ethr =  8.09E-03,  avg # of iterations =  2.2

     total cpu time spent up to now is        3.6 secs

     total energy              =    -154.59277155 Ry
     estimated scf accuracy    <       3.46880143 Ry

     total magnetization       =    -0.00 Bohr mag/cell
     absolute magnetization    =     0.00 Bohr mag/cell

     iteration #  3     ecut=    40.00 Ry     beta= 0.50
     Davidson diagonalization with overlap
     ethr =  8.09E-03,  avg # of iterations =  1.3

     total cpu time spent up to now is        3.7 secs

     total energy              =    -154.71197955 Ry
     estimated scf accuracy    <       0.79044841 Ry

     total magnetization       =    -0.00 Bohr mag/cell
     absolute magnetization    =     0.00 Bohr mag/cell

     iteration #  4     ecut=    40.00 Ry     beta= 0.50
     Davidson diagonalization with overlap
     ethr =  3.59E-03,  avg # of iterations =  1.0

     total cpu time spent up to now is        3.8 secs

     total energy              =    -154.61861305 Ry
     estimated scf accuracy    <       0.45190077 Ry

     total magnetization       =    -0.00 Bohr mag/cell
     absolute magnetization    =     0.00 Bohr mag/cell

     iteration #  5     ecut=    40.00 Ry     beta= 0.50
     Davidson diagonalization with overlap
     ethr =  2.05E-03,  avg # of iterations =  1.0

     total cpu time spent up to now is        3.9 secs

     total energy              =    -154.63307481 Ry
     estimated scf accuracy    <       0.18537090 Ry

     total magnetization       =    -0.00 Bohr mag/cell
     absolute magnetization    =     0.00 Bohr mag/cell

     iteration #  6     ecut=    40.00 Ry     beta= 0.50
     Davidson diagonalization with overlap
     ethr =  8.43E-04,  avg # of iterations =  1.0

     total cpu time spent up to now is        4.0 secs

     total energy              =    -154.59255712 Ry
     estimated scf accuracy    <       0.19189294 Ry

     total magnetization       =    -0.00 Bohr mag/cell
     absolute magnetization    =     0.00 Bohr mag/cell

     iteration #  7     ecut=    40.00 Ry     beta= 0.50
     Davidson diagonalization with overlap
     ethr =  8.43E-04,  avg # of iterations =  1.0

     total cpu time spent up to now is        4.1 secs

     total energy              =    -154.59663887 Ry
     estimated scf accuracy    <       0.07890332 Ry

     total magnetization       =    -0.00 Bohr mag/cell
     absolute magnetization    =     0.00 Bohr mag/cell

     iteration #  8     ecut=    40.00 Ry     beta= 0.50
     Davidson diagonalization with overlap
     ethr =  3.59E-04,  avg # of iterations =  1.0

     total cpu time spent up to now is        4.3 secs

     total energy              =    -154.56011861 Ry
     estimated scf accuracy    <       0.07583213 Ry

     total magnetization       =    -0.00 Bohr mag/cell
     absolute magnetization    =     0.00 Bohr mag/cell

     iteration #  9     ecut=    40.00 Ry     beta= 0.50
     Davidson diagonalization with overlap
     ethr =  3.45E-04,  avg # of iterations =  2.0

     total cpu time spent up to now is        4.4 secs

     total energy              =    -154.56468851 Ry
     estimated scf accuracy    <       0.05721664 Ry

     total magnetization       =    -0.00 Bohr mag/cell
     absolute magnetization    =     0.00 Bohr mag/cell

     iteration # 10     ecut=    40.00 Ry     beta= 0.50
     Davidson diagonalization with overlap
     ethr =  2.60E-04,  avg # of iterations =  1.2

     total cpu time spent up to now is        4.5 secs

     total energy              =    -154.57358881 Ry
     estimated scf accuracy    <       0.02556522 Ry

     total magnetization       =    -0.00 Bohr mag/cell
     absolute magnetization    =     0.00 Bohr mag/cell

     iteration # 11     ecut=    40.00 Ry     beta= 0.50
     Davidson diagonalization with overlap
     ethr =  1.16E-04,  avg # of iterations =  1.2

     total cpu time spent up to now is        4.6 secs

     total energy              =    -154.57826321 Ry
     estimated scf accuracy    <       0.00459591 Ry

     total magnetization       =    -0.00 Bohr mag/cell
     absolute magnetization    =     0.00 Bohr mag/cell

     iteration # 12     ecut=    40.00 Ry     beta= 0.50
     Davidson diagonalization with overlap
     ethr =  2.09E-05,  avg # of iterations =  1.0

     total cpu time spent up to now is        4.7 secs

     total energy              =    -154.57766925 Ry
     estimated scf accuracy    <       0.00242101 Ry

     total magnetization       =    -0.00 Bohr mag/cell
     absolute magnetization    =     0.00 Bohr mag/cell

     iteration # 13     ecut=    40.00 Ry     beta= 0.50
     Davidson diagonalization with overlap
     ethr =  1.10E-05,  avg # of iterations =  1.0

     total cpu time spent up to now is        4.8 secs

     total energy              =    -154.57792286 Ry
     estimated scf accuracy    <       0.00037556 Ry

     total magnetization       =    -0.00 Bohr mag/cell
     absolute magnetization    =     0.00 Bohr mag/cell

     iteration # 14     ecut=    40.00 Ry     beta= 0.50
     Davidson diagonalization with overlap
     ethr =  1.71E-06,  avg # of iterations =  2.0

     total cpu time spent up to now is        4.9 secs

     total energy              =    -154.57792758 Ry
     estimated scf accuracy    <       0.00145394 Ry

     total magnetization       =    -0.00 Bohr mag/cell
     absolute magnetization    =     0.00 Bohr mag/cell

     iteration # 15     ecut=    40.00 Ry     beta= 0.50
     Davidson diagonalization with overlap
     ethr =  1.71E-06,  avg # of iterations =  1.0

     total cpu time spent up to now is        5.1 secs

     total energy              =    -154.57798999 Ry
     estimated scf accuracy    <       0.00021352 Ry

     total magnetization       =    -0.00 Bohr mag/cell
     absolute magnetization    =     0.00 Bohr mag/cell

     iteration # 16     ecut=    40.00 Ry     beta= 0.50
     Davidson diagonalization with overlap
     ethr =  9.71E-07,  avg # of iterations =  1.0

     total cpu time spent up to now is        5.2 secs

     total energy              =    -154.57792276 Ry
     estimated scf accuracy    <       0.00030907 Ry

     total magnetization       =    -0.00 Bohr mag/cell
     absolute magnetization    =     0.00 Bohr mag/cell

     iteration # 17     ecut=    40.00 Ry     beta= 0.50
     Davidson diagonalization with overlap
     ethr =  9.71E-07,  avg # of iterations =  1.0

     total cpu time spent up to now is        5.3 secs

     total energy              =    -154.57794873 Ry
     estimated scf accuracy    <       0.00001346 Ry

     total magnetization       =    -0.00 Bohr mag/cell
     absolute magnetization    =     0.00 Bohr mag/cell

     iteration # 18     ecut=    40.00 Ry     beta= 0.50
     Davidson diagonalization with overlap
     ethr =  6.12E-08,  avg # of iterations =  2.0

     total cpu time spent up to now is        5.4 secs

     total energy              =    -154.57794754 Ry
     estimated scf accuracy    <       0.00000605 Ry

     total magnetization       =    -0.00 Bohr mag/cell
     absolute magnetization    =     0.00 Bohr mag/cell

     iteration # 19     ecut=    40.00 Ry     beta= 0.50
     Davidson diagonalization with overlap
     ethr =  2.75E-08,  avg # of iterations =  1.8

     total cpu time spent up to now is        5.5 secs

     total energy              =    -154.57794782 Ry
     estimated scf accuracy    <       0.00000604 Ry

     total magnetization       =    -0.00 Bohr mag/cell
     absolute magnetization    =     0.00 Bohr mag/cell

     iteration # 20     ecut=    40.00 Ry     beta= 0.50
     Davidson diagonalization with overlap
     ethr =  2.75E-08,  avg # of iterations =  1.0

     total cpu time spent up to now is        5.6 secs

     total energy              =    -154.57794817 Ry
     estimated scf accuracy    <       0.00000050 Ry

     total magnetization       =    -0.00 Bohr mag/cell
     absolute magnetization    =     0.00 Bohr mag/cell

     iteration # 21     ecut=    40.00 Ry     beta= 0.50
     Davidson diagonalization with overlap
     ethr =  2.25E-09,  avg # of iterations =  1.1

     Magnetic moment per site  (integrated on atomic sphere of radius R)
     atom   1 (R=0.398)  charge=  9.9908  magn= -0.0034
     atom   2 (R=0.398)  charge=  8.7338  magn= -0.0001

     total cpu time spent up to now is        5.7 secs

     End of self-consistent calculation

 ------ SPIN UP ------------


          k = 0.0000 0.0000 0.0000 (   821 PWs)   bands (ev):

     4.8661   7.7642   8.1899  10.4911  10.4911  11.3660  11.8320  12.5420
    12.9272  13.1670  13.1670  16.9583  22.7578  24.8482  24.8482

          k = 0.0000 0.0000-0.3765 (   814 PWs)   bands (ev):

     6.5427   8.0007   9.0142  10.8009  10.8009  10.9899  11.4912  11.5680
    12.3587  12.3587  12.3904  12.7013  29.3905  29.3905  29.7627

          k = 0.0000-0.4901 0.0000 (   806 PWs)   bands (ev):

     7.7343   9.0479   9.2978  10.2308  10.2709  11.2302  11.6731  11.7417
    12.2863  12.4993  13.8234  14.1817  24.2884  24.4792  25.8607

          k = 0.0000-0.4901-0.3765 (   780 PWs)   bands (ev):

     7.7067   7.7620   9.9108  10.4666  10.5987  11.9980  12.6419  12.9399
    13.0334  13.0865  13.5725  13.7792  17.0447  19.2313  31.6707

          k =-0.4901-0.4901 0.0000 (   800 PWs)   bands (ev):

     7.3879   8.7684   8.7684   9.0711  12.5971  12.8708  12.9625  13.0202
    13.2717  13.2717  15.3114  15.3114  19.3920  21.6141  25.3332

          k =-0.4901-0.4901-0.3765 (   816 PWs)   bands (ev):

     7.8694   8.8425   8.8425  11.2091  11.4336  11.4897  11.4897  12.5736
    12.6021  13.0219  20.0282  20.0282  20.2767  20.5060  21.6835

 ------ SPIN DOWN ----------


          k = 0.0000 0.0000 0.0000 (   821 PWs)   bands (ev):

     4.8652   7.7638   8.1890  10.4905  10.4905  11.3656  11.8262  12.5382
    12.9244  13.1647  13.1647  16.9574  22.7565  24.8470  24.8470

          k = 0.0000 0.0000-0.3765 (   814 PWs)   bands (ev):

     6.5423   8.0006   9.0125  10.8008  10.8008  10.9896  11.4852  11.5680
    12.3558  12.3558  12.3863  12.6981  29.3897  29.3897  29.7603

          k = 0.0000-0.4901 0.0000 (   806 PWs)   bands (ev):

     7.7338   9.0476   9.2973  10.2285  10.2708  11.2301  11.6704  11.7370
    12.2832  12.4963  13.8184  14.1814  24.2871  24.4775  25.8595

          k = 0.0000-0.4901-0.3765 (   780 PWs)   bands (ev):

     7.7060   7.7615   9.9103  10.4658  10.5979  11.9930  12.6407  12.9344
    13.0308  13.0841  13.5718  13.7777  17.0435  19.2298  31.6701

          k =-0.4901-0.4901 0.0000 (   800 PWs)   bands (ev):

     7.3875   8.7677   8.7677   9.0698  12.5971  12.8690  12.9582  13.0135
    13.2693  13.2693  15.3103  15.3103  19.3910  21.6128  25.3324

          k =-0.4901-0.4901-0.3765 (   816 PWs)   bands (ev):

     7.8692   8.8422   8.8422  11.2062  11.4335  11.4871  11.4871  12.5692
    12.6022  13.0152  20.0271  20.0271  20.2763  20.5043  21.6816

     the Fermi energy is    13.8842 ev

!    total energy              =    -154.57794822 Ry
     estimated scf accuracy    <       0.00000005 Ry
     smearing contrib. (-TS)   =      -0.00072364 Ry
     internal energy E=F+TS    =    -154.57722458 Ry

     The total energy is F=E-TS. E is the sum of the following terms:
     one-electron contribution =      -7.59074011 Ry
     hartree contribution      =      28.72539044 Ry
     xc contribution           =     -24.46817634 Ry
     ewald contribution        =    -151.24369858 Ry

     total magnetization       =    -0.00 Bohr mag/cell
     absolute magnetization    =     0.00 Bohr mag/cell

     convergence has been achieved in  21 iterations

     Forces acting on atoms (cartesian axes, Ry/au):

     atom    1 type  2   force =     0.00000000    0.00000000    0.00000000
     atom    2 type  1   force =     0.00000000    0.00000000    0.00000000
     The non-local contrib.  to forces
     atom    1 type  2   force =     0.00000000    0.00000000    0.00000000
     atom    2 type  1   force =     0.00000000    0.00000000    0.00000000
     The ionic contribution  to forces
     atom    1 type  2   force =    -0.00000000   -0.00000000   -0.00000000
     atom    2 type  1   force =    -0.00000000   -0.00000000   -0.00000000
     The local contribution  to forces
     atom    1 type  2   force =     0.00000000    0.00000000   -0.00000000
     atom    2 type  1   force =    -0.00000000   -0.00000000   -0.00000000
     The core correction contribution to forces
     atom    1 type  2   force =     0.00000000    0.00000000    0.00000000
     atom    2 type  1   force =     0.00000000    0.00000000    0.00000000
     The Hubbard contrib.    to forces
     atom    1 type  2   force =     0.00000000    0.00000000    0.00000000
     atom    2 type  1   force =     0.00000000    0.00000000    0.00000000
     The SCF correction term to forces
     atom    1 type  2   force =     0.00000000    0.00000000   -0.00000000
     atom    2 type  1   force =    -0.00000000   -0.00000000   -0.00000000

     Total force =     0.000000     Total SCF correction =     0.000000


     Computing stress (Cartesian axis) and pressure

          total   stress  (Ry/bohr**3)                   (kbar)     P=        1.09
   0.00005283   0.00000000   0.00000000            7.77        0.00        0.00
   0.00000000   0.00005283   0.00000000            0.00        7.77        0.00
   0.00000000   0.00000000  -0.00008346            0.00        0.00      -12.28

     Energy error            =      3.6E-03 Ry
     Gradient error          =      0.0E+00 Ry/Bohr
     Cell gradient error     =      1.2E+01 kbar

     number of scf cycles    =   2
     number of bfgs steps    =   1

     enthalpy           old  =    -154.5743299863 Ry
     enthalpy           new  =    -154.5779482245 Ry

     CASE: enthalpy          _new < enthalpy          _old

     new trust radius        =       0.0058549760 bohr
     new conv_thr            =       0.0000000010 Ry

     new unit-cell volume =    197.56634 a.u.^3 (    29.27631 Ang^3 )
     density =     14.77615 g/cm^3

CELL_PARAMETERS (angstrom)
   2.826056899   0.000000000   0.000000000
   0.000000000   2.826056899   0.000000000
   0.000000000   0.000000000   3.665679972

ATOMIC_POSITIONS (angstrom)
Cu            0.0000000000        0.0000000000        0.0000000000
Au            1.4130284494        1.4130284494        1.8328399860



     Writing config-only to output data dir /home/gridsan/epan1/labutil/lab3_samples/problem3/Lab3/CuAu_a_2.766_c_3.623_ecut_40_nk_2/pwscf.save/
     NEW-OLD atomic charge density approx. for the potential
     extrapolated charge   22.02158, renormalised to   22.00000
     Generating pointlists ...

     total cpu time spent up to now is        6.2 secs

     Self-consistent Calculation

     iteration #  1     ecut=    40.00 Ry     beta= 0.50
     Davidson diagonalization with overlap
     ethr =  1.00E-06,  avg # of iterations =  3.0

     total cpu time spent up to now is        6.4 secs

     total energy              =    -154.57732536 Ry
     estimated scf accuracy    <       0.00084397 Ry

     total magnetization       =    -0.00 Bohr mag/cell
     absolute magnetization    =     0.01 Bohr mag/cell

     iteration #  2     ecut=    40.00 Ry     beta= 0.50
     Davidson diagonalization with overlap
     ethr =  3.84E-06,  avg # of iterations =  2.0

     total cpu time spent up to now is        6.5 secs

     total energy              =    -154.57740136 Ry
     estimated scf accuracy    <       0.01162754 Ry

     total magnetization       =    -0.00 Bohr mag/cell
     absolute magnetization    =     0.00 Bohr mag/cell

     iteration #  3     ecut=    40.00 Ry     beta= 0.50
     Davidson diagonalization with overlap
     ethr =  3.84E-06,  avg # of iterations =  2.0

     total cpu time spent up to now is        6.6 secs

     total energy              =    -154.57802582 Ry
     estimated scf accuracy    <       0.00067698 Ry

     total magnetization       =    -0.00 Bohr mag/cell
     absolute magnetization    =     0.00 Bohr mag/cell

     iteration #  4     ecut=    40.00 Ry     beta= 0.50
     Davidson diagonalization with overlap
     ethr =  3.08E-06,  avg # of iterations =  1.0

     total cpu time spent up to now is        6.7 secs

     total energy              =    -154.57799727 Ry
     estimated scf accuracy    <       0.00027607 Ry

     total magnetization       =    -0.00 Bohr mag/cell
     absolute magnetization    =     0.01 Bohr mag/cell

     iteration #  5     ecut=    40.00 Ry     beta= 0.50
     Davidson diagonalization with overlap
     ethr =  1.25E-06,  avg # of iterations =  1.0

     total cpu time spent up to now is        6.9 secs

     total energy              =    -154.57800246 Ry
     estimated scf accuracy    <       0.00003288 Ry

     total magnetization       =    -0.01 Bohr mag/cell
     absolute magnetization    =     0.01 Bohr mag/cell

     iteration #  6     ecut=    40.00 Ry     beta= 0.50
     Davidson diagonalization with overlap
     ethr =  1.49E-07,  avg # of iterations =  1.0

     total cpu time spent up to now is        7.0 secs

     total energy              =    -154.57800520 Ry
     estimated scf accuracy    <       0.00000020 Ry

     total magnetization       =    -0.01 Bohr mag/cell
     absolute magnetization    =     0.01 Bohr mag/cell

     iteration #  7     ecut=    40.00 Ry     beta= 0.50
     Davidson diagonalization with overlap
     ethr =  9.00E-10,  avg # of iterations =  3.0

     total cpu time spent up to now is        7.1 secs

     total energy              =    -154.57800546 Ry
     estimated scf accuracy    <       0.00000030 Ry

     total magnetization       =    -0.01 Bohr mag/cell
     absolute magnetization    =     0.01 Bohr mag/cell

     iteration #  8     ecut=    40.00 Ry     beta= 0.50
     Davidson diagonalization with overlap
     ethr =  9.00E-10,  avg # of iterations =  2.0

     total cpu time spent up to now is        7.2 secs

     total energy              =    -154.57800520 Ry
     estimated scf accuracy    <       0.00000246 Ry

     total magnetization       =    -0.01 Bohr mag/cell
     absolute magnetization    =     0.01 Bohr mag/cell

     iteration #  9     ecut=    40.00 Ry     beta= 0.50
     Davidson diagonalization with overlap
     ethr =  9.00E-10,  avg # of iterations =  1.9

     total cpu time spent up to now is        7.3 secs

     total energy              =    -154.57800533 Ry
     estimated scf accuracy    <       0.00000020 Ry

     total magnetization       =    -0.01 Bohr mag/cell
     absolute magnetization    =     0.01 Bohr mag/cell

     iteration # 10     ecut=    40.00 Ry     beta= 0.50
     Davidson diagonalization with overlap
     ethr =  9.00E-10,  avg # of iterations =  1.0

     total cpu time spent up to now is        7.4 secs

     total energy              =    -154.57800513 Ry
     estimated scf accuracy    <       0.00000032 Ry

     total magnetization       =    -0.01 Bohr mag/cell
     absolute magnetization    =     0.01 Bohr mag/cell

     iteration # 11     ecut=    40.00 Ry     beta= 0.50
     Davidson diagonalization with overlap
     ethr =  9.00E-10,  avg # of iterations =  1.3

     total cpu time spent up to now is        7.6 secs

     total energy              =    -154.57800520 Ry
     estimated scf accuracy    <       0.00000001 Ry

     total magnetization       =    -0.00 Bohr mag/cell
     absolute magnetization    =     0.00 Bohr mag/cell

     iteration # 12     ecut=    40.00 Ry     beta= 0.50
     Davidson diagonalization with overlap
     ethr =  4.90E-11,  avg # of iterations =  2.1

     total cpu time spent up to now is        7.7 secs

     total energy              =    -154.57800523 Ry
     estimated scf accuracy    <          1.7E-09 Ry

     total magnetization       =    -0.00 Bohr mag/cell
     absolute magnetization    =     0.00 Bohr mag/cell

     iteration # 13     ecut=    40.00 Ry     beta= 0.50
     Davidson diagonalization with overlap
     ethr =  7.62E-12,  avg # of iterations =  2.7

     Magnetic moment per site  (integrated on atomic sphere of radius R)
     atom   1 (R=0.398)  charge=  9.9908  magn= -0.0000
     atom   2 (R=0.398)  charge=  8.7333  magn=  0.0000

     total cpu time spent up to now is        7.8 secs

     End of self-consistent calculation

 ------ SPIN UP ------------


          k = 0.0000 0.0000 0.0000 (   821 PWs)   bands (ev):

     4.8569   7.7624   8.1820  10.4714  10.4714  11.3375  11.8238  12.5321
    12.9108  13.1508  13.1508  16.9906  22.7924  24.7749  24.7749

          k = 0.0000 0.0000-0.3773 (   814 PWs)   bands (ev):

     6.5472   8.0034   9.0075  10.7761  10.7761  10.9941  11.4780  11.5427
    12.3404  12.3404  12.3848  12.6812  29.3377  29.3377  29.7056

          k = 0.0000-0.4894 0.0000 (   806 PWs)   bands (ev):

     7.7252   9.0474   9.2797  10.2102  10.2540  11.2084  11.6642  11.7278
    12.2679  12.4823  13.7957  14.1406  24.3005  24.5015  25.8844

          k = 0.0000-0.4894-0.3773 (   780 PWs)   bands (ev):

     7.6960   7.7580   9.8907  10.4379  10.5996  11.9896  12.6154  12.9194
    13.0215  13.0738  13.5605  13.7598  17.0173  19.2150  31.6128

          k =-0.4894-0.4894 0.0000 (   800 PWs)   bands (ev):

     7.3844   8.7619   8.7619   9.0484  12.5651  12.8486  12.9445  12.9979
    13.2591  13.2591  15.2714  15.2714  19.3318  21.5642  25.3391

          k =-0.4894-0.4894-0.3773 (   816 PWs)   bands (ev):

     7.8699   8.8273   8.8273  11.1961  11.4211  11.4738  11.4738  12.5611
    12.5703  12.9996  20.0068  20.0068  20.2206  20.4639  21.6387

 ------ SPIN DOWN ----------


          k = 0.0000 0.0000 0.0000 (   821 PWs)   bands (ev):

     4.8569   7.7624   8.1820  10.4714  10.4714  11.3375  11.8237  12.5321
    12.9108  13.1507  13.1507  16.9906  22.7924  24.7750  24.7750

          k = 0.0000 0.0000-0.3773 (   814 PWs)   bands (ev):

     6.5472   8.0034   9.0075  10.7761  10.7761  10.9941  11.4780  11.5427
    12.3404  12.3404  12.3848  12.6811  29.3377  29.3377  29.7056

          k = 0.0000-0.4894 0.0000 (   806 PWs)   bands (ev):

     7.7252   9.0474   9.2797  10.2102  10.2540  11.2085  11.6641  11.7278
    12.2679  12.4822  13.7957  14.1406  24.3006  24.5015  25.8845

          k = 0.0000-0.4894-0.3773 (   780 PWs)   bands (ev):

     7.6960   7.7580   9.8907  10.4379  10.5996  11.9896  12.6154  12.9193
    13.0215  13.0738  13.5605  13.7598  17.0173  19.2150  31.6128

          k =-0.4894-0.4894 0.0000 (   800 PWs)   bands (ev):

     7.3844   8.7619   8.7619   9.0484  12.5651  12.8486  12.9444  12.9978
    13.2591  13.2591  15.2714  15.2714  19.3318  21.5642  25.3391

          k =-0.4894-0.4894-0.3773 (   816 PWs)   bands (ev):

     7.8699   8.8273   8.8273  11.1960  11.4211  11.4738  11.4738  12.5610
    12.5703  12.9995  20.0068  20.0068  20.2207  20.4640  21.6387

     the Fermi energy is    13.8613 ev

!    total energy              =    -154.57800526 Ry
     estimated scf accuracy    <          7.5E-11 Ry
     smearing contrib. (-TS)   =      -0.00079696 Ry
     internal energy E=F+TS    =    -154.57720830 Ry

     The total energy is F=E-TS. E is the sum of the following terms:
     one-electron contribution =      -7.66843100 Ry
     hartree contribution      =      28.75266725 Ry
     xc contribution           =     -24.46772411 Ry
     ewald contribution        =    -151.19372044 Ry

     total magnetization       =    -0.00 Bohr mag/cell
     absolute magnetization    =     0.00 Bohr mag/cell

     convergence has been achieved in  13 iterations

     Forces acting on atoms (cartesian axes, Ry/au):

     atom    1 type  2   force =     0.00000000    0.00000000    0.00000000
     atom    2 type  1   force =     0.00000000    0.00000000    0.00000000
     The non-local contrib.  to forces
     atom    1 type  2   force =     0.00000000    0.00000000    0.00000000
     atom    2 type  1   force =     0.00000000    0.00000000    0.00000000
     The ionic contribution  to forces
     atom    1 type  2   force =    -0.00000000   -0.00000000   -0.00000000
     atom    2 type  1   force =    -0.00000000   -0.00000000   -0.00000000
     The local contribution  to forces
     atom    1 type  2   force =     0.00000000    0.00000000   -0.00000000
     atom    2 type  1   force =    -0.00000000   -0.00000000   -0.00000000
     The core correction contribution to forces
     atom    1 type  2   force =     0.00000000    0.00000000    0.00000000
     atom    2 type  1   force =     0.00000000    0.00000000    0.00000000
     The Hubbard contrib.    to forces
     atom    1 type  2   force =     0.00000000    0.00000000    0.00000000
     atom    2 type  1   force =     0.00000000    0.00000000    0.00000000
     The SCF correction term to forces
     atom    1 type  2   force =     0.00000000   -0.00000000   -0.00000000
     atom    2 type  1   force =    -0.00000000   -0.00000000   -0.00000000

     Total force =     0.000000     Total SCF correction =     0.000000


     Computing stress (Cartesian axis) and pressure

          total   stress  (Ry/bohr**3)                   (kbar)     P=       -0.71
   0.00003074   0.00000000   0.00000000            4.52        0.00        0.00
   0.00000000   0.00003074   0.00000000            0.00        4.52        0.00
   0.00000000   0.00000000  -0.00007588            0.00        0.00      -11.16

     Energy error            =      5.7E-05 Ry
     Gradient error          =      0.0E+00 Ry/Bohr
     Cell gradient error     =      1.1E+01 kbar

     number of scf cycles    =   3
     number of bfgs steps    =   2

     enthalpy           old  =    -154.5779482245 Ry
     enthalpy           new  =    -154.5780052628 Ry

     CASE: enthalpy          _new < enthalpy          _old

     new trust radius        =       0.0064570904 bohr
     new conv_thr            =       0.0000000010 Ry

     new unit-cell volume =    197.57554 a.u.^3 (    29.27767 Ang^3 )
     density =     14.77547 g/cm^3

CELL_PARAMETERS (angstrom)
   2.829374031   0.000000000   0.000000000
   0.000000000   2.829374031   0.000000000
   0.000000000   0.000000000   3.657260111

ATOMIC_POSITIONS (angstrom)
Cu            0.0000000000        0.0000000000        0.0000000000
Au            1.4146870154        1.4146870154        1.8286300553



     Writing config-only to output data dir /home/gridsan/epan1/labutil/lab3_samples/problem3/Lab3/CuAu_a_2.766_c_3.623_ecut_40_nk_2/pwscf.save/
     NEW-OLD atomic charge density approx. for the potential
     extrapolated charge   22.00102, renormalised to   22.00000
     Generating pointlists ...

     total cpu time spent up to now is        8.3 secs

     Self-consistent Calculation

     iteration #  1     ecut=    40.00 Ry     beta= 0.50
     Davidson diagonalization with overlap
     ethr =  1.00E-06,  avg # of iterations =  2.8

     Threshold (ethr) on eigenvalues was too large:
     Diagonalizing with lowered threshold

     Davidson diagonalization with overlap
     ethr =  1.96E-08,  avg # of iterations =  1.8

     total cpu time spent up to now is        8.6 secs

     total energy              =    -154.57804852 Ry
     estimated scf accuracy    <       0.00000405 Ry

     total magnetization       =    -0.00 Bohr mag/cell
     absolute magnetization    =     0.00 Bohr mag/cell

     iteration #  2     ecut=    40.00 Ry     beta= 0.50
     Davidson diagonalization with overlap
     ethr =  1.84E-08,  avg # of iterations =  1.5

     total cpu time spent up to now is        8.7 secs

     total energy              =    -154.57804905 Ry
     estimated scf accuracy    <       0.00000075 Ry

     total magnetization       =    -0.00 Bohr mag/cell
     absolute magnetization    =     0.00 Bohr mag/cell

     iteration #  3     ecut=    40.00 Ry     beta= 0.50
     Davidson diagonalization with overlap
     ethr =  3.43E-09,  avg # of iterations =  1.8

     total cpu time spent up to now is        8.8 secs

     total energy              =    -154.57804913 Ry
     estimated scf accuracy    <       0.00000153 Ry

     total magnetization       =    -0.00 Bohr mag/cell
     absolute magnetization    =     0.00 Bohr mag/cell

     iteration #  4     ecut=    40.00 Ry     beta= 0.50
     Davidson diagonalization with overlap
     ethr =  3.43E-09,  avg # of iterations =  1.0

     total cpu time spent up to now is        8.9 secs

     total energy              =    -154.57804926 Ry
     estimated scf accuracy    <       0.00000005 Ry

     total magnetization       =    -0.00 Bohr mag/cell
     absolute magnetization    =     0.00 Bohr mag/cell

     iteration #  5     ecut=    40.00 Ry     beta= 0.50
     Davidson diagonalization with overlap
     ethr =  2.05E-10,  avg # of iterations =  1.5

     total cpu time spent up to now is        9.0 secs

     total energy              =    -154.57804926 Ry
     estimated scf accuracy    <       0.00000002 Ry

     total magnetization       =    -0.00 Bohr mag/cell
     absolute magnetization    =     0.00 Bohr mag/cell

     iteration #  6     ecut=    40.00 Ry     beta= 0.50
     Davidson diagonalization with overlap
     ethr =  1.05E-10,  avg # of iterations =  1.0

     Magnetic moment per site  (integrated on atomic sphere of radius R)
     atom   1 (R=0.398)  charge=  9.9919  magn= -0.0000
     atom   2 (R=0.398)  charge=  8.7335  magn=  0.0000

     total cpu time spent up to now is        9.1 secs

     End of self-consistent calculation

 ------ SPIN UP ------------


          k = 0.0000 0.0000 0.0000 (   821 PWs)   bands (ev):

     4.8589   7.7733   8.1873  10.4687  10.4687  11.3280  11.8330  12.5403
    12.9127  13.1534  13.1534  17.0402  22.8534  24.7285  24.7285

          k = 0.0000 0.0000-0.3782 (   814 PWs)   bands (ev):

     6.5631   8.0191   9.0150  10.7697  10.7697  11.0158  11.4817  11.5373
    12.3392  12.3392  12.3963  12.6787  29.3142  29.3142  29.6759

          k = 0.0000-0.4888 0.0000 (   806 PWs)   bands (ev):

     7.7294   9.0615   9.2772  10.2047  10.2543  11.2058  11.6709  11.7305
    12.2664  12.4824  13.7884  14.1228  24.3373  24.5471  25.9352

          k = 0.0000-0.4888-0.3782 (   780 PWs)   bands (ev):

     7.6983   7.7669   9.8869  10.4265  10.6169  11.9984  12.6087  12.9181
    13.0280  13.0800  13.5645  13.7575  17.0150  19.2242  31.5816

          k =-0.4888-0.4888 0.0000 (   800 PWs)   bands (ev):

     7.3927   8.7694   8.7694   9.0404  12.5549  12.8457  12.9452  12.9952
    13.2653  13.2653  15.2503  15.2503  19.2999  21.5428  25.3675

          k =-0.4888-0.4888-0.3782 (   816 PWs)   bands (ev):

     7.8829   8.8268   8.8268  11.1983  11.4277  11.4736  11.4736  12.5603
    12.5663  12.9970  20.0081  20.0081  20.1942  20.4471  21.6185

 ------ SPIN DOWN ----------


          k = 0.0000 0.0000 0.0000 (   821 PWs)   bands (ev):

     4.8589   7.7733   8.1873  10.4687  10.4687  11.3280  11.8329  12.5402
    12.9127  13.1534  13.1534  17.0402  22.8534  24.7285  24.7285

          k = 0.0000 0.0000-0.3782 (   814 PWs)   bands (ev):

     6.5631   8.0191   9.0150  10.7697  10.7697  11.0158  11.4816  11.5373
    12.3392  12.3392  12.3962  12.6786  29.3142  29.3142  29.6758

          k = 0.0000-0.4888 0.0000 (   806 PWs)   bands (ev):

     7.7294   9.0615   9.2772  10.2047  10.2543  11.2058  11.6709  11.7305
    12.2664  12.4824  13.7883  14.1228  24.3373  24.5471  25.9352

          k = 0.0000-0.4888-0.3782 (   780 PWs)   bands (ev):

     7.6983   7.7669   9.8869  10.4265  10.6169  11.9983  12.6087  12.9180
    13.0280  13.0800  13.5645  13.7575  17.0149  19.2242  31.5816

          k =-0.4888-0.4888 0.0000 (   800 PWs)   bands (ev):

     7.3927   8.7694   8.7694   9.0404  12.5549  12.8457  12.9452  12.9952
    13.2653  13.2653  15.2503  15.2503  19.2999  21.5428  25.3675

          k =-0.4888-0.4888-0.3782 (   816 PWs)   bands (ev):

     7.8829   8.8268   8.8268  11.1983  11.4277  11.4736  11.4736  12.5603
    12.5662  12.9970  20.0081  20.0081  20.1942  20.4471  21.6185

     the Fermi energy is    13.8556 ev

!    total energy              =    -154.57804926 Ry
     estimated scf accuracy    <          9.0E-11 Ry
     smearing contrib. (-TS)   =      -0.00086282 Ry
     internal energy E=F+TS    =    -154.57718645 Ry

     The total energy is F=E-TS. E is the sum of the following terms:
     one-electron contribution =      -7.67694932 Ry
     hartree contribution      =      28.75921164 Ry
     xc contribution           =     -24.46854583 Ry
     ewald contribution        =    -151.19090294 Ry

     total magnetization       =    -0.00 Bohr mag/cell
     absolute magnetization    =     0.00 Bohr mag/cell

     convergence has been achieved in   6 iterations

     Forces acting on atoms (cartesian axes, Ry/au):

     atom    1 type  2   force =     0.00000000    0.00000000    0.00000000
     atom    2 type  1   force =     0.00000000    0.00000000    0.00000000
     The non-local contrib.  to forces
     atom    1 type  2   force =     0.00000000    0.00000000    0.00000000
     atom    2 type  1   force =     0.00000000    0.00000000    0.00000000
     The ionic contribution  to forces
     atom    1 type  2   force =    -0.00000000   -0.00000000   -0.00000000
     atom    2 type  1   force =    -0.00000000   -0.00000000   -0.00000000
     The local contribution  to forces
     atom    1 type  2   force =     0.00000000    0.00000000   -0.00000000
     atom    2 type  1   force =    -0.00000000   -0.00000000   -0.00000000
     The core correction contribution to forces
     atom    1 type  2   force =     0.00000000    0.00000000    0.00000000
     atom    2 type  1   force =     0.00000000    0.00000000    0.00000000
     The Hubbard contrib.    to forces
     atom    1 type  2   force =     0.00000000    0.00000000    0.00000000
     atom    2 type  1   force =     0.00000000    0.00000000    0.00000000
     The SCF correction term to forces
     atom    1 type  2   force =    -0.00000000   -0.00000000   -0.00000000
     atom    2 type  1   force =    -0.00000000   -0.00000000    0.00000000

     Total force =     0.000000     Total SCF correction =     0.000000


     Computing stress (Cartesian axis) and pressure

          total   stress  (Ry/bohr**3)                   (kbar)     P=       -0.03
   0.00002658   0.00000000   0.00000000            3.91        0.00        0.00
   0.00000000   0.00002658   0.00000000            0.00        3.91        0.00
   0.00000000   0.00000000  -0.00005369            0.00        0.00       -7.90

     Energy error            =      4.4E-05 Ry
     Gradient error          =      0.0E+00 Ry/Bohr
     Cell gradient error     =      7.9E+00 kbar

     number of scf cycles    =   4
     number of bfgs steps    =   3

     enthalpy           old  =    -154.5780052628 Ry
     enthalpy           new  =    -154.5780492636 Ry

     CASE: enthalpy          _new < enthalpy          _old

     new trust radius        =       0.0097081602 bohr
     new conv_thr            =       0.0000000010 Ry

     new unit-cell volume =    197.67883 a.u.^3 (    29.29298 Ang^3 )
     density =     14.76775 g/cm^3

CELL_PARAMETERS (angstrom)
   2.835012921   0.000000000   0.000000000
   0.000000000   2.835012921   0.000000000
   0.000000000   0.000000000   3.644630319

ATOMIC_POSITIONS (angstrom)
Cu            0.0000000000        0.0000000000        0.0000000000
Au            1.4175064605        1.4175064605        1.8223151593



     Writing config-only to output data dir /home/gridsan/epan1/labutil/lab3_samples/problem3/Lab3/CuAu_a_2.766_c_3.623_ecut_40_nk_2/pwscf.save/
     NEW-OLD atomic charge density approx. for the potential
     extrapolated charge   22.01150, renormalised to   22.00000
     Generating pointlists ...

     total cpu time spent up to now is       10.5 secs

     Self-consistent Calculation

     iteration #  1     ecut=    40.00 Ry     beta= 0.50
     Davidson diagonalization with overlap
     ethr =  1.00E-06,  avg # of iterations =  3.0

     total cpu time spent up to now is       10.9 secs

     total energy              =    -154.57792693 Ry
     estimated scf accuracy    <       0.00019935 Ry

     total magnetization       =    -0.00 Bohr mag/cell
     absolute magnetization    =     0.00 Bohr mag/cell

     iteration #  2     ecut=    40.00 Ry     beta= 0.50
     Davidson diagonalization with overlap
     ethr =  9.06E-07,  avg # of iterations =  2.0

     total cpu time spent up to now is       11.1 secs

     total energy              =    -154.57791463 Ry
     estimated scf accuracy    <       0.00381107 Ry

     total magnetization       =    -0.00 Bohr mag/cell
     absolute magnetization    =     0.00 Bohr mag/cell

     iteration #  3     ecut=    40.00 Ry     beta= 0.50
     Davidson diagonalization with overlap
     ethr =  9.06E-07,  avg # of iterations =  2.0

     total cpu time spent up to now is       11.3 secs

     total energy              =    -154.57810363 Ry
     estimated scf accuracy    <       0.00022587 Ry

     total magnetization       =    -0.00 Bohr mag/cell
     absolute magnetization    =     0.00 Bohr mag/cell

     iteration #  4     ecut=    40.00 Ry     beta= 0.50
     Davidson diagonalization with overlap
     ethr =  9.06E-07,  avg # of iterations =  1.0

     total cpu time spent up to now is       11.4 secs

     total energy              =    -154.57808785 Ry
     estimated scf accuracy    <       0.00010533 Ry

     total magnetization       =    -0.00 Bohr mag/cell
     absolute magnetization    =     0.00 Bohr mag/cell

     iteration #  5     ecut=    40.00 Ry     beta= 0.50
     Davidson diagonalization with overlap
     ethr =  4.79E-07,  avg # of iterations =  1.0

     total cpu time spent up to now is       11.5 secs

     total energy              =    -154.57809512 Ry
     estimated scf accuracy    <       0.00000129 Ry

     total magnetization       =    -0.00 Bohr mag/cell
     absolute magnetization    =     0.00 Bohr mag/cell

     iteration #  6     ecut=    40.00 Ry     beta= 0.50
     Davidson diagonalization with overlap
     ethr =  5.85E-09,  avg # of iterations =  1.8

     total cpu time spent up to now is       11.6 secs

     total energy              =    -154.57809531 Ry
     estimated scf accuracy    <       0.00000007 Ry

     total magnetization       =    -0.00 Bohr mag/cell
     absolute magnetization    =     0.00 Bohr mag/cell

     iteration #  7     ecut=    40.00 Ry     beta= 0.50
     Davidson diagonalization with overlap
     ethr =  3.08E-10,  avg # of iterations =  2.0

     total cpu time spent up to now is       11.7 secs

     total energy              =    -154.57809525 Ry
     estimated scf accuracy    <       0.00000030 Ry

     total magnetization       =    -0.00 Bohr mag/cell
     absolute magnetization    =     0.00 Bohr mag/cell

     iteration #  8     ecut=    40.00 Ry     beta= 0.50
     Davidson diagonalization with overlap
     ethr =  3.08E-10,  avg # of iterations =  2.0

     total cpu time spent up to now is       11.9 secs

     total energy              =    -154.57809530 Ry
     estimated scf accuracy    <       0.00000012 Ry

     total magnetization       =    -0.00 Bohr mag/cell
     absolute magnetization    =     0.00 Bohr mag/cell

     iteration #  9     ecut=    40.00 Ry     beta= 0.50
     Davidson diagonalization with overlap
     ethr =  3.08E-10,  avg # of iterations =  1.0

     Magnetic moment per site  (integrated on atomic sphere of radius R)
     atom   1 (R=0.398)  charge=  9.9933  magn= -0.0000
     atom   2 (R=0.398)  charge=  8.7339  magn= -0.0000

     total cpu time spent up to now is       12.0 secs

     End of self-consistent calculation

 ------ SPIN UP ------------


          k = 0.0000 0.0000 0.0000 (   821 PWs)   bands (ev):

     4.8569   7.7860   8.1905  10.4585  10.4585  11.3066  11.8401  12.5449
    12.9078  13.1493  13.1493  17.1096  22.9360  24.6441  24.6441

          k = 0.0000 0.0000-0.3795 (   814 PWs)   bands (ev):

     6.5832   8.0394   9.0198  10.7531  10.7531  11.0427  11.4802  11.5221
    12.3295  12.3295  12.4066  12.6667  29.2648  29.2648  29.6173

          k = 0.0000-0.4878 0.0000 (   806 PWs)   bands (ev):

     7.7307   9.0782   9.2675  10.1892  10.2489  11.1951  11.6742  11.7274
    12.2563  12.4749  13.7682  14.0864  24.3835  24.6073  26.0016

          k = 0.0000-0.4878-0.3795 (   780 PWs)   bands (ev):

     7.6968   7.7760   9.8752  10.4023  10.6375  12.0047  12.5905  12.9079
    13.0301  13.0813  13.5635  13.7459  17.0011  19.2272  31.5208

          k =-0.4878-0.4878 0.0000 (   800 PWs)   bands (ev):

     7.4013   8.7760   8.7760   9.0219  12.5318  12.8328  12.9381  12.9829
    13.2666  13.2666  15.2091  15.2091  19.2385  21.4968  25.4012

          k =-0.4878-0.4878-0.3795 (   816 PWs)   bands (ev):

     7.8986   8.8206   8.8206  11.1946  11.4310  11.4661  11.4661  12.5375
    12.5666  12.9848  20.0002  20.0002  20.1411  20.4092  21.5757

 ------ SPIN DOWN ----------


          k = 0.0000 0.0000 0.0000 (   821 PWs)   bands (ev):

     4.8569   7.7860   8.1905  10.4585  10.4585  11.3066  11.8400  12.5448
    12.9077  13.1493  13.1493  17.1096  22.9360  24.6441  24.6441

          k = 0.0000 0.0000-0.3795 (   814 PWs)   bands (ev):

     6.5832   8.0394   9.0198  10.7531  10.7531  11.0427  11.4801  11.5221
    12.3295  12.3295  12.4066  12.6667  29.2648  29.2648  29.6173

          k = 0.0000-0.4878 0.0000 (   806 PWs)   bands (ev):

     7.7307   9.0782   9.2675  10.1892  10.2489  11.1951  11.6742  11.7273
    12.2563  12.4748  13.7681  14.0864  24.3835  24.6072  26.0016

          k = 0.0000-0.4878-0.3795 (   780 PWs)   bands (ev):

     7.6968   7.7760   9.8752  10.4023  10.6375  12.0046  12.5905  12.9078
    13.0301  13.0813  13.5635  13.7459  17.0011  19.2272  31.5208

          k =-0.4878-0.4878 0.0000 (   800 PWs)   bands (ev):

     7.4013   8.7760   8.7760   9.0219  12.5318  12.8328  12.9381  12.9828
    13.2666  13.2666  15.2091  15.2091  19.2385  21.4967  25.4011

          k =-0.4878-0.4878-0.3795 (   816 PWs)   bands (ev):

     7.8986   8.8206   8.8206  11.1946  11.4309  11.4661  11.4661  12.5375
    12.5665  12.9847  20.0002  20.0002  20.1411  20.4092  21.5757

     the Fermi energy is    13.8383 ev

!    total energy              =    -154.57809531 Ry
     estimated scf accuracy    <          6.5E-10 Ry
     smearing contrib. (-TS)   =      -0.00100045 Ry
     internal energy E=F+TS    =    -154.57709486 Ry

     The total energy is F=E-TS. E is the sum of the following terms:
     one-electron contribution =      -7.72488682 Ry
     hartree contribution      =      28.78128377 Ry
     xc contribution           =     -24.46964058 Ry
     ewald contribution        =    -151.16385123 Ry

     total magnetization       =    -0.00 Bohr mag/cell
     absolute magnetization    =     0.00 Bohr mag/cell

     convergence has been achieved in   9 iterations

     Forces acting on atoms (cartesian axes, Ry/au):

     atom    1 type  2   force =     0.00000000    0.00000000    0.00000000
     atom    2 type  1   force =     0.00000000    0.00000000    0.00000000
     The non-local contrib.  to forces
     atom    1 type  2   force =     0.00000000    0.00000000    0.00000000
     atom    2 type  1   force =     0.00000000    0.00000000    0.00000000
     The ionic contribution  to forces
     atom    1 type  2   force =    -0.00000000   -0.00000000    0.00000000
     atom    2 type  1   force =    -0.00000000   -0.00000000   -0.00000000
     The local contribution  to forces
     atom    1 type  2   force =     0.00000000    0.00000000    0.00000000
     atom    2 type  1   force =    -0.00000000   -0.00000000    0.00000000
     The core correction contribution to forces
     atom    1 type  2   force =     0.00000000    0.00000000    0.00000000
     atom    2 type  1   force =     0.00000000    0.00000000    0.00000000
     The Hubbard contrib.    to forces
     atom    1 type  2   force =     0.00000000    0.00000000    0.00000000
     atom    2 type  1   force =     0.00000000    0.00000000    0.00000000
     The SCF correction term to forces
     atom    1 type  2   force =     0.00000000    0.00000000    0.00000000
     atom    2 type  1   force =    -0.00000000    0.00000000    0.00000000

     Total force =     0.000000     Total SCF correction =     0.000000


     Computing stress (Cartesian axis) and pressure

          total   stress  (Ry/bohr**3)                   (kbar)     P=        1.12
   0.00002233   0.00000000   0.00000000            3.28        0.00        0.00
   0.00000000   0.00002233   0.00000000            0.00        3.28        0.00
   0.00000000   0.00000000  -0.00002189            0.00        0.00       -3.22

     Energy error            =      4.6E-05 Ry
     Gradient error          =      0.0E+00 Ry/Bohr
     Cell gradient error     =      3.3E+00 kbar

     number of scf cycles    =   5
     number of bfgs steps    =   4

     enthalpy           old  =    -154.5780492636 Ry
     enthalpy           new  =    -154.5780953126 Ry

     CASE: enthalpy          _new < enthalpy          _old

     new trust radius        =       0.0122749873 bohr
     new conv_thr            =       0.0000000010 Ry

     new unit-cell volume =    198.04424 a.u.^3 (    29.34713 Ang^3 )
     density =     14.74050 g/cm^3

CELL_PARAMETERS (angstrom)
   2.843845792   0.000000000   0.000000000
   0.000000000   2.843845792   0.000000000
   0.000000000   0.000000000   3.628720528

ATOMIC_POSITIONS (angstrom)
Cu            0.0000000000        0.0000000000        0.0000000000
Au            1.4219228959        1.4219228959        1.8143602642



     Writing config-only to output data dir /home/gridsan/epan1/labutil/lab3_samples/problem3/Lab3/CuAu_a_2.766_c_3.623_ecut_40_nk_2/pwscf.save/
     NEW-OLD atomic charge density approx. for the potential
     extrapolated charge   22.04059, renormalised to   22.00000
     Generating pointlists ...

     total cpu time spent up to now is       12.8 secs

     Self-consistent Calculation

     iteration #  1     ecut=    40.00 Ry     beta= 0.50
     Davidson diagonalization with overlap
     ethr =  1.00E-06,  avg # of iterations =  3.2

     total cpu time spent up to now is       12.9 secs

     total energy              =    -154.57517885 Ry
     estimated scf accuracy    <       0.00370311 Ry

     total magnetization       =    -0.00 Bohr mag/cell
     absolute magnetization    =     0.00 Bohr mag/cell

     iteration #  2     ecut=    40.00 Ry     beta= 0.50
     Davidson diagonalization with overlap
     ethr =  1.68E-05,  avg # of iterations =  2.0

     total cpu time spent up to now is       13.1 secs

     total energy              =    -154.57723084 Ry
     estimated scf accuracy    <       0.03239366 Ry

     total magnetization       =    -0.00 Bohr mag/cell
     absolute magnetization    =     0.00 Bohr mag/cell

     iteration #  3     ecut=    40.00 Ry     beta= 0.50
     Davidson diagonalization with overlap
     ethr =  1.68E-05,  avg # of iterations =  2.0

     total cpu time spent up to now is       13.2 secs

     total energy              =    -154.57833730 Ry
     estimated scf accuracy    <       0.00481098 Ry

     total magnetization       =    -0.00 Bohr mag/cell
     absolute magnetization    =     0.00 Bohr mag/cell

     iteration #  4     ecut=    40.00 Ry     beta= 0.50
     Davidson diagonalization with overlap
     ethr =  1.68E-05,  avg # of iterations =  1.0

     total cpu time spent up to now is       13.3 secs

     total energy              =    -154.57805462 Ry
     estimated scf accuracy    <       0.00250172 Ry

     total magnetization       =    -0.00 Bohr mag/cell
     absolute magnetization    =     0.00 Bohr mag/cell

     iteration #  5     ecut=    40.00 Ry     beta= 0.50
     Davidson diagonalization with overlap
     ethr =  1.14E-05,  avg # of iterations =  1.0

     total cpu time spent up to now is       13.4 secs

     total energy              =    -154.57814865 Ry
     estimated scf accuracy    <       0.00028852 Ry

     total magnetization       =    -0.00 Bohr mag/cell
     absolute magnetization    =     0.00 Bohr mag/cell

     iteration #  6     ecut=    40.00 Ry     beta= 0.50
     Davidson diagonalization with overlap
     ethr =  1.31E-06,  avg # of iterations =  1.0

     total cpu time spent up to now is       13.5 secs

     total energy              =    -154.57809520 Ry
     estimated scf accuracy    <       0.00026935 Ry

     total magnetization       =    -0.00 Bohr mag/cell
     absolute magnetization    =     0.00 Bohr mag/cell

     iteration #  7     ecut=    40.00 Ry     beta= 0.50
     Davidson diagonalization with overlap
     ethr =  1.22E-06,  avg # of iterations =  1.0

     total cpu time spent up to now is       13.6 secs

     total energy              =    -154.57812310 Ry
     estimated scf accuracy    <       0.00000217 Ry

     total magnetization       =    -0.00 Bohr mag/cell
     absolute magnetization    =     0.00 Bohr mag/cell

     iteration #  8     ecut=    40.00 Ry     beta= 0.50
     Davidson diagonalization with overlap
     ethr =  9.86E-09,  avg # of iterations =  2.2

     total cpu time spent up to now is       13.7 secs

     total energy              =    -154.57812198 Ry
     estimated scf accuracy    <       0.00001012 Ry

     total magnetization       =    -0.00 Bohr mag/cell
     absolute magnetization    =     0.00 Bohr mag/cell

     iteration #  9     ecut=    40.00 Ry     beta= 0.50
     Davidson diagonalization with overlap
     ethr =  9.86E-09,  avg # of iterations =  1.2

     total cpu time spent up to now is       13.8 secs

     total energy              =    -154.57812257 Ry
     estimated scf accuracy    <       0.00000018 Ry

     total magnetization       =    -0.00 Bohr mag/cell
     absolute magnetization    =     0.00 Bohr mag/cell

     iteration # 10     ecut=    40.00 Ry     beta= 0.50
     Davidson diagonalization with overlap
     ethr =  8.39E-10,  avg # of iterations =  1.3

     total cpu time spent up to now is       14.0 secs

     total energy              =    -154.57812260 Ry
     estimated scf accuracy    <       0.00000001 Ry

     total magnetization       =    -0.00 Bohr mag/cell
     absolute magnetization    =     0.00 Bohr mag/cell

     iteration # 11     ecut=    40.00 Ry     beta= 0.50
     Davidson diagonalization with overlap
     ethr =  5.70E-11,  avg # of iterations =  1.2

     Magnetic moment per site  (integrated on atomic sphere of radius R)
     atom   1 (R=0.398)  charge=  9.9938  magn= -0.0001
     atom   2 (R=0.398)  charge=  8.7346  magn= -0.0000

     total cpu time spent up to now is       14.1 secs

     End of self-consistent calculation

 ------ SPIN UP ------------


          k = 0.0000 0.0000 0.0000 (   821 PWs)   bands (ev):

     4.8413   7.7922   8.1819  10.4289  10.4289  11.2604  11.8319  12.5310
    12.8813  13.1230  13.1230  17.1830  23.0164  24.4997  24.4997

          k = 0.0000 0.0000-0.3811 (   814 PWs)   bands (ev):

     6.5980   8.0560   9.0096  10.7137  10.7137  11.0620  11.4606  11.4845
    12.2972  12.2972  12.4017  12.6308  29.1648  29.1648  29.5075

          k = 0.0000-0.4863 0.0000 (   806 PWs)   bands (ev):

     7.7190   9.0874   9.2397  10.1509  10.2265  11.1634  11.6609  11.7051
    12.2236  12.4454  13.7190  14.0149  24.4180  24.6612  26.0593

          k = 0.0000-0.4863-0.3811 (   780 PWs)   bands (ev):

     7.6819   7.7764   9.8449  10.3532  10.6493  11.9950  12.5461  12.8738
    13.0130  13.0628  13.5432  13.7104  16.9563  19.2021  31.4078

          k =-0.4863-0.4863 0.0000 (   800 PWs)   bands (ev):

     7.4017   8.7722   8.7722   8.9819  12.4818  12.7944  12.9078  12.9460
    13.2473  13.2473  15.1320  15.1320  19.1260  21.4023  25.4196

          k =-0.4863-0.4863-0.3811 (   816 PWs)   bands (ev):

     7.9085   8.7982   8.7982  11.1724  11.4176  11.4383  11.4383  12.4880
    12.5476  12.9481  19.9643  19.9643  20.0387  20.3284  21.4899

 ------ SPIN DOWN ----------


          k = 0.0000 0.0000 0.0000 (   821 PWs)   bands (ev):

     4.8413   7.7922   8.1819  10.4289  10.4289  11.2604  11.8318  12.5309
    12.8813  13.1230  13.1230  17.1830  23.0164  24.4996  24.4996

          k = 0.0000 0.0000-0.3811 (   814 PWs)   bands (ev):

     6.5980   8.0560   9.0096  10.7137  10.7137  11.0619  11.4605  11.4845
    12.2972  12.2972  12.4016  12.6308  29.1647  29.1647  29.5074

          k = 0.0000-0.4863 0.0000 (   806 PWs)   bands (ev):

     7.7190   9.0874   9.2397  10.1509  10.2265  11.1634  11.6609  11.7050
    12.2236  12.4454  13.7190  14.0149  24.4180  24.6612  26.0593

          k = 0.0000-0.4863-0.3811 (   780 PWs)   bands (ev):

     7.6819   7.7764   9.8449  10.3532  10.6493  11.9949  12.5461  12.8737
    13.0130  13.0628  13.5432  13.7103  16.9563  19.2021  31.4078

          k =-0.4863-0.4863 0.0000 (   800 PWs)   bands (ev):

     7.4017   8.7722   8.7722   8.9819  12.4818  12.7943  12.9077  12.9459
    13.2472  13.2472  15.1319  15.1319  19.1260  21.4023  25.4196

          k =-0.4863-0.4863-0.3811 (   816 PWs)   bands (ev):

     7.9085   8.7982   8.7982  11.1723  11.4176  11.4383  11.4383  12.4880
    12.5475  12.9480  19.9642  19.9642  20.0387  20.3284  21.4898

     the Fermi energy is    13.7936 ev

!    total energy              =    -154.57812260 Ry
     estimated scf accuracy    <          3.6E-10 Ry
     smearing contrib. (-TS)   =      -0.00126542 Ry
     internal energy E=F+TS    =    -154.57685718 Ry

     The total energy is F=E-TS. E is the sum of the following terms:
     one-electron contribution =      -7.87678057 Ry
     hartree contribution      =      28.84033015 Ry
     xc contribution           =     -24.47049948 Ry
     ewald contribution        =    -151.06990728 Ry

     total magnetization       =    -0.00 Bohr mag/cell
     absolute magnetization    =     0.00 Bohr mag/cell

     convergence has been achieved in  11 iterations

     Forces acting on atoms (cartesian axes, Ry/au):

     atom    1 type  2   force =     0.00000000    0.00000000    0.00000000
     atom    2 type  1   force =     0.00000000    0.00000000    0.00000000
     The non-local contrib.  to forces
     atom    1 type  2   force =     0.00000000    0.00000000    0.00000000
     atom    2 type  1   force =     0.00000000    0.00000000    0.00000000
     The ionic contribution  to forces
     atom    1 type  2   force =    -0.00000000   -0.00000000    0.00000000
     atom    2 type  1   force =    -0.00000000   -0.00000000   -0.00000000
     The local contribution  to forces
     atom    1 type  2   force =    -0.00000000    0.00000000    0.00000000
     atom    2 type  1   force =    -0.00000000   -0.00000000    0.00000000
     The core correction contribution to forces
     atom    1 type  2   force =     0.00000000    0.00000000    0.00000000
     atom    2 type  1   force =     0.00000000    0.00000000    0.00000000
     The Hubbard contrib.    to forces
     atom    1 type  2   force =     0.00000000    0.00000000    0.00000000
     atom    2 type  1   force =     0.00000000    0.00000000    0.00000000
     The SCF correction term to forces
     atom    1 type  2   force =    -0.00000000    0.00000000    0.00000000
     atom    2 type  1   force =    -0.00000000    0.00000000   -0.00000000

     Total force =     0.000000     Total SCF correction =     0.000000


     Computing stress (Cartesian axis) and pressure

          total   stress  (Ry/bohr**3)                   (kbar)     P=        1.61
   0.00001347   0.00000000   0.00000000            1.98        0.00        0.00
   0.00000000   0.00001347   0.00000000            0.00        1.98        0.00
   0.00000000   0.00000000   0.00000586            0.00        0.00        0.86

     Energy error            =      2.7E-05 Ry
     Gradient error          =      0.0E+00 Ry/Bohr
     Cell gradient error     =      2.0E+00 kbar

     number of scf cycles    =   6
     number of bfgs steps    =   5

     enthalpy           old  =    -154.5780953126 Ry
     enthalpy           new  =    -154.5781225960 Ry

     CASE: enthalpy          _new < enthalpy          _old

     new trust radius        =       0.0037396408 bohr
     new conv_thr            =       0.0000000010 Ry

     new unit-cell volume =    198.32379 a.u.^3 (    29.38855 Ang^3 )
     density =     14.71972 g/cm^3

CELL_PARAMETERS (angstrom)
   2.847624339   0.000000000   0.000000000
   0.000000000   2.847624339   0.000000000
   0.000000000   0.000000000   3.624205496

ATOMIC_POSITIONS (angstrom)
Cu            0.0000000000        0.0000000000        0.0000000000
Au            1.4238121694        1.4238121694        1.8121027479



     Writing config-only to output data dir /home/gridsan/epan1/labutil/lab3_samples/problem3/Lab3/CuAu_a_2.766_c_3.623_ecut_40_nk_2/pwscf.save/
     NEW-OLD atomic charge density approx. for the potential
     extrapolated charge   22.03101, renormalised to   22.00000
     Generating pointlists ...

     total cpu time spent up to now is       14.7 secs

     Self-consistent Calculation

     iteration #  1     ecut=    40.00 Ry     beta= 0.50
     Davidson diagonalization with overlap
     ethr =  1.00E-06,  avg # of iterations =  3.0

     total cpu time spent up to now is       14.8 secs

     total energy              =    -154.57625510 Ry
     estimated scf accuracy    <       0.00239249 Ry

     total magnetization       =    -0.00 Bohr mag/cell
     absolute magnetization    =     0.00 Bohr mag/cell

     iteration #  2     ecut=    40.00 Ry     beta= 0.50
     Davidson diagonalization with overlap
     ethr =  1.09E-05,  avg # of iterations =  2.0

     total cpu time spent up to now is       15.0 secs

     total energy              =    -154.57711769 Ry
     estimated scf accuracy    <       0.02584355 Ry

     total magnetization       =    -0.00 Bohr mag/cell
     absolute magnetization    =     0.00 Bohr mag/cell

     iteration #  3     ecut=    40.00 Ry     beta= 0.50
     Davidson diagonalization with overlap
     ethr =  1.09E-05,  avg # of iterations =  2.0

     total cpu time spent up to now is       15.1 secs

     total energy              =    -154.57821512 Ry
     estimated scf accuracy    <       0.00255764 Ry

     total magnetization       =    -0.00 Bohr mag/cell
     absolute magnetization    =     0.00 Bohr mag/cell

     iteration #  4     ecut=    40.00 Ry     beta= 0.50
     Davidson diagonalization with overlap
     ethr =  1.09E-05,  avg # of iterations =  1.0

     total cpu time spent up to now is       15.2 secs

     total energy              =    -154.57811429 Ry
     estimated scf accuracy    <       0.00117852 Ry

     total magnetization       =    -0.00 Bohr mag/cell
     absolute magnetization    =     0.00 Bohr mag/cell

     iteration #  5     ecut=    40.00 Ry     beta= 0.50
     Davidson diagonalization with overlap
     ethr =  5.36E-06,  avg # of iterations =  1.0

     total cpu time spent up to now is       15.3 secs

     total energy              =    -154.57814855 Ry
     estimated scf accuracy    <       0.00020864 Ry

     total magnetization       =    -0.00 Bohr mag/cell
     absolute magnetization    =     0.00 Bohr mag/cell

     iteration #  6     ecut=    40.00 Ry     beta= 0.50
     Davidson diagonalization with overlap
     ethr =  9.48E-07,  avg # of iterations =  1.0

     total cpu time spent up to now is       15.4 secs

     total energy              =    -154.57811477 Ry
     estimated scf accuracy    <       0.00021221 Ry

     total magnetization       =    -0.00 Bohr mag/cell
     absolute magnetization    =     0.00 Bohr mag/cell

     iteration #  7     ecut=    40.00 Ry     beta= 0.50
     Davidson diagonalization with overlap
[...]
     The non-local contrib.  to forces
     atom    1 type  2   force =     0.00000000    0.00000000    0.00000000
     atom    2 type  1   force =     0.00000000    0.00000000    0.00000000
     The ionic contribution  to forces
     atom    1 type  2   force =    -0.00000000   -0.00000000    0.00000000
     atom    2 type  1   force =     0.00000000    0.00000000   -0.00000000
     The local contribution  to forces
     atom    1 type  2   force =     0.00000000    0.00000000   -0.00000000
     atom    2 type  1   force =    -0.00000000   -0.00000000    0.00000000
     The core correction contribution to forces
     atom    1 type  2   force =     0.00000000    0.00000000    0.00000000
     atom    2 type  1   force =     0.00000000    0.00000000    0.00000000
     The Hubbard contrib.    to forces
     atom    1 type  2   force =     0.00000000    0.00000000    0.00000000
     atom    2 type  1   force =     0.00000000    0.00000000    0.00000000
     The SCF correction term to forces
     atom    1 type  2   force =     0.00000000    0.00000000   -0.00000000
     atom    2 type  1   force =    -0.00000000   -0.00000000   -0.00000000

     Total force =     0.000000     Total SCF correction =     0.000000


     Computing stress (Cartesian axis) and pressure

          total   stress  (Ry/bohr**3)                   (kbar)     P=        0.19
   0.00000131   0.00000000   0.00000000            0.19        0.00        0.00
   0.00000000   0.00000131   0.00000000            0.00        0.19        0.00
   0.00000000   0.00000000   0.00000127            0.00        0.00        0.19

     Energy error            =      9.7E-07 Ry
     Gradient error          =      0.0E+00 Ry/Bohr
     Cell gradient error     =      1.9E-01 kbar

     bfgs converged in   8 scf cycles and   7 bfgs steps
     (criteria: energy <  1.0E-04 Ry, force <  1.0E-03 Ry/Bohr, cell <  5.0E-01 kbar)

     End of BFGS Geometry Optimization

     Final enthalpy           =    -154.5781285324 Ry

     File /home/gridsan/epan1/labutil/lab3_samples/problem3/Lab3/CuAu_a_2.766_c_3.623_ecut_40_nk_2/pwscf.bfgs deleted, as requested
Begin final coordinates
     new unit-cell volume =    198.53795 a.u.^3 (    29.42029 Ang^3 )
     density =     14.70384 g/cm^3

CELL_PARAMETERS (angstrom)
   2.849992757   0.000000000   0.000000000
   0.000000000   2.849992757   0.000000000
   0.000000000   0.000000000   3.622091547

ATOMIC_POSITIONS (angstrom)
Cu            0.0000000000        0.0000000000        0.0000000000
Au            1.4249963785        1.4249963785        1.8110457735
End final coordinates



     Writing config-only to output data dir /home/gridsan/epan1/labutil/lab3_samples/problem3/Lab3/CuAu_a_2.766_c_3.623_ecut_40_nk_2/pwscf.save/

     Final scf calculation at the relaxed structure.
     The G-vectors are recalculated for the final unit cell
     Results may differ from those at the preceding step.

     Parallelization info
     --------------------
     sticks:   dense  smooth     PW     G-vecs:    dense   smooth      PW
     Min          93      46     15                 2403      846     155
     Max          94      47     16                 2406      848     158
     Sum         749     373    121                19243     6775    1255

     Using Slab Decomposition



     bravais-lattice index     =            0
     lattice parameter (alat)  =       5.2270  a.u.
     unit-cell volume          =     198.5380 (a.u.)^3
     number of atoms/cell      =            2
     number of atomic types    =            2
     number of electrons       =        22.00
     number of Kohn-Sham states=           15
     kinetic-energy cutoff     =      40.0000  Ry
     charge density cutoff     =     320.0000  Ry
     scf convergence threshold =      1.0E-09
     mixing beta               =       0.5000
     number of iterations used =            8  plain     mixing
     press convergence thresh. =      5.0E-01
     Exchange-correlation=  SLA  PZ   NOGX NOGC
                           (   1   1   0   0   0   0   0)

     celldm(1)=   5.226982  celldm(2)=   0.000000  celldm(3)=   0.000000
     celldm(4)=   0.000000  celldm(5)=   0.000000  celldm(6)=   0.000000

     crystal axes: (cart. coord. in units of alat)
               a(1) = (   1.030366   0.000000   0.000000 )  
               a(2) = (   0.000000   1.030366   0.000000 )  
               a(3) = (   0.000000   0.000000   1.309505 )  

     reciprocal axes: (cart. coord. in units 2 pi/alat)
               b(1) = (  0.970529  0.000000  0.000000 )  
               b(2) = (  0.000000  0.970529  0.000000 )  
               b(3) = (  0.000000  0.000000  0.763647 )  


     PseudoPot. # 1 for Au read from file:
     /home/gridsan/epan1/labutil/lab3_samples/pseudopotentials/Au.pz-d-rrkjus.UPF
     MD5 check sum: 424ffd4ac9c90487cbadcd287136c95b
     Pseudo is Ultrasoft, Zval = 11.0
     Generated by new atomic code, or converted to UPF format
     Using radial grid of 1279 points,  3 beta functions with: 
                l(1) =   2
                l(2) =   2
                l(3) =   1
     Q(r) pseudized with 0 coefficients 


     PseudoPot. # 2 for Cu read from file:
     /home/gridsan/epan1/labutil/lab3_samples/pseudopotentials/Cu.pz-d-rrkjus.UPF
     MD5 check sum: fd38ae683e239c95a66f426e1f8e5fc7
     Pseudo is Ultrasoft, Zval = 11.0
     Generated by new atomic code, or converted to UPF format
     Using radial grid of  899 points,  3 beta functions with: 
                l(1) =   2
                l(2) =   2
                l(3) =   1
     Q(r) pseudized with 0 coefficients 


     atomic species   valence    mass     pseudopotential
        Au            11.00   196.96657     Au( 1.00)
        Cu            11.00    63.54600     Cu( 1.00)

     Starting magnetic structure 
     atomic species   magnetization
        Au          -0.000
        Cu          -0.000

     16 Sym. Ops., with inversion, found



   Cartesian axes

     site n.     atom                  positions (alat units)
         1           Cu  tau(   1) = (   0.0000000   0.0000000   0.0000000  )
         2           Au  tau(   2) = (   0.5151831   0.5151831   0.6547526  )

     number of k points=     6  Methfessel-Paxton smearing, width (Ry)=  0.0200
                       cart. coord. in units 2pi/alat
        k(    1) = (   0.0000000   0.0000000   0.0000000), wk =   0.1250000
        k(    2) = (   0.0000000   0.0000000  -0.3818236), wk =   0.1250000
        k(    3) = (   0.0000000  -0.4852644   0.0000000), wk =   0.2500000
        k(    4) = (   0.0000000  -0.4852644  -0.3818236), wk =   0.2500000
        k(    5) = (  -0.4852644  -0.4852644   0.0000000), wk =   0.1250000
        k(    6) = (  -0.4852644  -0.4852644  -0.3818236), wk =   0.1250000

     Dense  grid:    19243 G-vectors     FFT dimensions: (  32,  32,  40)

     Smooth grid:     6775 G-vectors     FFT dimensions: (  24,  24,  27)

     Estimated max dynamical RAM per process >       8.87 MB

     Estimated total dynamical RAM >      70.97 MB
     Generating pointlists ...

     Initial potential from superposition of free atoms

     starting charge      21.9996, renormalised to      22.0000
     Starting wfcs are   15 randomized atomic wfcs

     total cpu time spent up to now is       18.7 secs

     Self-consistent Calculation

     iteration #  1     ecut=    40.00 Ry     beta= 0.50
     Davidson diagonalization with overlap
     c_bands:  1 eigenvalues not converged
     c_bands:  1 eigenvalues not converged
     c_bands:  1 eigenvalues not converged
     ethr =  1.00E-06,  avg # of iterations = 15.0

     total cpu time spent up to now is       19.0 secs

     total energy              =    -154.51216361 Ry
     estimated scf accuracy    <       0.25969937 Ry

     total magnetization       =    -0.00 Bohr mag/cell
     absolute magnetization    =     0.00 Bohr mag/cell

     iteration #  2     ecut=    40.00 Ry     beta= 0.50
     Davidson diagonalization with overlap
     ethr =  1.18E-03,  avg # of iterations =  2.0

     total cpu time spent up to now is       19.2 secs

     total energy              =    -154.56605383 Ry
     estimated scf accuracy    <       0.05093492 Ry

     total magnetization       =    -0.00 Bohr mag/cell
     absolute magnetization    =     0.00 Bohr mag/cell

     iteration #  3     ecut=    40.00 Ry     beta= 0.50
     Davidson diagonalization with overlap
     ethr =  2.32E-04,  avg # of iterations =  2.0

     total cpu time spent up to now is       19.3 secs

     total energy              =    -154.56306073 Ry
     estimated scf accuracy    <       0.11451193 Ry

     total magnetization       =    -0.00 Bohr mag/cell
     absolute magnetization    =     0.00 Bohr mag/cell

     iteration #  4     ecut=    40.00 Ry     beta= 0.50
     Davidson diagonalization with overlap
     ethr =  2.32E-04,  avg # of iterations =  1.0

     total cpu time spent up to now is       19.4 secs

     total energy              =    -154.57781353 Ry
     estimated scf accuracy    <       0.01027439 Ry

     total magnetization       =    -0.00 Bohr mag/cell
     absolute magnetization    =     0.00 Bohr mag/cell

     iteration #  5     ecut=    40.00 Ry     beta= 0.50
     Davidson diagonalization with overlap
     ethr =  4.67E-05,  avg # of iterations =  1.0

     total cpu time spent up to now is       19.5 secs

     total energy              =    -154.57789968 Ry
     estimated scf accuracy    <       0.00130103 Ry

     total magnetization       =    -0.00 Bohr mag/cell
     absolute magnetization    =     0.00 Bohr mag/cell

     iteration #  6     ecut=    40.00 Ry     beta= 0.50
     Davidson diagonalization with overlap
     ethr =  5.91E-06,  avg # of iterations =  1.8

     total cpu time spent up to now is       19.6 secs

     total energy              =    -154.57809840 Ry
     estimated scf accuracy    <       0.00090878 Ry

     total magnetization       =    -0.00 Bohr mag/cell
     absolute magnetization    =     0.00 Bohr mag/cell

     iteration #  7     ecut=    40.00 Ry     beta= 0.50
     Davidson diagonalization with overlap
     ethr =  4.13E-06,  avg # of iterations =  1.0

     total cpu time spent up to now is       19.7 secs

     total energy              =    -154.57817477 Ry
     estimated scf accuracy    <       0.00006045 Ry

     total magnetization       =    -0.00 Bohr mag/cell
     absolute magnetization    =     0.00 Bohr mag/cell

     iteration #  8     ecut=    40.00 Ry     beta= 0.50
     Davidson diagonalization with overlap
     ethr =  2.75E-07,  avg # of iterations =  1.7

     total cpu time spent up to now is       19.9 secs

     total energy              =    -154.57818518 Ry
     estimated scf accuracy    <       0.00005455 Ry

     total magnetization       =    -0.00 Bohr mag/cell
     absolute magnetization    =     0.00 Bohr mag/cell

     iteration #  9     ecut=    40.00 Ry     beta= 0.50
     Davidson diagonalization with overlap
     ethr =  2.48E-07,  avg # of iterations =  1.0

     total cpu time spent up to now is       20.0 secs

     total energy              =    -154.57818899 Ry
     estimated scf accuracy    <       0.00000061 Ry

     total magnetization       =    -0.00 Bohr mag/cell
     absolute magnetization    =     0.00 Bohr mag/cell

     iteration # 10     ecut=    40.00 Ry     beta= 0.50
     Davidson diagonalization with overlap
     ethr =  2.79E-09,  avg # of iterations =  1.5

     total cpu time spent up to now is       20.1 secs

     total energy              =    -154.57818907 Ry
     estimated scf accuracy    <       0.00000009 Ry

     total magnetization       =    -0.00 Bohr mag/cell
     absolute magnetization    =     0.00 Bohr mag/cell

     iteration # 11     ecut=    40.00 Ry     beta= 0.50
     Davidson diagonalization with overlap
     ethr =  4.23E-10,  avg # of iterations =  1.2

     total cpu time spent up to now is       20.2 secs

     total energy              =    -154.57818909 Ry
     estimated scf accuracy    <       0.00000001 Ry

     total magnetization       =    -0.00 Bohr mag/cell
     absolute magnetization    =     0.00 Bohr mag/cell

     iteration # 12     ecut=    40.00 Ry     beta= 0.50
     Davidson diagonalization with overlap
     ethr =  6.37E-11,  avg # of iterations =  1.0

     Magnetic moment per site  (integrated on atomic sphere of radius R)
     atom   1 (R=0.398)  charge=  9.9932  magn= -0.0000
     atom   2 (R=0.398)  charge=  8.7360  magn= -0.0000

     total cpu time spent up to now is       20.3 secs

     End of self-consistent calculation

 ------ SPIN UP ------------


          k = 0.0000 0.0000 0.0000 (   845 PWs)   bands (ev):

     4.8159   7.7791   8.1589  10.3905  10.3905  11.2116  11.8029  12.4965
    12.8403  13.0809  13.0809  17.1919  23.0145  24.3845  24.3845

          k = 0.0000 0.0000-0.3818 (   862 PWs)   bands (ev):

     6.5886   8.0479   8.9816  10.6688  10.6688  11.0465  11.4266  11.4396
    12.2544  12.2544  12.3730  12.5854  29.0682  29.0682  29.4094

          k = 0.0000-0.4853 0.0000 (   838 PWs)   bands (ev):

     7.6942   9.0722   9.2040  10.1079  10.1927  11.1217  11.6296  11.6690
    12.1807  12.4039  13.6642  13.9465  24.3965  24.6511  26.0448

          k = 0.0000-0.4853-0.3818 (   852 PWs)   bands (ev):

     7.6558   7.7593   9.8078  10.3043  10.6317  11.9647  12.4953  12.8286
    12.9763  13.0250  13.5072  13.6651  16.8966  19.1493  30.8891

          k =-0.4853-0.4853 0.0000 (   848 PWs)   bands (ev):

     7.3856   8.7513   8.7513   8.9402  12.4282  12.7458  12.8641  12.8994
    13.2084  13.2084  15.0634  15.0634  19.0272  21.3099  25.3914

          k =-0.4853-0.4853-0.3818 (   840 PWs)   bands (ev):

     7.8969   8.7667   8.7667  11.1372  11.3844  11.3998  11.3998  12.4346
    12.5112  12.9016  19.9111  19.9111  19.9431  20.2469  21.4076

 ------ SPIN DOWN ----------


          k = 0.0000 0.0000 0.0000 (   845 PWs)   bands (ev):

     4.8159   7.7791   8.1589  10.3905  10.3905  11.2116  11.8029  12.4965
    12.8402  13.0809  13.0809  17.1919  23.0145  24.3845  24.3845

          k = 0.0000 0.0000-0.3818 (   862 PWs)   bands (ev):

     6.5886   8.0479   8.9816  10.6688  10.6688  11.0465  11.4266  11.4396
    12.2543  12.2543  12.3730  12.5853  29.0682  29.0682  29.4092

          k = 0.0000-0.4853 0.0000 (   838 PWs)   bands (ev):

     7.6942   9.0722   9.2040  10.1079  10.1927  11.1217  11.6296  11.6690
    12.1807  12.4038  13.6641  13.9465  24.3965  24.6511  26.0448

          k = 0.0000-0.4853-0.3818 (   852 PWs)   bands (ev):

     7.6558   7.7593   9.8078  10.3043  10.6317  11.9647  12.4953  12.8286
    12.9763  13.0250  13.5072  13.6651  16.8966  19.1493  30.8889

          k =-0.4853-0.4853 0.0000 (   848 PWs)   bands (ev):

     7.3856   8.7512   8.7512   8.9402  12.4282  12.7458  12.8641  12.8993
    13.2084  13.2084  15.0634  15.0634  19.0272  21.3099  25.3914

          k =-0.4853-0.4853-0.3818 (   840 PWs)   bands (ev):

     7.8969   8.7667   8.7667  11.1372  11.3844  11.3998  11.3998  12.4346
    12.5112  12.9015  19.9111  19.9111  19.9431  20.2469  21.4076

     the Fermi energy is    13.7420 ev

!    total energy              =    -154.57818909 Ry
     estimated scf accuracy    <          5.5E-10 Ry
     smearing contrib. (-TS)   =      -0.00147756 Ry
     internal energy E=F+TS    =    -154.57671153 Ry

     The total energy is F=E-TS. E is the sum of the following terms:
     one-electron contribution =      -8.07169646 Ry
     hartree contribution      =      28.90878832 Ry
     xc contribution           =     -24.46967992 Ry
     ewald contribution        =    -150.94412346 Ry

     total magnetization       =    -0.00 Bohr mag/cell
     absolute magnetization    =     0.00 Bohr mag/cell

     convergence has been achieved in  12 iterations

     Forces acting on atoms (cartesian axes, Ry/au):

     atom    1 type  2   force =     0.00000000    0.00000000    0.00000000
     atom    2 type  1   force =     0.00000000    0.00000000    0.00000000
     The non-local contrib.  to forces
     atom    1 type  2   force =     0.00000000    0.00000000    0.00000000
     atom    2 type  1   force =     0.00000000    0.00000000    0.00000000
     The ionic contribution  to forces
     atom    1 type  2   force =    -0.00000000   -0.00000000    0.00000000
     atom    2 type  1   force =     0.00000000    0.00000000   -0.00000000
     The local contribution  to forces
     atom    1 type  2   force =    -0.00000000   -0.00000000   -0.00000000
     atom    2 type  1   force =    -0.00000000   -0.00000000    0.00000000
     The core correction contribution to forces
     atom    1 type  2   force =     0.00000000    0.00000000    0.00000000
     atom    2 type  1   force =     0.00000000    0.00000000    0.00000000
     The Hubbard contrib.    to forces
     atom    1 type  2   force =     0.00000000    0.00000000    0.00000000
     atom    2 type  1   force =     0.00000000    0.00000000    0.00000000
     The SCF correction term to forces
     atom    1 type  2   force =    -0.00000000   -0.00000000   -0.00000000
     atom    2 type  1   force =     0.00000000    0.00000000    0.00000000

     Total force =     0.000000     Total SCF correction =     0.000000


     Computing stress (Cartesian axis) and pressure

          total   stress  (Ry/bohr**3)                   (kbar)     P=        0.18
   0.00000118   0.00000000   0.00000000            0.17        0.00        0.00
   0.00000000   0.00000118   0.00000000            0.00        0.17        0.00
   0.00000000   0.00000000   0.00000124            0.00        0.00        0.18


     init_run     :      0.93s CPU      1.03s WALL (       2 calls)
     electrons    :     14.97s CPU     13.92s WALL (       9 calls)
     update_pot   :      1.46s CPU      1.38s WALL (       7 calls)
     forces       :      1.12s CPU      0.99s WALL (       9 calls)
     stress       :      2.39s CPU      2.28s WALL (       9 calls)

     Called by init_run:
     wfcinit      :      0.08s CPU      0.07s WALL (       2 calls)
     potinit      :      0.22s CPU      0.22s WALL (       2 calls)
     hinit0       :      0.57s CPU      0.60s WALL (       2 calls)

     Called by electrons:
     c_bands      :      9.22s CPU      8.71s WALL (     112 calls)
     sum_band     :      4.04s CPU      3.55s WALL (     112 calls)
     v_of_rho     :      0.27s CPU      0.27s WALL (     120 calls)
     newd         :      1.28s CPU      1.18s WALL (     120 calls)
     mix_rho      :      0.17s CPU      0.15s WALL (     112 calls)

     Called by c_bands:
     init_us_2    :      0.18s CPU      0.18s WALL (    2928 calls)
     init_us_2:cp :      0.18s CPU      0.17s WALL (    2928 calls)
     cegterg      :      8.29s CPU      7.46s WALL (    1344 calls)

     Called by *egterg:
     cdiaghg      :      1.50s CPU      1.33s WALL (    3635 calls)
     h_psi        :      5.80s CPU      5.19s WALL (    3755 calls)
     s_psi        :      0.09s CPU      0.08s WALL (    3755 calls)
     g_psi        :      0.02s CPU      0.02s WALL (    2387 calls)

     Called by h_psi:
     h_psi:calbec :      0.36s CPU      0.33s WALL (    3755 calls)
     vloc_psi     :      5.30s CPU      4.73s WALL (    3755 calls)
     add_vuspsi   :      0.10s CPU      0.09s WALL (    3755 calls)

     General routines
     calbec       :      0.58s CPU      0.51s WALL (    5639 calls)
     fft          :      0.56s CPU      0.54s WALL (    1338 calls)
     ffts         :      0.14s CPU      0.13s WALL (     464 calls)
     fftw         :      5.84s CPU      5.20s WALL (  111832 calls)
     interpolate  :      0.18s CPU      0.17s WALL (     240 calls)

     Parallel routines

     PWSCF        :     21.60s CPU     20.72s WALL


   This run was terminated on:  14: 2: 0   3Nov2023            

=------------------------------------------------------------------------------=
   JOB DONE.
=------------------------------------------------------------------------------=
