LAMMPS (29 Oct 2020)
Reading data file ...
  orthogonal box = (0.0000000 0.0000000 0.0000000) to (3.9000000 3.9000000 3.9000000)
  1 by 1 by 1 MPI processor grid
  reading atoms ...
  4 atoms
  read_data CPU = 0.002 seconds
Reading eam potential file /home/gridsan/epan1/3320_atomistic_shared/lammps/potentials/Ag_u3.eam with DATE: 2007-06-11
WARNING: No fixes defined, atoms won't move (../verlet.cpp:54)
Neighbor list info ...
  update every 1 steps, delay 10 steps, check yes
  max neighbors/atom: 2000, page size: 100000
  master list distance cutoff = 7.55
  ghost atom cutoff = 7.55
  binsize = 3.775, bins = 2 2 2
  1 neighbor lists, perpetual/occasional/extra = 1 0 0
  (1) pair eam, perpetual
      attributes: half, newton on
      pair build: half/bin/atomonly/newton
      stencil: half/bin/3d/newton
      bin: standard
Setting up Verlet run ...
  Unit style    : metal
  Current step  : 0
  Time step     : 0.001
Per MPI rank memory allocation (min/avg/max) = 3.209 | 3.209 | 3.209 Mbytes
Step PotEng Lx Ly Lz Press Pxx Pyy Pzz 
       0   -10.883613          3.9          3.9          3.9    208470.58    208470.58    208470.58    208470.58 
Loop time of 9.53674e-07 on 1 procs for 0 steps with 4 atoms

0.0% CPU use with 1 MPI tasks x no OpenMP threads

MPI task timing breakdown:
Section |  min time  |  avg time  |  max time  |%varavg| %total
---------------------------------------------------------------
Pair    | 0          | 0          | 0          |   0.0 |  0.00
Neigh   | 0          | 0          | 0          |   0.0 |  0.00
Comm    | 0          | 0          | 0          |   0.0 |  0.00
Output  | 0          | 0          | 0          |   0.0 |  0.00
Modify  | 0          | 0          | 0          |   0.0 |  0.00
Other   |            | 9.537e-07  |            |       |100.00

Nlocal:        4.00000 ave           4 max           4 min
Histogram: 1 0 0 0 0 0 0 0 0 0
Nghost:        360.000 ave         360 max         360 min
Histogram: 1 0 0 0 0 0 0 0 0 0
Neighs:        268.000 ave         268 max         268 min
Histogram: 1 0 0 0 0 0 0 0 0 0

Total # of neighbors = 268
Ave neighs/atom = 67.000000
Neighbor list builds = 0
Dangerous builds = 0
Total energy (eV) = -10.8836132844451
Number of atoms = 4
Lattice constant (Angstoms) = 3.9
Total wall time: 0:00:00
