
     Program PWSCF v.7.2 starts on  1Nov2023 at 17: 1:26 

     This program is part of the open-source Quantum ESPRESSO suite
     for quantum simulation of materials; please cite
         "P. Giannozzi et al., J. Phys.:Condens. Matter 21 395502 (2009);
         "P. Giannozzi et al., J. Phys.:Condens. Matter 29 465901 (2017);
         "P. Giannozzi et al., J. Chem. Phys. 152 154105 (2020);
          URL http://www.quantum-espresso.org", 
     in publications or presentations arising from this work. More details at
     http://www.quantum-espresso.org/quote

     Parallel version (MPI), running on     4 processors

     MPI processes distributed on     4 nodes
     186837 MiB available memory on the printing compute node when the environment starts

     Waiting for input...
     Reading input from standard input
Warning: card &CELL ignored
Warning: card / ignored

     Current dimensions of program PWSCF are:
     Max number of different atomic species (ntypx) = 10
     Max number of k-points (npk) =  40000
     Max angular momentum in pseudopotentials (lmaxx) =  4
     file Fe.pbe-nd-rrkjus.UPF: wavefunction(s)  4S renormalized
     Message from routine find_sym:
     Not a group! Trying with lower acceptance parameter...
     Message from routine find_sym:
     Still not a group! symmetry disabled

     R & G space division:  proc/nbgrp/npool/nimage =       4
     Subspace diagonalization in iterative solution of the eigenvalue problem:
     a serial algorithm will be used


     Parallelization info
     --------------------
     sticks:   dense  smooth     PW     G-vecs:    dense   smooth      PW
     Min         142      70     22                 4470     1576     281
     Max         144      71     23                 4473     1581     286
     Sum         571     283     91                17885     6315    1129

     Using Slab Decomposition



     bravais-lattice index     =            0
     lattice parameter (alat)  =       5.8582  a.u.
     unit-cell volume          =     284.3130 (a.u.)^3
     number of atoms/cell      =            2
     number of atomic types    =            1
     number of electrons       =        16.00
     number of Kohn-Sham states=           12
     kinetic-energy cutoff     =      30.0000  Ry
     charge density cutoff     =     240.0000  Ry
     scf convergence threshold =      1.0E-07
     mixing beta               =       0.5000
     number of iterations used =            8  plain     mixing
     Exchange-correlation=  SLA  PW   PBE  PBE
                           (   1   4   3   4   0   0   0)

     celldm(1)=   5.858151  celldm(2)=   0.000000  celldm(3)=   0.000000
     celldm(4)=   0.000000  celldm(5)=   0.000000  celldm(6)=   0.000000

     crystal axes: (cart. coord. in units of alat)
               a(1) = (   1.000000   0.000000   0.000000 )  
               a(2) = (  -0.500000   0.866025   0.000000 )  
               a(3) = (   0.000000   0.000000   1.632993 )  

     reciprocal axes: (cart. coord. in units 2 pi/alat)
               b(1) = (  1.000000  0.577350 -0.000000 )  
               b(2) = (  0.000000  1.154701  0.000000 )  
               b(3) = (  0.000000 -0.000000  0.612372 )  


     PseudoPot. # 1 for Fe read from file:
     /home/gridsan/epan1/labutil/lab3_samples/pseudopotentials/Fe.pbe-nd-rrkjus.UPF
     MD5 check sum: 398036227a04b607635f6f5e8dfd8242
     Pseudo is Ultrasoft + core correction, Zval =  8.0
     Generated by new atomic code, or converted to UPF format
     Using radial grid of  957 points,  6 beta functions with: 
                l(1) =   0
                l(2) =   0
                l(3) =   1
                l(4) =   1
                l(5) =   2
                l(6) =   2
     Q(r) pseudized with 0 coefficients 


     atomic species   valence    mass     pseudopotential
        Fe             8.00    55.84500     Fe( 1.00)

     Starting magnetic structure 
     atomic species   magnetization
        Fe           0.700

     No symmetry found



   Cartesian axes

     site n.     atom                  positions (alat units)
         1           Fe  tau(   1) = (   0.0000000   0.0000000   0.0000000  )
         2           Fe  tau(   2) = (  -0.0000000   0.5773516   0.8164968  )

     number of k points=   504  Methfessel-Paxton smearing, width (Ry)=  0.0200

     Number of k-points >= 100: set verbosity='high' to print them.

     Dense  grid:    17885 G-vectors     FFT dimensions: (  30,  30,  48)

     Smooth grid:     6315 G-vectors     FFT dimensions: (  24,  24,  36)

     Estimated max dynamical RAM per process >      55.92 MB

     Estimated total dynamical RAM >     223.69 MB

     Check: negative core charge=   -0.000004
     Generating pointlists ...
     new r_m :   0.4125 (alat units)  2.4165 (a.u.) for type    1

     Initial potential from superposition of free atoms

     starting charge      15.9987, renormalised to      16.0000
     Starting wfcs are   12 randomized atomic wfcs

     total cpu time spent up to now is        3.7 secs

     Self-consistent Calculation

     iteration #  1     ecut=    30.00 Ry     beta= 0.50
     Davidson diagonalization with overlap
     ethr =  1.00E-02,  avg # of iterations =  3.7

     total cpu time spent up to now is       15.7 secs

     total energy              =    -111.12620585 Ry
     estimated scf accuracy    <       0.67611606 Ry

     total magnetization       =     7.67 Bohr mag/cell
     absolute magnetization    =     7.67 Bohr mag/cell

     iteration #  2     ecut=    30.00 Ry     beta= 0.50
     Davidson diagonalization with overlap
     ethr =  4.23E-03,  avg # of iterations =  2.7

     total cpu time spent up to now is       27.1 secs

     total energy              =    -111.34851174 Ry
     estimated scf accuracy    <       0.25701360 Ry

     total magnetization       =     6.34 Bohr mag/cell
     absolute magnetization    =     6.37 Bohr mag/cell

     iteration #  3     ecut=    30.00 Ry     beta= 0.50
     Davidson diagonalization with overlap
     ethr =  1.61E-03,  avg # of iterations =  1.7

     total cpu time spent up to now is       36.1 secs

     total energy              =    -111.40029824 Ry
     estimated scf accuracy    <       0.01103884 Ry

     total magnetization       =     6.72 Bohr mag/cell
     absolute magnetization    =     6.80 Bohr mag/cell

     iteration #  4     ecut=    30.00 Ry     beta= 0.50
     Davidson diagonalization with overlap
     ethr =  6.90E-05,  avg # of iterations =  4.1

     total cpu time spent up to now is       50.2 secs

     total energy              =    -111.38825030 Ry
     estimated scf accuracy    <       0.77786201 Ry

     total magnetization       =     6.48 Bohr mag/cell
     absolute magnetization    =     6.73 Bohr mag/cell

     iteration #  5     ecut=    30.00 Ry     beta= 0.50
     Davidson diagonalization with overlap
     ethr =  6.90E-05,  avg # of iterations =  2.4

     total cpu time spent up to now is       60.7 secs

     total energy              =    -111.41230078 Ry
     estimated scf accuracy    <       0.00444140 Ry

     total magnetization       =     6.46 Bohr mag/cell
     absolute magnetization    =     6.76 Bohr mag/cell

     iteration #  6     ecut=    30.00 Ry     beta= 0.50
     Davidson diagonalization with overlap
     ethr =  2.78E-05,  avg # of iterations =  2.7

     total cpu time spent up to now is      356.4 secs

     total energy              =    -111.41495671 Ry
     estimated scf accuracy    <       0.00394466 Ry

     total magnetization       =     6.26 Bohr mag/cell
     absolute magnetization    =     6.68 Bohr mag/cell

     iteration #  7     ecut=    30.00 Ry     beta= 0.50
     Davidson diagonalization with overlap
     ethr =  2.47E-05,  avg # of iterations =  1.0

     total cpu time spent up to now is      646.6 secs

     total energy              =    -111.41525798 Ry
     estimated scf accuracy    <       0.00026498 Ry

     total magnetization       =     6.28 Bohr mag/cell
     absolute magnetization    =     6.72 Bohr mag/cell

     iteration #  8     ecut=    30.00 Ry     beta= 0.50
     Davidson diagonalization with overlap
     ethr =  1.66E-06,  avg # of iterations =  3.0

     total cpu time spent up to now is     1188.1 secs

     total energy              =    -111.41544509 Ry
     estimated scf accuracy    <       0.00010008 Ry

     total magnetization       =     6.26 Bohr mag/cell
     absolute magnetization    =     6.74 Bohr mag/cell

     iteration #  9     ecut=    30.00 Ry     beta= 0.50
     Davidson diagonalization with overlap
     ethr =  6.26E-07,  avg # of iterations =  2.9

     total cpu time spent up to now is     1616.1 secs

     total energy              =    -111.41550389 Ry
     estimated scf accuracy    <       0.00003057 Ry

     total magnetization       =     6.27 Bohr mag/cell
     absolute magnetization    =     6.76 Bohr mag/cell

     iteration # 10     ecut=    30.00 Ry     beta= 0.50
     Davidson diagonalization with overlap
     ethr =  1.91E-07,  avg # of iterations =  3.3

     total cpu time spent up to now is     2155.0 secs

     total energy              =    -111.41551186 Ry
     estimated scf accuracy    <       0.00005048 Ry

     total magnetization       =     6.27 Bohr mag/cell
     absolute magnetization    =     6.75 Bohr mag/cell

     iteration # 11     ecut=    30.00 Ry     beta= 0.50
     Davidson diagonalization with overlap
     ethr =  1.91E-07,  avg # of iterations =  2.1

     total cpu time spent up to now is     2526.7 secs

     total energy              =    -111.41552251 Ry
     estimated scf accuracy    <       0.00000045 Ry

     total magnetization       =     6.28 Bohr mag/cell
     absolute magnetization    =     6.75 Bohr mag/cell

     iteration # 12     ecut=    30.00 Ry     beta= 0.50
     Davidson diagonalization with overlap
     ethr =  2.83E-09,  avg # of iterations =  9.1

     total cpu time spent up to now is     2919.4 secs

     total energy              =    -111.41552494 Ry
     estimated scf accuracy    <       0.00000074 Ry

     total magnetization       =     6.28 Bohr mag/cell
     absolute magnetization    =     6.75 Bohr mag/cell

     iteration # 13     ecut=    30.00 Ry     beta= 0.50
     Davidson diagonalization with overlap
     ethr =  2.83E-09,  avg # of iterations =  3.2

     total cpu time spent up to now is     3111.7 secs

     total energy              =    -111.41552564 Ry
     estimated scf accuracy    <       0.00000054 Ry

     total magnetization       =     6.28 Bohr mag/cell
     absolute magnetization    =     6.75 Bohr mag/cell

     iteration # 14     ecut=    30.00 Ry     beta= 0.50
     Davidson diagonalization with overlap
     ethr =  2.83E-09,  avg # of iterations =  1.0

     total cpu time spent up to now is     3257.2 secs

     total energy              =    -111.41552561 Ry
     estimated scf accuracy    <       0.00000030 Ry

     total magnetization       =     6.28 Bohr mag/cell
     absolute magnetization    =     6.75 Bohr mag/cell

     iteration # 15     ecut=    30.00 Ry     beta= 0.50
     Davidson diagonalization with overlap
     ethr =  1.86E-09,  avg # of iterations =  2.1

     Magnetic moment per site  (integrated on atomic sphere of radius R)
     atom   1 (R=0.412)  charge=  6.9542  magn=  3.2452
     atom   2 (R=0.412)  charge=  6.9543  magn=  3.2452

     total cpu time spent up to now is     3402.0 secs

     End of self-consistent calculation

     Number of k-points >= 100: set verbosity='high' to print the bands.

     the Fermi energy is     6.2581 ev

!    total energy              =    -111.41552568 Ry
     estimated scf accuracy    <          9.4E-09 Ry
     smearing contrib. (-TS)   =      -0.00088789 Ry
     internal energy E=F+TS    =    -111.41463780 Ry

     The total energy is F=E-TS. E is the sum of the following terms:
     one-electron contribution =      -8.13292895 Ry
     hartree contribution      =      20.09657662 Ry
     xc contribution           =     -52.54400622 Ry
     ewald contribution        =     -70.83427924 Ry

     total magnetization       =     6.28 Bohr mag/cell
     absolute magnetization    =     6.75 Bohr mag/cell

     convergence has been achieved in  15 iterations

     Forces acting on atoms (cartesian axes, Ry/au):

     atom    1 type  1   force =    -0.00000013   -0.00000017    0.00000554
     atom    2 type  1   force =     0.00000013    0.00000017   -0.00000554
     The non-local contrib.  to forces
     atom    1 type  1   force =     0.00000030    0.00000009    0.00000762
     atom    2 type  1   force =    -0.00000000   -0.00000008   -0.00000826
     The ionic contribution  to forces
     atom    1 type  1   force =     0.00000000    0.00000203    0.00000582
     atom    2 type  1   force =    -0.00000000   -0.00000203   -0.00000582
     The local contribution  to forces
     atom    1 type  1   force =    -0.00000031   -0.00000226   -0.00001898
     atom    2 type  1   force =     0.00000015    0.00000214    0.00001944
     The core correction contribution to forces
     atom    1 type  1   force =    -0.00000002   -0.00000003   -0.00000073
     atom    2 type  1   force =     0.00000002    0.00000001    0.00000079
     The Hubbard contrib.    to forces
     atom    1 type  1   force =     0.00000000    0.00000000    0.00000000
     atom    2 type  1   force =     0.00000000    0.00000000    0.00000000
     The SCF correction term to forces
     atom    1 type  1   force =     0.00000031   -0.00000001    0.00001225
     atom    2 type  1   force =     0.00000037    0.00000013   -0.00001125

     Total force =     0.000008     Total SCF correction =     0.000017
     SCF correction compared to forces is large: reduce conv_thr to get better values


     Computing stress (Cartesian axis) and pressure

          total   stress  (Ry/bohr**3)                   (kbar)     P=     -247.68
  -0.00174916   0.00000000   0.00000000         -257.31        0.00        0.00
   0.00000000  -0.00174916  -0.00000000            0.00     -257.31       -0.00
   0.00000000  -0.00000000  -0.00155285            0.00       -0.00     -228.43


     init_run     :      4.20s CPU      3.58s WALL (       1 calls)
     electrons    :   2196.06s CPU   3398.29s WALL (       1 calls)
     forces       :      1.31s CPU      1.19s WALL (       1 calls)
     stress       :     13.88s CPU     20.09s WALL (       1 calls)

     Called by init_run:
     wfcinit      :      3.85s CPU      3.21s WALL (       1 calls)
     potinit      :      0.14s CPU      0.15s WALL (       1 calls)
     hinit0       :      0.18s CPU      0.19s WALL (       1 calls)

     Called by electrons:
     c_bands      :   1955.49s CPU   3029.52s WALL (      15 calls)
     sum_band     :    238.57s CPU    365.22s WALL (      15 calls)
     v_of_rho     :      0.67s CPU      1.25s WALL (      16 calls)
     newd         :      0.69s CPU      0.95s WALL (      16 calls)
     mix_rho      :      0.37s CPU      0.55s WALL (      15 calls)

     Called by c_bands:
     init_us_2    :      4.03s CPU      4.99s WALL (   33264 calls)
     init_us_2:cp :      3.93s CPU      4.82s WALL (   33264 calls)
     cegterg      :   1782.60s CPU   2780.76s WALL (   15120 calls)

     Called by *egterg:
     cdiaghg      :     35.62s CPU     99.94s WALL (   60508 calls)
     h_psi        :    903.02s CPU   1446.28s WALL (   61516 calls)
     s_psi        :      7.74s CPU     26.66s WALL (   61516 calls)
     g_psi        :      0.58s CPU      0.69s WALL (   45388 calls)

     Called by h_psi:
     h_psi:calbec :    395.82s CPU    656.42s WALL (   61516 calls)
     vloc_psi     :    477.36s CPU    669.67s WALL (   61516 calls)
     add_vuspsi   :     28.80s CPU    118.00s WALL (   61516 calls)

     General routines
     calbec       :    529.02s CPU    875.31s WALL (   81676 calls)
     fft          :      0.79s CPU      1.04s WALL (     438 calls)
     ffts         :      0.20s CPU      0.22s WALL (      62 calls)
     fftw         :    571.11s CPU    804.16s WALL ( 1246054 calls)
     interpolate  :      0.14s CPU      0.14s WALL (      32 calls)

     Parallel routines

     PWSCF        :  36m55.59s CPU  57m 3.32s WALL


   This run was terminated on:  17:58:29   1Nov2023            

=------------------------------------------------------------------------------=
   JOB DONE.
=------------------------------------------------------------------------------=
