
     Program PWSCF v.7.2 starts on 31Oct2023 at 10:27: 8 

     This program is part of the open-source Quantum ESPRESSO suite
     for quantum simulation of materials; please cite
         "P. Giannozzi et al., J. Phys.:Condens. Matter 21 395502 (2009);
         "P. Giannozzi et al., J. Phys.:Condens. Matter 29 465901 (2017);
         "P. Giannozzi et al., J. Chem. Phys. 152 154105 (2020);
          URL http://www.quantum-espresso.org", 
     in publications or presentations arising from this work. More details at
     http://www.quantum-espresso.org/quote

     Parallel version (MPI), running on     8 processors

     MPI processes distributed on     8 nodes
     186339 MiB available memory on the printing compute node when the environment starts

     Waiting for input...
     Reading input from standard input

     Current dimensions of program PWSCF are:
     Max number of different atomic species (ntypx) = 10
     Max number of k-points (npk) =  40000
     Max angular momentum in pseudopotentials (lmaxx) =  4
     file Fe.pbe-nd-rrkjus.UPF: wavefunction(s)  4S renormalized
     Message from routine find_sym:
     Not a group! Trying with lower acceptance parameter...
     Message from routine find_sym:
     Symmetry operations form a group
     Message from routine setup:
     using ibrav=0 with symmetry is DISCOURAGED, use correct ibrav instead

     R & G space division:  proc/nbgrp/npool/nimage =       8
     Subspace diagonalization in iterative solution of the eigenvalue problem:
     a serial algorithm will be used


     Parallelization info
     --------------------
     sticks:   dense  smooth     PW     G-vecs:    dense   smooth      PW
     Min          45      23      7                 1167      417      77
     Max          46      24      9                 1174      422      80
     Sum         367     187     61                 9369     3357     627

     Using Slab Decomposition



     bravais-lattice index     =            0
     lattice parameter (alat)  =       4.7243  a.u.
     unit-cell volume          =     149.1185 (a.u.)^3
     number of atoms/cell      =            2
     number of atomic types    =            1
     number of electrons       =        16.00
     number of Kohn-Sham states=           12
     kinetic-energy cutoff     =      30.0000  Ry
     charge density cutoff     =     240.0000  Ry
     scf convergence threshold =      1.0E-07
     mixing beta               =       0.5000
     number of iterations used =            8  plain     mixing
     energy convergence thresh.=      1.0E-04
     force convergence thresh. =      1.0E-03
     press convergence thresh. =      5.0E-01
     Exchange-correlation=  SLA  PW   PBE  PBE
                           (   1   4   3   4   0   0   0)
     nstep                     =           50


     celldm(1)=   4.724315  celldm(2)=   0.000000  celldm(3)=   0.000000
     celldm(4)=   0.000000  celldm(5)=   0.000000  celldm(6)=   0.000000

     crystal axes: (cart. coord. in units of alat)
               a(1) = (   1.000000   0.000000   0.000000 )  
               a(2) = (  -0.500000   0.866025   0.000000 )  
               a(3) = (   0.000000   0.000000   1.632993 )  

     reciprocal axes: (cart. coord. in units 2 pi/alat)
               b(1) = (  1.000000  0.577350 -0.000000 )  
               b(2) = (  0.000000  1.154701  0.000000 )  
               b(3) = (  0.000000 -0.000000  0.612372 )  


     PseudoPot. # 1 for Fe read from file:
     /home/gridsan/epan1/labutil/lab3_samples/pseudopotentials/Fe.pbe-nd-rrkjus.UPF
     MD5 check sum: 398036227a04b607635f6f5e8dfd8242
     Pseudo is Ultrasoft + core correction, Zval =  8.0
     Generated by new atomic code, or converted to UPF format
     Using radial grid of  957 points,  6 beta functions with: 
                l(1) =   0
                l(2) =   0
                l(3) =   1
                l(4) =   1
                l(5) =   2
                l(6) =   2
     Q(r) pseudized with 0 coefficients 


     atomic species   valence    mass     pseudopotential
        Fe             8.00    55.84500     Fe( 1.00)

     Starting magnetic structure 
     atomic species   magnetization
        Fe           0.700

      4 Sym. Ops. (no inversion) found



   Cartesian axes

     site n.     atom                  positions (alat units)
         1           Fe  tau(   1) = (   0.0000000   0.0000000   0.0000000  )
         2           Fe  tau(   2) = (  -0.0000000   0.5773520   0.8164960  )

     number of k points=    64  Methfessel-Paxton smearing, width (Ry)=  0.0200
                       cart. coord. in units 2pi/alat
        k(    1) = (   0.0000000   0.0000000   0.0000000), wk =   0.0029155
        k(    2) = (   0.0000000   0.0000000   0.0874818), wk =   0.0058309
        k(    3) = (   0.0000000   0.0000000   0.1749636), wk =   0.0058309
        k(    4) = (   0.0000000   0.0000000   0.2624453), wk =   0.0058309
        k(    5) = (   0.0000000   0.1649572   0.0000000), wk =   0.0058309
        k(    6) = (   0.0000000   0.1649572   0.0874818), wk =   0.0116618
        k(    7) = (   0.0000000   0.1649572   0.1749636), wk =   0.0116618
        k(    8) = (   0.0000000   0.1649572   0.2624453), wk =   0.0116618
        k(    9) = (   0.0000000   0.3299144   0.0000000), wk =   0.0058309
        k(   10) = (   0.0000000   0.3299144   0.0874818), wk =   0.0116618
        k(   11) = (   0.0000000   0.3299144   0.1749636), wk =   0.0116618
        k(   12) = (   0.0000000   0.3299144   0.2624453), wk =   0.0116618
        k(   13) = (   0.0000000   0.4948717   0.0000000), wk =   0.0058309
        k(   14) = (   0.0000000   0.4948717   0.0874818), wk =   0.0116618
        k(   15) = (   0.0000000   0.4948717   0.1749636), wk =   0.0116618
        k(   16) = (   0.0000000   0.4948717   0.2624453), wk =   0.0116618
        k(   17) = (   0.1428571   0.2474358   0.0000000), wk =   0.0116618
        k(   18) = (   0.1428571   0.2474358   0.0874818), wk =   0.0233236
        k(   19) = (   0.1428571   0.2474358   0.1749636), wk =   0.0233236
        k(   20) = (   0.1428571   0.2474358   0.2624453), wk =   0.0233236
        k(   21) = (   0.1428571   0.4123930   0.0000000), wk =   0.0116618
        k(   22) = (   0.1428571   0.4123930   0.0874818), wk =   0.0233236
        k(   23) = (   0.1428571   0.4123930   0.1749636), wk =   0.0233236
        k(   24) = (   0.1428571   0.4123930   0.2624453), wk =   0.0233236
        k(   25) = (   0.1428571   0.5773503   0.0000000), wk =   0.0058309
        k(   26) = (   0.1428571   0.5773503   0.0874818), wk =   0.0116618
        k(   27) = (   0.1428571   0.5773503   0.1749636), wk =   0.0116618
        k(   28) = (   0.1428571   0.5773503   0.2624453), wk =   0.0116618
        k(   29) = (   0.2857143   0.4948717   0.0000000), wk =   0.0116618
        k(   30) = (   0.2857143   0.4948717   0.0874818), wk =   0.0233236
        k(   31) = (   0.2857143   0.4948717   0.1749636), wk =   0.0233236
        k(   32) = (   0.2857143   0.4948717   0.2624453), wk =   0.0233236
        k(   33) = (   0.1428571  -0.0824786   0.0000000), wk =   0.0116618
        k(   34) = (   0.1428571  -0.0824786   0.0874818), wk =   0.0233236
        k(   35) = (   0.1428571  -0.0824786   0.1749636), wk =   0.0233236
        k(   36) = (   0.1428571  -0.0824786   0.2624453), wk =   0.0233236
        k(   37) = (   0.2857143  -0.1649572   0.0000000), wk =   0.0116618
        k(   38) = (   0.2857143  -0.1649572   0.0874818), wk =   0.0233236
        k(   39) = (   0.2857143  -0.1649572   0.1749636), wk =   0.0233236
        k(   40) = (   0.2857143  -0.1649572   0.2624453), wk =   0.0233236
        k(   41) = (   0.4285714  -0.2474358   0.0000000), wk =   0.0116618
        k(   42) = (   0.4285714  -0.2474358   0.0874818), wk =   0.0233236
        k(   43) = (   0.4285714  -0.2474358   0.1749636), wk =   0.0233236
        k(   44) = (   0.4285714  -0.2474358   0.2624453), wk =   0.0233236
        k(   45) = (   0.2857143  -0.0000000   0.0000000), wk =   0.0058309
        k(   46) = (   0.2857143  -0.0000000  -0.0874818), wk =   0.0116618
        k(   47) = (   0.2857143  -0.0000000  -0.1749636), wk =   0.0116618
        k(   48) = (   0.2857143  -0.0000000  -0.2624453), wk =   0.0116618
        k(   49) = (   0.2857143  -0.3299144   0.0000000), wk =   0.0116618
        k(   50) = (   0.4285714  -0.0824786   0.0000000), wk =   0.0116618
        k(   51) = (   0.2857143  -0.3299144   0.0874818), wk =   0.0233236
        k(   52) = (   0.4285714  -0.0824786  -0.0874818), wk =   0.0233236
        k(   53) = (   0.2857143  -0.3299144   0.1749636), wk =   0.0233236
        k(   54) = (   0.4285714  -0.0824786  -0.1749636), wk =   0.0233236
        k(   55) = (   0.2857143  -0.3299144   0.2624453), wk =   0.0233236
        k(   56) = (   0.4285714  -0.0824786  -0.2624453), wk =   0.0233236
        k(   57) = (   0.4285714  -0.4123930   0.0000000), wk =   0.0116618
        k(   58) = (   0.4285714  -0.4123930   0.0874818), wk =   0.0233236
        k(   59) = (   0.4285714  -0.4123930   0.1749636), wk =   0.0233236
        k(   60) = (   0.4285714  -0.4123930   0.2624453), wk =   0.0233236
        k(   61) = (   0.5714286  -0.0000000   0.0000000), wk =   0.0058309
        k(   62) = (   0.5714286  -0.0000000  -0.0874818), wk =   0.0116618
        k(   63) = (   0.5714286  -0.0000000  -0.1749636), wk =   0.0116618
        k(   64) = (   0.5714286  -0.0000000  -0.2624453), wk =   0.0116618

     Dense  grid:     9369 G-vectors     FFT dimensions: (  24,  24,  40)

     Smooth grid:     3357 G-vectors     FFT dimensions: (  18,  18,  27)

     Estimated max dynamical RAM per process >       8.49 MB

     Estimated total dynamical RAM >      67.91 MB
     Generating pointlists ...
     new r_m :   0.4125 (alat units)  1.9488 (a.u.) for type    1

     Initial potential from superposition of free atoms

     starting charge      15.9987, renormalised to      16.0000
     Starting wfcs are   12 randomized atomic wfcs

     total cpu time spent up to now is        0.6 secs

     Self-consistent Calculation

     iteration #  1     ecut=    30.00 Ry     beta= 0.50
     Davidson diagonalization with overlap
     ethr =  1.00E-02,  avg # of iterations =  3.8

     total cpu time spent up to now is        1.4 secs

     total energy              =    -111.37015024 Ry
     estimated scf accuracy    <       0.51489767 Ry

     total magnetization       =     6.27 Bohr mag/cell
     absolute magnetization    =     6.27 Bohr mag/cell

     iteration #  2     ecut=    30.00 Ry     beta= 0.50
     Davidson diagonalization with overlap
     ethr =  3.22E-03,  avg # of iterations =  1.9

     total cpu time spent up to now is        2.1 secs

     total energy              =    -111.52894072 Ry
     estimated scf accuracy    <       0.03966822 Ry

     total magnetization       =     5.83 Bohr mag/cell
     absolute magnetization    =     5.84 Bohr mag/cell

     iteration #  3     ecut=    30.00 Ry     beta= 0.50
     Davidson diagonalization with overlap
     ethr =  2.48E-04,  avg # of iterations =  1.8

     total cpu time spent up to now is        2.6 secs

     total energy              =    -111.55477247 Ry
     estimated scf accuracy    <       0.01025481 Ry

     total magnetization       =     5.71 Bohr mag/cell
     absolute magnetization    =     5.75 Bohr mag/cell

     iteration #  4     ecut=    30.00 Ry     beta= 0.50
     Davidson diagonalization with overlap
     ethr =  6.41E-05,  avg # of iterations =  2.2

     total cpu time spent up to now is        3.3 secs

     total energy              =    -111.55881319 Ry
     estimated scf accuracy    <       0.09929026 Ry

     total magnetization       =     5.06 Bohr mag/cell
     absolute magnetization    =     5.21 Bohr mag/cell

     iteration #  5     ecut=    30.00 Ry     beta= 0.50
     Davidson diagonalization with overlap
     ethr =  6.41E-05,  avg # of iterations =  1.1

     total cpu time spent up to now is        3.8 secs

     total energy              =    -111.56544445 Ry
     estimated scf accuracy    <       0.00206912 Ry

     total magnetization       =     5.02 Bohr mag/cell
     absolute magnetization    =     5.20 Bohr mag/cell

     iteration #  6     ecut=    30.00 Ry     beta= 0.50
     Davidson diagonalization with overlap
     ethr =  1.29E-05,  avg # of iterations =  1.5

     total cpu time spent up to now is        4.4 secs

     total energy              =    -111.56640694 Ry
     estimated scf accuracy    <       0.00124368 Ry

     total magnetization       =     4.96 Bohr mag/cell
     absolute magnetization    =     5.16 Bohr mag/cell

     iteration #  7     ecut=    30.00 Ry     beta= 0.50
     Davidson diagonalization with overlap
     ethr =  7.77E-06,  avg # of iterations =  1.0

     total cpu time spent up to now is        4.9 secs

     total energy              =    -111.56683461 Ry
     estimated scf accuracy    <       0.00074726 Ry

     total magnetization       =     4.93 Bohr mag/cell
     absolute magnetization    =     5.13 Bohr mag/cell

     iteration #  8     ecut=    30.00 Ry     beta= 0.50
     Davidson diagonalization with overlap
     ethr =  4.67E-06,  avg # of iterations =  1.1

     total cpu time spent up to now is        5.5 secs

     total energy              =    -111.56692717 Ry
     estimated scf accuracy    <       0.00007243 Ry

     total magnetization       =     4.92 Bohr mag/cell
     absolute magnetization    =     5.12 Bohr mag/cell

     iteration #  9     ecut=    30.00 Ry     beta= 0.50
     Davidson diagonalization with overlap
     ethr =  4.53E-07,  avg # of iterations =  3.9

     total cpu time spent up to now is        6.3 secs

     total energy              =    -111.56694190 Ry
     estimated scf accuracy    <       0.00001666 Ry

     total magnetization       =     4.92 Bohr mag/cell
     absolute magnetization    =     5.12 Bohr mag/cell

     iteration # 10     ecut=    30.00 Ry     beta= 0.50
     Davidson diagonalization with overlap
     ethr =  1.04E-07,  avg # of iterations =  4.5

     total cpu time spent up to now is        7.2 secs

     total energy              =    -111.56695574 Ry
     estimated scf accuracy    <       0.00000482 Ry

     total magnetization       =     4.92 Bohr mag/cell
     absolute magnetization    =     5.12 Bohr mag/cell

     iteration # 11     ecut=    30.00 Ry     beta= 0.50
     Davidson diagonalization with overlap
     ethr =  3.01E-08,  avg # of iterations =  3.5

     total cpu time spent up to now is        8.1 secs

     total energy              =    -111.56695784 Ry
     estimated scf accuracy    <       0.00000047 Ry

     total magnetization       =     4.92 Bohr mag/cell
     absolute magnetization    =     5.12 Bohr mag/cell

     iteration # 12     ecut=    30.00 Ry     beta= 0.50
     Davidson diagonalization with overlap
     ethr =  2.91E-09,  avg # of iterations =  5.3

     Magnetic moment per site  (integrated on atomic sphere of radius R)
     atom   1 (R=0.412)  charge=  6.6086  magn=  2.4970
     atom   2 (R=0.412)  charge=  6.6082  magn=  2.4969

     total cpu time spent up to now is        9.1 secs

     End of self-consistent calculation

     Number of k-points >= 100: set verbosity='high' to print the bands.

     the Fermi energy is    14.3311 ev

!    total energy              =    -111.56695826 Ry
     estimated scf accuracy    <       0.00000010 Ry
     smearing contrib. (-TS)   =       0.00086294 Ry
     internal energy E=F+TS    =    -111.56782120 Ry

     The total energy is F=E-TS. E is the sum of the following terms:
     one-electron contribution =      16.46140825 Ry
     hartree contribution      =      12.82064605 Ry
     xc contribution           =     -53.01536925 Ry
     ewald contribution        =     -87.83450626 Ry

     total magnetization       =     4.92 Bohr mag/cell
     absolute magnetization    =     5.12 Bohr mag/cell

     convergence has been achieved in  12 iterations

     Forces acting on atoms (cartesian axes, Ry/au):

     atom    1 type  1   force =     0.00000000   -0.00000261    0.00000000
     atom    2 type  1   force =     0.00000000    0.00000261    0.00000000
     The non-local contrib.  to forces
     atom    1 type  1   force =     0.00000000   -0.00000157    0.00000000
     atom    2 type  1   force =     0.00000000    0.00000152    0.00000000
     The ionic contribution  to forces
     atom    1 type  1   force =    -0.00000000    0.00000403   -0.00002690
     atom    2 type  1   force =     0.00000000   -0.00000403    0.00002690
     The local contribution  to forces
     atom    1 type  1   force =     0.00000000   -0.00000166   -0.00000000
     atom    2 type  1   force =    -0.00000000    0.00000248    0.00007642
     The core correction contribution to forces
     atom    1 type  1   force =    -0.00000000    0.00000039    0.00000000
     atom    2 type  1   force =    -0.00000000   -0.00000009    0.00001279
     The Hubbard contrib.    to forces
     atom    1 type  1   force =     0.00000000    0.00000000    0.00000000
     atom    2 type  1   force =     0.00000000    0.00000000    0.00000000
     The SCF correction term to forces
     atom    1 type  1   force =     0.00000000   -0.00000399   -0.00000000
     atom    2 type  1   force =    -0.00000000    0.00000253    0.00000002

     Total force =     0.000004     Total SCF correction =     0.000005
     SCF correction compared to forces is large: reduce conv_thr to get better values


     Computing stress (Cartesian axis) and pressure

          total   stress  (Ry/bohr**3)                   (kbar)     P=      170.71
   0.00080300  -0.00000000   0.00000000          118.12       -0.00        0.00
  -0.00000000   0.00080298   0.00000000           -0.00      118.12        0.00
   0.00000000   0.00000000   0.00187543            0.00        0.00      275.89


     BFGS Geometry Optimization
     Energy error            =      0.0E+00 Ry
     Gradient error          =      2.6E-06 Ry/Bohr
     Cell gradient error     =      2.8E+02 kbar

     number of scf cycles    =   1
     number of bfgs steps    =   0

     enthalpy           new  =    -111.5669582600 Ry

     new trust radius        =       0.1145082954 bohr
     new conv_thr            =       0.0000001000 Ry

     new unit-cell volume =    162.44070 a.u.^3 (    24.07123 Ang^3 )
     density =      7.70487 g/cm^3

CELL_PARAMETERS (angstrom)
   2.550187268  -0.000000000   0.000000000
  -1.275093634   2.208525942   0.000000000
   0.000000000   0.000000000   4.273893298

ATOMIC_POSITIONS (angstrom)
Fe            0.0000000000       -0.0000014074        0.0000000000
Fe            0.0000000000        1.4723564494        2.1369451287



     Writing config-only to output data dir /home/gridsan/epan1/labutil/lab3_samples/problem1/Lab3/Fe_hcp_a_2.5_ecut_30_nk_7/pwscf.save/
     NEW-OLD atomic charge density approx. for the potential

     Check: negative core charge=   -0.000003
     extrapolated charge   17.31210, renormalised to   16.00000
     Generating pointlists ...

     total cpu time spent up to now is        9.6 secs

     Self-consistent Calculation

     iteration #  1     ecut=    30.00 Ry     beta= 0.50
     Davidson diagonalization with overlap
     ethr =  1.00E-06,  avg # of iterations = 12.0

     total cpu time spent up to now is       11.9 secs

     total energy              =    -110.90306916 Ry
     estimated scf accuracy    <       0.70170810 Ry

     total magnetization       =     4.04 Bohr mag/cell
     absolute magnetization    =     4.29 Bohr mag/cell

     iteration #  2     ecut=    30.00 Ry     beta= 0.50
     Davidson diagonalization with overlap
     ethr =  4.39E-03,  avg # of iterations =  3.4

     total cpu time spent up to now is       12.8 secs

     total energy              =    -111.54230495 Ry
     estimated scf accuracy    <       1.50474266 Ry

     total magnetization       =     4.83 Bohr mag/cell
     absolute magnetization    =     4.98 Bohr mag/cell

     iteration #  3     ecut=    30.00 Ry     beta= 0.50
     Davidson diagonalization with overlap
     ethr =  4.39E-03,  avg # of iterations =  1.6

     total cpu time spent up to now is       13.4 secs

     total energy              =    -111.62358345 Ry
     estimated scf accuracy    <       0.36740448 Ry

     total magnetization       =     4.87 Bohr mag/cell
     absolute magnetization    =     5.09 Bohr mag/cell

     iteration #  4     ecut=    30.00 Ry     beta= 0.50
     Davidson diagonalization with overlap
     ethr =  2.30E-03,  avg # of iterations =  1.0

     total cpu time spent up to now is       13.9 secs

     total energy              =    -111.59472379 Ry
     estimated scf accuracy    <       0.23661621 Ry

     total magnetization       =     4.88 Bohr mag/cell
     absolute magnetization    =     5.10 Bohr mag/cell

     iteration #  5     ecut=    30.00 Ry     beta= 0.50
     Davidson diagonalization with overlap
     ethr =  1.48E-03,  avg # of iterations =  1.0

     total cpu time spent up to now is       14.5 secs

     total energy              =    -111.58682042 Ry
     estimated scf accuracy    <       0.11166378 Ry

     total magnetization       =     4.90 Bohr mag/cell
     absolute magnetization    =     5.13 Bohr mag/cell

     iteration #  6     ecut=    30.00 Ry     beta= 0.50
     Davidson diagonalization with overlap
     ethr =  6.98E-04,  avg # of iterations =  1.0

     total cpu time spent up to now is       15.1 secs

     total energy              =    -111.57415668 Ry
     estimated scf accuracy    <       0.05773661 Ry

     total magnetization       =     4.94 Bohr mag/cell
     absolute magnetization    =     5.17 Bohr mag/cell

     iteration #  7     ecut=    30.00 Ry     beta= 0.50
     Davidson diagonalization with overlap
     ethr =  3.61E-04,  avg # of iterations =  1.2

     total cpu time spent up to now is       15.6 secs

     total energy              =    -111.57461321 Ry
     estimated scf accuracy    <       0.01162721 Ry

     total magnetization       =     5.03 Bohr mag/cell
     absolute magnetization    =     5.26 Bohr mag/cell

     iteration #  8     ecut=    30.00 Ry     beta= 0.50
     Davidson diagonalization with overlap
     ethr =  7.27E-05,  avg # of iterations =  2.1

     total cpu time spent up to now is       16.3 secs

     total energy              =    -111.57620575 Ry
     estimated scf accuracy    <       0.00111339 Ry

     total magnetization       =     5.08 Bohr mag/cell
     absolute magnetization    =     5.32 Bohr mag/cell

     iteration #  9     ecut=    30.00 Ry     beta= 0.50
     Davidson diagonalization with overlap
     ethr =  6.96E-06,  avg # of iterations =  1.7

     total cpu time spent up to now is       16.9 secs

     total energy              =    -111.57626469 Ry
     estimated scf accuracy    <       0.00032892 Ry

     total magnetization       =     5.11 Bohr mag/cell
     absolute magnetization    =     5.35 Bohr mag/cell

     iteration # 10     ecut=    30.00 Ry     beta= 0.50
     Davidson diagonalization with overlap
     ethr =  2.06E-06,  avg # of iterations =  2.0

     total cpu time spent up to now is       17.5 secs

     total energy              =    -111.57630584 Ry
     estimated scf accuracy    <       0.00004164 Ry

     total magnetization       =     5.12 Bohr mag/cell
     absolute magnetization    =     5.36 Bohr mag/cell

     iteration # 11     ecut=    30.00 Ry     beta= 0.50
     Davidson diagonalization with overlap
     ethr =  2.60E-07,  avg # of iterations =  3.4

     total cpu time spent up to now is       18.4 secs

     total energy              =    -111.57633884 Ry
     estimated scf accuracy    <       0.00002200 Ry

     total magnetization       =     5.14 Bohr mag/cell
     absolute magnetization    =     5.38 Bohr mag/cell

     iteration # 12     ecut=    30.00 Ry     beta= 0.50
     Davidson diagonalization with overlap
     ethr =  1.38E-07,  avg # of iterations =  1.5

     total cpu time spent up to now is       19.4 secs

     total energy              =    -111.57634039 Ry
     estimated scf accuracy    <       0.00000310 Ry

     total magnetization       =     5.15 Bohr mag/cell
     absolute magnetization    =     5.39 Bohr mag/cell

     iteration # 13     ecut=    30.00 Ry     beta= 0.50
     Davidson diagonalization with overlap
     ethr =  1.94E-08,  avg # of iterations =  4.2

     total cpu time spent up to now is       20.5 secs

     total energy              =    -111.57634226 Ry
     estimated scf accuracy    <       0.00000065 Ry

     total magnetization       =     5.15 Bohr mag/cell
     absolute magnetization    =     5.39 Bohr mag/cell

     iteration # 14     ecut=    30.00 Ry     beta= 0.50
     Davidson diagonalization with overlap
     ethr =  4.07E-09,  avg # of iterations =  4.2

     total cpu time spent up to now is       21.5 secs

     total energy              =    -111.57634263 Ry
     estimated scf accuracy    <       0.00000095 Ry

     total magnetization       =     5.15 Bohr mag/cell
     absolute magnetization    =     5.39 Bohr mag/cell

     iteration # 15     ecut=    30.00 Ry     beta= 0.50
     Davidson diagonalization with overlap
     ethr =  4.07E-09,  avg # of iterations =  1.5

     Magnetic moment per site  (integrated on atomic sphere of radius R)
     atom   1 (R=0.412)  charge=  6.4984  magn=  2.6193
     atom   2 (R=0.412)  charge=  6.4982  magn=  2.6195

     total cpu time spent up to now is       22.1 secs

     End of self-consistent calculation

     Number of k-points >= 100: set verbosity='high' to print the bands.

     the Fermi energy is    12.9370 ev

!    total energy              =    -111.57634270 Ry
     estimated scf accuracy    <       0.00000010 Ry
     smearing contrib. (-TS)   =      -0.00055555 Ry
     internal energy E=F+TS    =    -111.57578715 Ry

     The total energy is F=E-TS. E is the sum of the following terms:
     one-electron contribution =      12.97828023 Ry
     hartree contribution      =      13.71834011 Ry
     xc contribution           =     -52.91518590 Ry
     ewald contribution        =     -85.35722159 Ry

     total magnetization       =     5.15 Bohr mag/cell
     absolute magnetization    =     5.39 Bohr mag/cell

     convergence has been achieved in  15 iterations

     Forces acting on atoms (cartesian axes, Ry/au):

     atom    1 type  1   force =    -0.00000000   -0.00000064    0.00000000
     atom    2 type  1   force =     0.00000000    0.00000064    0.00000000
     The non-local contrib.  to forces
     atom    1 type  1   force =    -0.00000000   -0.00000247    0.00000000
     atom    2 type  1   force =     0.00000000    0.00000101    0.00000000
     The ionic contribution  to forces
     atom    1 type  1   force =     0.00000000    0.00000467   -0.00002616
     atom    2 type  1   force =     0.00000000   -0.00000467    0.00002616
     The local contribution  to forces
     atom    1 type  1   force =     0.00000000   -0.00000219    0.00000000
     atom    2 type  1   force =    -0.00000000    0.00000361    0.00008231
     The core correction contribution to forces
     atom    1 type  1   force =    -0.00000000    0.00000031    0.00000001
     atom    2 type  1   force =    -0.00000000   -0.00000012    0.00001346
     The Hubbard contrib.    to forces
     atom    1 type  1   force =     0.00000000    0.00000000    0.00000000
     atom    2 type  1   force =     0.00000000    0.00000000    0.00000000
     The SCF correction term to forces
     atom    1 type  1   force =    -0.00000000   -0.00000110    0.00000000
     atom    2 type  1   force =     0.00000000    0.00000066   -0.00000000

     Total force =     0.000001     Total SCF correction =     0.000001
     SCF correction compared to forces is large: reduce conv_thr to get better values


     Computing stress (Cartesian axis) and pressure

          total   stress  (Ry/bohr**3)                   (kbar)     P=       14.87
  -0.00010717  -0.00000000   0.00000000          -15.77       -0.00        0.00
   0.00000000  -0.00010720   0.00000000            0.00      -15.77        0.00
   0.00000000   0.00000000   0.00051752            0.00        0.00       76.13

     Energy error            =      9.4E-03 Ry
     Gradient error          =      6.4E-07 Ry/Bohr
     Cell gradient error     =      7.6E+01 kbar

     number of scf cycles    =   2
     number of bfgs steps    =   1

     enthalpy           old  =    -111.5669582600 Ry
     enthalpy           new  =    -111.5763426985 Ry

     CASE: enthalpy          _new < enthalpy          _old

     new trust radius        =       0.0456159542 bohr
     new conv_thr            =       0.0000000010 Ry

     new unit-cell volume =    164.57228 a.u.^3 (    24.38710 Ang^3 )
     density =      7.60507 g/cm^3

CELL_PARAMETERS (angstrom)
   2.544202154  -0.000000000   0.000000000
  -1.272101077   2.203340818   0.000000000
   0.000000000   0.000000000   4.350375964

ATOMIC_POSITIONS (angstrom)
Fe            0.0000000000       -0.0000018996        0.0000000000
Fe            0.0000000000        1.4689001821        2.1751864344



     Writing config-only to output data dir /home/gridsan/epan1/labutil/lab3_samples/problem1/Lab3/Fe_hcp_a_2.5_ecut_30_nk_7/pwscf.save/
     NEW-OLD atomic charge density approx. for the potential

     Check: negative core charge=   -0.000004
     extrapolated charge   16.20722, renormalised to   16.00000
     Generating pointlists ...

     total cpu time spent up to now is       23.1 secs

     Self-consistent Calculation

     iteration #  1     ecut=    30.00 Ry     beta= 0.50
     Davidson diagonalization with overlap
     ethr =  1.00E-06,  avg # of iterations =  7.1

     total cpu time spent up to now is       24.6 secs

     total energy              =    -111.56017590 Ry
     estimated scf accuracy    <       0.01795560 Ry

     total magnetization       =     5.14 Bohr mag/cell
     absolute magnetization    =     5.38 Bohr mag/cell

     iteration #  2     ecut=    30.00 Ry     beta= 0.50
     Davidson diagonalization with overlap
     ethr =  1.12E-04,  avg # of iterations =  3.7

     total cpu time spent up to now is       25.5 secs

     total energy              =    -111.57643626 Ry
     estimated scf accuracy    <       0.03825536 Ry

     total magnetization       =     5.14 Bohr mag/cell
     absolute magnetization    =     5.39 Bohr mag/cell

     iteration #  3     ecut=    30.00 Ry     beta= 0.50
     Davidson diagonalization with overlap
     ethr =  1.12E-04,  avg # of iterations =  1.8

     total cpu time spent up to now is       26.1 secs

     total energy              =    -111.57854709 Ry
     estimated scf accuracy    <       0.00855508 Ry

     total magnetization       =     5.14 Bohr mag/cell
     absolute magnetization    =     5.39 Bohr mag/cell

     iteration #  4     ecut=    30.00 Ry     beta= 0.50
     Davidson diagonalization with overlap
     ethr =  5.35E-05,  avg # of iterations =  1.0

     total cpu time spent up to now is       26.7 secs

     total energy              =    -111.57546895 Ry
     estimated scf accuracy    <       0.00552047 Ry

     total magnetization       =     5.14 Bohr mag/cell
     absolute magnetization    =     5.39 Bohr mag/cell

     iteration #  5     ecut=    30.00 Ry     beta= 0.50
     Davidson diagonalization with overlap
     ethr =  3.45E-05,  avg # of iterations =  2.9

     total cpu time spent up to now is       27.4 secs

     total energy              =    -111.57779794 Ry
     estimated scf accuracy    <       0.00101608 Ry

     total magnetization       =     5.14 Bohr mag/cell
     absolute magnetization    =     5.39 Bohr mag/cell

     iteration #  6     ecut=    30.00 Ry     beta= 0.50
     Davidson diagonalization with overlap
     ethr =  6.35E-06,  avg # of iterations =  1.6

     total cpu time spent up to now is       28.0 secs

     total energy              =    -111.57734743 Ry
     estimated scf accuracy    <       0.00138539 Ry

     total magnetization       =     5.14 Bohr mag/cell
     absolute magnetization    =     5.39 Bohr mag/cell

     iteration #  7     ecut=    30.00 Ry     beta= 0.50
     Davidson diagonalization with overlap
     ethr =  6.35E-06,  avg # of iterations =  1.5

     total cpu time spent up to now is       28.6 secs

     total energy              =    -111.57745277 Ry
     estimated scf accuracy    <       0.00013511 Ry

     total magnetization       =     5.14 Bohr mag/cell
     absolute magnetization    =     5.39 Bohr mag/cell

     iteration #  8     ecut=    30.00 Ry     beta= 0.50
     Davidson diagonalization with overlap
     ethr =  8.44E-07,  avg # of iterations =  1.9

     total cpu time spent up to now is       29.3 secs

     total energy              =    -111.57744451 Ry
     estimated scf accuracy    <       0.00003204 Ry

     total magnetization       =     5.15 Bohr mag/cell
     absolute magnetization    =     5.39 Bohr mag/cell

     iteration #  9     ecut=    30.00 Ry     beta= 0.50
     Davidson diagonalization with overlap
     ethr =  2.00E-07,  avg # of iterations =  3.5

     total cpu time spent up to now is       30.1 secs

     total energy              =    -111.57745906 Ry
     estimated scf accuracy    <       0.00002641 Ry

     total magnetization       =     5.15 Bohr mag/cell
     absolute magnetization    =     5.40 Bohr mag/cell

     iteration # 10     ecut=    30.00 Ry     beta= 0.50
     Davidson diagonalization with overlap
     ethr =  1.65E-07,  avg # of iterations =  1.0

     total cpu time spent up to now is       30.7 secs

     total energy              =    -111.57745980 Ry
     estimated scf accuracy    <       0.00000358 Ry

     total magnetization       =     5.15 Bohr mag/cell
     absolute magnetization    =     5.40 Bohr mag/cell

     iteration # 11     ecut=    30.00 Ry     beta= 0.50
     Davidson diagonalization with overlap
     ethr =  2.24E-08,  avg # of iterations =  2.0

     total cpu time spent up to now is       31.3 secs

     total energy              =    -111.57746065 Ry
     estimated scf accuracy    <       0.00000004 Ry

     total magnetization       =     5.15 Bohr mag/cell
     absolute magnetization    =     5.40 Bohr mag/cell

     iteration # 12     ecut=    30.00 Ry     beta= 0.50
     Davidson diagonalization with overlap
     ethr =  2.63E-10,  avg # of iterations =  6.3

     total cpu time spent up to now is       33.2 secs

     total energy              =    -111.57746075 Ry
     estimated scf accuracy    <       0.00000002 Ry

     total magnetization       =     5.15 Bohr mag/cell
     absolute magnetization    =     5.40 Bohr mag/cell

     iteration # 13     ecut=    30.00 Ry     beta= 0.50
     Davidson diagonalization with overlap
     ethr =  1.33E-10,  avg # of iterations =  2.5

     Magnetic moment per site  (integrated on atomic sphere of radius R)
     atom   1 (R=0.412)  charge=  6.4855  magn=  2.6206
     atom   2 (R=0.412)  charge=  6.4855  magn=  2.6205

     total cpu time spent up to now is       34.3 secs

     End of self-consistent calculation

     Number of k-points >= 100: set verbosity='high' to print the bands.

     the Fermi energy is    12.7166 ev

!    total energy              =    -111.57746076 Ry
     estimated scf accuracy    <          4.9E-10 Ry
     smearing contrib. (-TS)   =      -0.00046902 Ry
     internal energy E=F+TS    =    -111.57699174 Ry

     The total energy is F=E-TS. E is the sum of the following terms:
     one-electron contribution =      12.41830556 Ry
     hartree contribution      =      13.87468745 Ry
     xc contribution           =     -52.90049977 Ry
     ewald contribution        =     -84.96948498 Ry

     total magnetization       =     5.15 Bohr mag/cell
     absolute magnetization    =     5.40 Bohr mag/cell

     convergence has been achieved in  13 iterations

     Forces acting on atoms (cartesian axes, Ry/au):

     atom    1 type  1   force =    -0.00000000   -0.00000061    0.00000000
     atom    2 type  1   force =     0.00000000    0.00000061    0.00000000
     The non-local contrib.  to forces
     atom    1 type  1   force =    -0.00000000   -0.00000183    0.00000000
     atom    2 type  1   force =     0.00000000    0.00000185    0.00000000
     The ionic contribution  to forces
     atom    1 type  1   force =     0.00000000    0.00000354   -0.00002650
     atom    2 type  1   force =    -0.00000000   -0.00000354    0.00002650
     The local contribution  to forces
     atom    1 type  1   force =     0.00000000   -0.00000244   -0.00000000
     atom    2 type  1   force =     0.00000000    0.00000248    0.00008457
     The core correction contribution to forces
     atom    1 type  1   force =    -0.00000000    0.00000010    0.00000002
     atom    2 type  1   force =     0.00000000   -0.00000009    0.00001374
     The Hubbard contrib.    to forces
     atom    1 type  1   force =     0.00000000    0.00000000    0.00000000
     atom    2 type  1   force =     0.00000000    0.00000000    0.00000000
     The SCF correction term to forces
     atom    1 type  1   force =    -0.00000000    0.00000007    0.00000000
     atom    2 type  1   force =     0.00000000   -0.00000005   -0.00000000

     Total force =     0.000001     Total SCF correction =     0.000000


     Computing stress (Cartesian axis) and pressure

          total   stress  (Ry/bohr**3)                   (kbar)     P=      -11.50
  -0.00020844  -0.00000000   0.00000000          -30.66       -0.00        0.00
  -0.00000000  -0.00020848   0.00000000           -0.00      -30.67        0.00
   0.00000000   0.00000000   0.00018249            0.00        0.00       26.85

     Energy error            =      1.1E-03 Ry
     Gradient error          =      6.1E-07 Ry/Bohr
     Cell gradient error     =      3.1E+01 kbar

     number of scf cycles    =   3
     number of bfgs steps    =   2

     enthalpy           old  =    -111.5763426985 Ry
     enthalpy           new  =    -111.5774607565 Ry

     CASE: enthalpy          _new < enthalpy          _old

     new trust radius        =       0.0466242887 bohr
     new conv_thr            =       0.0000000010 Ry

     new unit-cell volume =    164.41380 a.u.^3 (    24.36361 Ang^3 )
     density =      7.61240 g/cm^3

CELL_PARAMETERS (angstrom)
   2.520184735  -0.000000000   0.000000000
  -1.260092367   2.182535585   0.000000000
   0.000000000   0.000000000   4.429431206

ATOMIC_POSITIONS (angstrom)
Fe            0.0000000000       -0.0000027675        0.0000000000
Fe            0.0000000000        1.4550308525        2.2147140270



     Writing config-only to output data dir /home/gridsan/epan1/labutil/lab3_samples/problem1/Lab3/Fe_hcp_a_2.5_ecut_30_nk_7/pwscf.save/
     NEW-OLD atomic charge density approx. for the potential

     Check: negative core charge=   -0.000005
     extrapolated charge   15.98458, renormalised to   16.00000
     Generating pointlists ...

     total cpu time spent up to now is       35.4 secs

     Self-consistent Calculation

     iteration #  1     ecut=    30.00 Ry     beta= 0.50
     Davidson diagonalization with overlap
     ethr =  1.00E-06,  avg # of iterations =  6.1

     total cpu time spent up to now is       36.8 secs

     total energy              =    -111.57795454 Ry
     estimated scf accuracy    <       0.00033296 Ry

     total magnetization       =     5.10 Bohr mag/cell
     absolute magnetization    =     5.35 Bohr mag/cell

     iteration #  2     ecut=    30.00 Ry     beta= 0.50
     Davidson diagonalization with overlap
     ethr =  2.08E-06,  avg # of iterations =  3.1

     total cpu time spent up to now is       37.5 secs

     total energy              =    -111.57809941 Ry
     estimated scf accuracy    <       0.00028043 Ry

     total magnetization       =     5.09 Bohr mag/cell
     absolute magnetization    =     5.35 Bohr mag/cell

     iteration #  3     ecut=    30.00 Ry     beta= 0.50
     Davidson diagonalization with overlap
     ethr =  1.75E-06,  avg # of iterations =  1.2

     total cpu time spent up to now is       38.1 secs

     total energy              =    -111.57811719 Ry
     estimated scf accuracy    <       0.00006629 Ry

     total magnetization       =     5.09 Bohr mag/cell
     absolute magnetization    =     5.35 Bohr mag/cell

     iteration #  4     ecut=    30.00 Ry     beta= 0.50
     Davidson diagonalization with overlap
     ethr =  4.14E-07,  avg # of iterations =  2.2

     total cpu time spent up to now is       38.8 secs

     total energy              =    -111.57809407 Ry
     estimated scf accuracy    <       0.00121718 Ry

     total magnetization       =     5.08 Bohr mag/cell
     absolute magnetization    =     5.34 Bohr mag/cell

     iteration #  5     ecut=    30.00 Ry     beta= 0.50
     Davidson diagonalization with overlap
     ethr =  4.14E-07,  avg # of iterations =  2.1

     total cpu time spent up to now is       39.5 secs

     total energy              =    -111.57813642 Ry
     estimated scf accuracy    <       0.00004964 Ry

     total magnetization       =     5.08 Bohr mag/cell
     absolute magnetization    =     5.34 Bohr mag/cell

     iteration #  6     ecut=    30.00 Ry     beta= 0.50
     Davidson diagonalization with overlap
     ethr =  3.10E-07,  avg # of iterations =  2.1

     total cpu time spent up to now is       40.2 secs

     total energy              =    -111.57815400 Ry
     estimated scf accuracy    <       0.00000785 Ry

     total magnetization       =     5.08 Bohr mag/cell
     absolute magnetization    =     5.34 Bohr mag/cell

     iteration #  7     ecut=    30.00 Ry     beta= 0.50
     Davidson diagonalization with overlap
     ethr =  4.91E-08,  avg # of iterations =  1.1

     total cpu time spent up to now is       40.8 secs

     total energy              =    -111.57815090 Ry
     estimated scf accuracy    <       0.00000549 Ry

     total magnetization       =     5.08 Bohr mag/cell
     absolute magnetization    =     5.34 Bohr mag/cell

     iteration #  8     ecut=    30.00 Ry     beta= 0.50
     Davidson diagonalization with overlap
     ethr =  3.43E-08,  avg # of iterations =  2.4

     total cpu time spent up to now is       41.5 secs

     total energy              =    -111.57815281 Ry
     estimated scf accuracy    <       0.00000161 Ry

     total magnetization       =     5.08 Bohr mag/cell
     absolute magnetization    =     5.33 Bohr mag/cell

     iteration #  9     ecut=    30.00 Ry     beta= 0.50
     Davidson diagonalization with overlap
     ethr =  1.01E-08,  avg # of iterations =  1.4

     total cpu time spent up to now is       42.1 secs

     total energy              =    -111.57815307 Ry
     estimated scf accuracy    <          9.2E-09 Ry

     total magnetization       =     5.08 Bohr mag/cell
     absolute magnetization    =     5.33 Bohr mag/cell

     iteration # 10     ecut=    30.00 Ry     beta= 0.50
     Davidson diagonalization with overlap
     ethr =  5.76E-11,  avg # of iterations =  9.2

     total cpu time spent up to now is       43.8 secs

     total energy              =    -111.57815314 Ry
     estimated scf accuracy    <       0.00000002 Ry

     total magnetization       =     5.08 Bohr mag/cell
     absolute magnetization    =     5.33 Bohr mag/cell

     iteration # 11     ecut=    30.00 Ry     beta= 0.50
     Davidson diagonalization with overlap
     ethr =  5.76E-11,  avg # of iterations =  2.1

     total cpu time spent up to now is       44.5 secs

     total energy              =    -111.57815314 Ry
     estimated scf accuracy    <          2.1E-09 Ry

     total magnetization       =     5.08 Bohr mag/cell
     absolute magnetization    =     5.33 Bohr mag/cell

     iteration # 12     ecut=    30.00 Ry     beta= 0.50
     Davidson diagonalization with overlap
     ethr =  1.32E-11,  avg # of iterations =  4.0

     Magnetic moment per site  (integrated on atomic sphere of radius R)
     atom   1 (R=0.412)  charge=  6.4914  magn=  2.5892
     atom   2 (R=0.412)  charge=  6.4915  magn=  2.5893

     total cpu time spent up to now is       46.0 secs

     End of self-consistent calculation

     Number of k-points >= 100: set verbosity='high' to print the bands.

     the Fermi energy is    12.7038 ev

!    total energy              =    -111.57815314 Ry
     estimated scf accuracy    <          6.9E-10 Ry
     smearing contrib. (-TS)   =       0.00004458 Ry
     internal energy E=F+TS    =    -111.57819773 Ry

     The total energy is F=E-TS. E is the sum of the following terms:
     one-electron contribution =      12.37025889 Ry
     hartree contribution      =      13.90721216 Ry
     xc contribution           =     -52.90137693 Ry
     ewald contribution        =     -84.95429184 Ry

     total magnetization       =     5.08 Bohr mag/cell
     absolute magnetization    =     5.33 Bohr mag/cell

     convergence has been achieved in  12 iterations

     Forces acting on atoms (cartesian axes, Ry/au):

     atom    1 type  1   force =    -0.00000000   -0.00000110    0.00000000
     atom    2 type  1   force =     0.00000000    0.00000110    0.00000000
     The non-local contrib.  to forces
     atom    1 type  1   force =    -0.00000000   -0.00000347    0.00000000
     atom    2 type  1   force =     0.00000000    0.00000359    0.00000000
     The ionic contribution  to forces
     atom    1 type  1   force =     0.00000000    0.00000065   -0.00002729
     atom    2 type  1   force =    -0.00000000   -0.00000065    0.00002729
     The local contribution  to forces
     atom    1 type  1   force =     0.00000000    0.00000155   -0.00000000
     atom    2 type  1   force =     0.00000000   -0.00000157    0.00008693
     The core correction contribution to forces
     atom    1 type  1   force =     0.00000000    0.00000025    0.00000002
     atom    2 type  1   force =     0.00000000   -0.00000025    0.00001403
     The Hubbard contrib.    to forces
     atom    1 type  1   force =     0.00000000    0.00000000    0.00000000
     atom    2 type  1   force =     0.00000000    0.00000000    0.00000000
     The SCF correction term to forces
     atom    1 type  1   force =     0.00000000   -0.00000002   -0.00000000
     atom    2 type  1   force =     0.00000000    0.00000004   -0.00000000

     Total force =     0.000002     Total SCF correction =     0.000000


     Computing stress (Cartesian axis) and pressure

          total   stress  (Ry/bohr**3)                   (kbar)     P=      -13.88
  -0.00010261   0.00000000   0.00000000          -15.10        0.00        0.00
  -0.00000000  -0.00010267   0.00000000           -0.00      -15.10        0.00
   0.00000000   0.00000000  -0.00007777            0.00        0.00      -11.44

     Energy error            =      6.9E-04 Ry
     Gradient error          =      1.1E-06 Ry/Bohr
     Cell gradient error     =      1.5E+01 kbar

     number of scf cycles    =   4
     number of bfgs steps    =   3

     enthalpy           old  =    -111.5774607565 Ry
     enthalpy           new  =    -111.5781531437 Ry

     CASE: enthalpy          _new < enthalpy          _old

     new trust radius        =       0.0073118532 bohr
     new conv_thr            =       0.0000000010 Ry

     new unit-cell volume =    163.46265 a.u.^3 (    24.22267 Ang^3 )
     density =      7.65670 g/cm^3

CELL_PARAMETERS (angstrom)
   2.513003633  -0.000000000   0.000000000
  -1.256501817   2.176312730   0.000000000
   0.000000000   0.000000000   4.429018651

ATOMIC_POSITIONS (angstrom)
Fe            0.0000000000       -0.0000034454        0.0000000000
Fe            0.0000000000        1.4508829481        2.2145077500



     Writing config-only to output data dir /home/gridsan/epan1/labutil/lab3_samples/problem1/Lab3/Fe_hcp_a_2.5_ecut_30_nk_7/pwscf.save/
     NEW-OLD atomic charge density approx. for the potential

     Check: negative core charge=   -0.000004
     extrapolated charge   15.90691, renormalised to   16.00000
     Generating pointlists ...

     total cpu time spent up to now is       46.8 secs

     Self-consistent Calculation

     iteration #  1     ecut=    30.00 Ry     beta= 0.50
     Davidson diagonalization with overlap
     ethr =  1.00E-06,  avg # of iterations =  5.3

     total cpu time spent up to now is       48.1 secs

     total energy              =    -111.57481995 Ry
     estimated scf accuracy    <       0.00361189 Ry

     total magnetization       =     5.06 Bohr mag/cell
     absolute magnetization    =     5.32 Bohr mag/cell

     iteration #  2     ecut=    30.00 Ry     beta= 0.50
     Davidson diagonalization with overlap
     ethr =  2.26E-05,  avg # of iterations =  3.7

     total cpu time spent up to now is       49.0 secs

     total energy              =    -111.57801556 Ry
     estimated scf accuracy    <       0.00713746 Ry

     total magnetization       =     5.08 Bohr mag/cell
     absolute magnetization    =     5.33 Bohr mag/cell

     iteration #  3     ecut=    30.00 Ry     beta= 0.50
     Davidson diagonalization with overlap
     ethr =  2.26E-05,  avg # of iterations =  1.8

     total cpu time spent up to now is       49.6 secs

     total energy              =    -111.57835921 Ry
     estimated scf accuracy    <       0.00135507 Ry

     total magnetization       =     5.07 Bohr mag/cell
     absolute magnetization    =     5.33 Bohr mag/cell

     iteration #  4     ecut=    30.00 Ry     beta= 0.50
     Davidson diagonalization with overlap
     ethr =  8.47E-06,  avg # of iterations =  1.1

     total cpu time spent up to now is       50.2 secs

     total energy              =    -111.57795504 Ry
     estimated scf accuracy    <       0.00079687 Ry

     total magnetization       =     5.07 Bohr mag/cell
     absolute magnetization    =     5.33 Bohr mag/cell

     iteration #  5     ecut=    30.00 Ry     beta= 0.50
     Davidson diagonalization with overlap
     ethr =  4.98E-06,  avg # of iterations =  2.8

     total cpu time spent up to now is       50.9 secs

     total energy              =    -111.57829648 Ry
     estimated scf accuracy    <       0.00007785 Ry

     total magnetization       =     5.07 Bohr mag/cell
     absolute magnetization    =     5.32 Bohr mag/cell

     iteration #  6     ecut=    30.00 Ry     beta= 0.50
     Davidson diagonalization with overlap
     ethr =  4.87E-07,  avg # of iterations =  3.2

     total cpu time spent up to now is       51.7 secs

     total energy              =    -111.57819645 Ry
     estimated scf accuracy    <       0.00044971 Ry

     total magnetization       =     5.06 Bohr mag/cell
     absolute magnetization    =     5.32 Bohr mag/cell

     iteration #  7     ecut=    30.00 Ry     beta= 0.50
     Davidson diagonalization with overlap
     ethr =  4.87E-07,  avg # of iterations =  2.1

     total cpu time spent up to now is       52.4 secs

     total energy              =    -111.57822666 Ry
     estimated scf accuracy    <       0.00007213 Ry

     total magnetization       =     5.06 Bohr mag/cell
     absolute magnetization    =     5.32 Bohr mag/cell

     iteration #  8     ecut=    30.00 Ry     beta= 0.50
     Davidson diagonalization with overlap
     ethr =  4.51E-07,  avg # of iterations =  1.0

     total cpu time spent up to now is       53.0 secs

     total energy              =    -111.57821154 Ry
     estimated scf accuracy    <       0.00005345 Ry

     total magnetization       =     5.06 Bohr mag/cell
     absolute magnetization    =     5.32 Bohr mag/cell

     iteration #  9     ecut=    30.00 Ry     beta= 0.50
     Davidson diagonalization with overlap
     ethr =  3.34E-07,  avg # of iterations =  1.4

     total cpu time spent up to now is       53.5 secs

     total energy              =    -111.57821117 Ry
     estimated scf accuracy    <       0.00000789 Ry

     total magnetization       =     5.07 Bohr mag/cell
     absolute magnetization    =     5.32 Bohr mag/cell

     iteration # 10     ecut=    30.00 Ry     beta= 0.50
     Davidson diagonalization with overlap
     ethr =  4.93E-08,  avg # of iterations =  3.0

     total cpu time spent up to now is       54.3 secs

     total energy              =    -111.57821456 Ry
     estimated scf accuracy    <       0.00000211 Ry

     total magnetization       =     5.07 Bohr mag/cell
     absolute magnetization    =     5.32 Bohr mag/cell

     iteration # 11     ecut=    30.00 Ry     beta= 0.50
     Davidson diagonalization with overlap
     ethr =  1.32E-08,  avg # of iterations =  2.3

     total cpu time spent up to now is       55.0 secs

     total energy              =    -111.57821525 Ry
     estimated scf accuracy    <       0.00000014 Ry

     total magnetization       =     5.07 Bohr mag/cell
     absolute magnetization    =     5.32 Bohr mag/cell

     iteration # 12     ecut=    30.00 Ry     beta= 0.50
     Davidson diagonalization with overlap
     ethr =  8.76E-10,  avg # of iterations =  3.2

     total cpu time spent up to now is       55.7 secs

     total energy              =    -111.57821527 Ry
     estimated scf accuracy    <       0.00000053 Ry

     total magnetization       =     5.07 Bohr mag/cell
     absolute magnetization    =     5.32 Bohr mag/cell

     iteration # 13     ecut=    30.00 Ry     beta= 0.50
     Davidson diagonalization with overlap
     ethr =  8.76E-10,  avg # of iterations =  1.0

     total cpu time spent up to now is       56.3 secs

     total energy              =    -111.57821521 Ry
     estimated scf accuracy    <       0.00000043 Ry

     total magnetization       =     5.07 Bohr mag/cell
     absolute magnetization    =     5.32 Bohr mag/cell

     iteration # 14     ecut=    30.00 Ry     beta= 0.50
     Davidson diagonalization with overlap
     ethr =  8.76E-10,  avg # of iterations =  1.0

     total cpu time spent up to now is       56.8 secs

     total energy              =    -111.57821521 Ry
     estimated scf accuracy    <       0.00000025 Ry

     total magnetization       =     5.07 Bohr mag/cell
     absolute magnetization    =     5.32 Bohr mag/cell

     iteration # 15     ecut=    30.00 Ry     beta= 0.50
     Davidson diagonalization with overlap
     ethr =  8.76E-10,  avg # of iterations =  1.0

     total cpu time spent up to now is       57.4 secs

     total energy              =    -111.57821519 Ry
     estimated scf accuracy    <       0.00000024 Ry

     total magnetization       =     5.07 Bohr mag/cell
     absolute magnetization    =     5.32 Bohr mag/cell

     iteration # 16     ecut=    30.00 Ry     beta= 0.50
     Davidson diagonalization with overlap
     ethr =  8.76E-10,  avg # of iterations =  1.0

     total cpu time spent up to now is       58.6 secs

     total energy              =    -111.57821513 Ry
     estimated scf accuracy    <       0.00000016 Ry

     total magnetization       =     5.07 Bohr mag/cell
     absolute magnetization    =     5.32 Bohr mag/cell

     iteration # 17     ecut=    30.00 Ry     beta= 0.50
     Davidson diagonalization with overlap
     ethr =  8.76E-10,  avg # of iterations =  2.0

     total cpu time spent up to now is       59.7 secs

     total energy              =    -111.57821515 Ry
     estimated scf accuracy    <          3.9E-09 Ry

     total magnetization       =     5.07 Bohr mag/cell
     absolute magnetization    =     5.32 Bohr mag/cell

     iteration # 18     ecut=    30.00 Ry     beta= 0.50
     Davidson diagonalization with overlap
     ethr =  2.46E-11,  avg # of iterations =  4.7

     total cpu time spent up to now is       60.7 secs

     total energy              =    -111.57821516 Ry
     estimated scf accuracy    <          5.9E-09 Ry

     total magnetization       =     5.07 Bohr mag/cell
     absolute magnetization    =     5.32 Bohr mag/cell

     iteration # 19     ecut=    30.00 Ry     beta= 0.50
     Davidson diagonalization with overlap
     ethr =  2.46E-11,  avg # of iterations =  1.9

     Magnetic moment per site  (integrated on atomic sphere of radius R)
     atom   1 (R=0.412)  charge=  6.4990  magn=  2.5820
     atom   2 (R=0.412)  charge=  6.4990  magn=  2.5820

     total cpu time spent up to now is       61.3 secs

     End of self-consistent calculation

     Number of k-points >= 100: set verbosity='high' to print the bands.

     the Fermi energy is    12.7897 ev

!    total energy              =    -111.57821516 Ry
     estimated scf accuracy    <          7.1E-10 Ry
     smearing contrib. (-TS)   =       0.00016081 Ry
     internal energy E=F+TS    =    -111.57837597 Ry

     The total energy is F=E-TS. E is the sum of the following terms:
     one-electron contribution =      12.59264148 Ry
     hartree contribution      =      13.85070410 Ry
     xc contribution           =     -52.90848439 Ry
     ewald contribution        =     -85.11323716 Ry

     total magnetization       =     5.07 Bohr mag/cell
     absolute magnetization    =     5.32 Bohr mag/cell

     convergence has been achieved in  19 iterations

     Forces acting on atoms (cartesian axes, Ry/au):

     atom    1 type  1   force =    -0.00000000   -0.00000124    0.00000000
     atom    2 type  1   force =     0.00000000    0.00000124    0.00000000
     The non-local contrib.  to forces
     atom    1 type  1   force =    -0.00000000   -0.00000457    0.00000000
     atom    2 type  1   force =     0.00000000    0.00000468    0.00000000
     The ionic contribution  to forces
     atom    1 type  1   force =     0.00000000   -0.00000091   -0.00002747
     atom    2 type  1   force =    -0.00000000    0.00000091    0.00002747
     The local contribution  to forces
     atom    1 type  1   force =    -0.00000000    0.00000391   -0.00000000
     atom    2 type  1   force =    -0.00000000   -0.00000390    0.00008691
     The core correction contribution to forces
     atom    1 type  1   force =    -0.00000000    0.00000037    0.00000002
     atom    2 type  1   force =    -0.00000000   -0.00000036    0.00001403
     The Hubbard contrib.    to forces
     atom    1 type  1   force =     0.00000000    0.00000000    0.00000000
     atom    2 type  1   force =     0.00000000    0.00000000    0.00000000
     The SCF correction term to forces
     atom    1 type  1   force =    -0.00000000    0.00000004    0.00000000
     atom    2 type  1   force =     0.00000000   -0.00000003    0.00000000

     Total force =     0.000002     Total SCF correction =     0.000000


     Computing stress (Cartesian axis) and pressure

          total   stress  (Ry/bohr**3)                   (kbar)     P=       -5.41
  -0.00002632  -0.00000000   0.00000000           -3.87       -0.00        0.00
   0.00000000  -0.00002639   0.00000000            0.00       -3.88        0.00
   0.00000000   0.00000000  -0.00005761            0.00        0.00       -8.47

     Energy error            =      6.2E-05 Ry
     Gradient error          =      1.2E-06 Ry/Bohr
     Cell gradient error     =      8.5E+00 kbar

     number of scf cycles    =   5
     number of bfgs steps    =   4

     enthalpy           old  =    -111.5781531437 Ry
     enthalpy           new  =    -111.5782151568 Ry

     CASE: enthalpy          _new < enthalpy          _old

     new trust radius        =       0.0069170669 bohr
     new conv_thr            =       0.0000000010 Ry

     new unit-cell volume =    162.80709 a.u.^3 (    24.12552 Ang^3 )
     density =      7.68753 g/cm^3

CELL_PARAMETERS (angstrom)
   2.511361822  -0.000000000   0.000000000
  -1.255680911   2.174885028   0.000000000
   0.000000000   0.000000000   4.417037730

ATOMIC_POSITIONS (angstrom)
Fe            0.0000000000       -0.0000043752        0.0000000000
Fe            0.0000000000        1.4499320740        2.2085172935



     Writing config-only to output data dir /home/gridsan/epan1/labutil/lab3_samples/problem1/Lab3/Fe_hcp_a_2.5_ecut_30_nk_7/pwscf.save/
     NEW-OLD atomic charge density approx. for the potential

     Check: negative core charge=   -0.000004
     extrapolated charge   15.93558, renormalised to   16.00000
     Generating pointlists ...

     total cpu time spent up to now is       62.1 secs

     Self-consistent Calculation

     iteration #  1     ecut=    30.00 Ry     beta= 0.50
     Davidson diagonalization with overlap
     ethr =  1.00E-06,  avg # of iterations =  4.5

     total cpu time spent up to now is       63.2 secs

     total energy              =    -111.57664876 Ry
     estimated scf accuracy    <       0.00165641 Ry

     total magnetization       =     5.05 Bohr mag/cell
     absolute magnetization    =     5.31 Bohr mag/cell

     iteration #  2     ecut=    30.00 Ry     beta= 0.50
     Davidson diagonalization with overlap
     ethr =  1.04E-05,  avg # of iterations =  3.7

     total cpu time spent up to now is       64.0 secs

     total energy              =    -111.57813973 Ry
     estimated scf accuracy    <       0.00334145 Ry

     total magnetization       =     5.07 Bohr mag/cell
     absolute magnetization    =     5.32 Bohr mag/cell

     iteration #  3     ecut=    30.00 Ry     beta= 0.50
     Davidson diagonalization with overlap
     ethr =  1.04E-05,  avg # of iterations =  1.8

     total cpu time spent up to now is       64.6 secs

     total energy              =    -111.57801285 Ry
     estimated scf accuracy    <       0.00063964 Ry

     total magnetization       =     5.06 Bohr mag/cell
     absolute magnetization    =     5.31 Bohr mag/cell

     iteration #  4     ecut=    30.00 Ry     beta= 0.50
     Davidson diagonalization with overlap
     ethr =  4.00E-06,  avg # of iterations =  2.8

     total cpu time spent up to now is       65.3 secs

     total energy              =    -111.57825729 Ry
     estimated scf accuracy    <       0.00004705 Ry

     total magnetization       =     5.06 Bohr mag/cell
     absolute magnetization    =     5.31 Bohr mag/cell

     iteration #  5     ecut=    30.00 Ry     beta= 0.50
     Davidson diagonalization with overlap
     ethr =  2.94E-07,  avg # of iterations =  2.9

     total cpu time spent up to now is       66.1 secs

     total energy              =    -111.57829190 Ry
     estimated scf accuracy    <       0.00018865 Ry

     total magnetization       =     5.06 Bohr mag/cell
     absolute magnetization    =     5.31 Bohr mag/cell

     iteration #  6     ecut=    30.00 Ry     beta= 0.50
     Davidson diagonalization with overlap
     ethr =  2.94E-07,  avg # of iterations =  1.1

     total cpu time spent up to now is       66.7 secs

     total energy              =    -111.57823770 Ry
     estimated scf accuracy    <       0.00024396 Ry

     total magnetization       =     5.06 Bohr mag/cell
     absolute magnetization    =     5.31 Bohr mag/cell

     iteration #  7     ecut=    30.00 Ry     beta= 0.50
     Davidson diagonalization with overlap
     ethr =  2.94E-07,  avg # of iterations =  2.0

     total cpu time spent up to now is       67.3 secs

     total energy              =    -111.57823694 Ry
     estimated scf accuracy    <       0.00008055 Ry

     total magnetization       =     5.06 Bohr mag/cell
     absolute magnetization    =     5.31 Bohr mag/cell

     iteration #  8     ecut=    30.00 Ry     beta= 0.50
     Davidson diagonalization with overlap
     ethr =  2.94E-07,  avg # of iterations =  1.0

     total cpu time spent up to now is       67.9 secs

     total energy              =    -111.57822668 Ry
     estimated scf accuracy    <       0.00004391 Ry

     total magnetization       =     5.06 Bohr mag/cell
     absolute magnetization    =     5.31 Bohr mag/cell

     iteration #  9     ecut=    30.00 Ry     beta= 0.50
     Davidson diagonalization with overlap
     ethr =  2.74E-07,  avg # of iterations =  1.2

     total cpu time spent up to now is       68.4 secs

     total energy              =    -111.57822583 Ry
     estimated scf accuracy    <       0.00000866 Ry

     total magnetization       =     5.06 Bohr mag/cell
     absolute magnetization    =     5.31 Bohr mag/cell

     iteration # 10     ecut=    30.00 Ry     beta= 0.50
     Davidson diagonalization with overlap
     ethr =  5.41E-08,  avg # of iterations =  2.3

     total cpu time spent up to now is       69.1 secs

     total energy              =    -111.57822810 Ry
     estimated scf accuracy    <          8.4E-09 Ry

     total magnetization       =     5.06 Bohr mag/cell
     absolute magnetization    =     5.31 Bohr mag/cell

     iteration # 11     ecut=    30.00 Ry     beta= 0.50
     Davidson diagonalization with overlap
     ethr =  5.25E-11,  avg # of iterations =  7.0

     total cpu time spent up to now is       70.4 secs

     total energy              =    -111.57822818 Ry
     estimated scf accuracy    <       0.00000001 Ry

     total magnetization       =     5.06 Bohr mag/cell
     absolute magnetization    =     5.31 Bohr mag/cell

     iteration # 12     ecut=    30.00 Ry     beta= 0.50
     Davidson diagonalization with overlap
     ethr =  5.25E-11,  avg # of iterations =  1.1

     total cpu time spent up to now is       71.0 secs

     total energy              =    -111.57822818 Ry
     estimated scf accuracy    <          5.5E-09 Ry

     total magnetization       =     5.06 Bohr mag/cell
     absolute magnetization    =     5.31 Bohr mag/cell

     iteration # 13     ecut=    30.00 Ry     beta= 0.50
     Davidson diagonalization with overlap
     ethr =  3.46E-11,  avg # of iterations =  1.8

     total cpu time spent up to now is       71.6 secs

     total energy              =    -111.57822818 Ry
     estimated scf accuracy    <          1.3E-09 Ry

     total magnetization       =     5.06 Bohr mag/cell
     absolute magnetization    =     5.31 Bohr mag/cell

     iteration # 14     ecut=    30.00 Ry     beta= 0.50
     Davidson diagonalization with overlap
     ethr =  8.35E-12,  avg # of iterations =  2.5

     Magnetic moment per site  (integrated on atomic sphere of radius R)
     atom   1 (R=0.412)  charge=  6.5035  magn=  2.5778
     atom   2 (R=0.412)  charge=  6.5035  magn=  2.5778

     total cpu time spent up to now is       72.4 secs

     End of self-consistent calculation

     Number of k-points >= 100: set verbosity='high' to print the bands.

     the Fermi energy is    12.8527 ev

!    total energy              =    -111.57822818 Ry
     estimated scf accuracy    <          5.6E-10 Ry
     smearing contrib. (-TS)   =       0.00018881 Ry
     internal energy E=F+TS    =    -111.57841699 Ry

     The total energy is F=E-TS. E is the sum of the following terms:
     one-electron contribution =      12.76155285 Ry
     hartree contribution      =      13.80411785 Ry
     xc contribution           =     -52.91263556 Ry
     ewald contribution        =     -85.23145214 Ry

     total magnetization       =     5.06 Bohr mag/cell
     absolute magnetization    =     5.31 Bohr mag/cell

     convergence has been achieved in  14 iterations

     Forces acting on atoms (cartesian axes, Ry/au):

     atom    1 type  1   force =    -0.00000000   -0.00000180    0.00000000
     atom    2 type  1   force =     0.00000000    0.00000180    0.00000000
     The non-local contrib.  to forces
     atom    1 type  1   force =    -0.00000000   -0.00000641    0.00000000
     atom    2 type  1   force =     0.00000000    0.00000650    0.00000000
     The ionic contribution  to forces
     atom    1 type  1   force =     0.00000000   -0.00000342   -0.00002749
     atom    2 type  1   force =     0.00000000    0.00000342    0.00002749
     The local contribution  to forces
     atom    1 type  1   force =    -0.00000000    0.00000766   -0.00000000
     atom    2 type  1   force =    -0.00000000   -0.00000765    0.00008654
     The core correction contribution to forces
     atom    1 type  1   force =    -0.00000000    0.00000055    0.00000002
     atom    2 type  1   force =    -0.00000000   -0.00000054    0.00001399
     The Hubbard contrib.    to forces
     atom    1 type  1   force =     0.00000000    0.00000000    0.00000000
     atom    2 type  1   force =     0.00000000    0.00000000    0.00000000
     The SCF correction term to forces
     atom    1 type  1   force =    -0.00000000   -0.00000013    0.00000000
     atom    2 type  1   force =    -0.00000000    0.00000013   -0.00000000

     Total force =     0.000003     Total SCF correction =     0.000000


     Computing stress (Cartesian axis) and pressure

          total   stress  (Ry/bohr**3)                   (kbar)     P=        0.99
   0.00000770   0.00000000   0.00000000            1.13        0.00        0.00
   0.00000000   0.00000760   0.00000000            0.00        1.12        0.00
   0.00000000   0.00000000   0.00000489            0.00        0.00        0.72

     Energy error            =      1.3E-05 Ry
     Gradient error          =      1.8E-06 Ry/Bohr
     Cell gradient error     =      1.1E+00 kbar

     number of scf cycles    =   6
     number of bfgs steps    =   5

     enthalpy           old  =    -111.5782151568 Ry
     enthalpy           new  =    -111.5782281822 Ry

     CASE: enthalpy          _new < enthalpy          _old

     new trust radius        =       0.0005941945 bohr
     new conv_thr            =       0.0000000010 Ry

     new unit-cell volume =    162.90205 a.u.^3 (    24.13959 Ang^3 )
     density =      7.68305 g/cm^3

CELL_PARAMETERS (angstrom)
   2.511946573  -0.000000000   0.000000000
  -1.255973287   2.175386714   0.000000000
   0.000000000   0.000000000   4.417566380

ATOMIC_POSITIONS (angstrom)
Fe            0.0000000000       -0.0000051740        0.0000000000
Fe            0.0000000000        1.4502673313        2.2087816182



     Writing config-only to output data dir /home/gridsan/epan1/labutil/lab3_samples/problem1/Lab3/Fe_hcp_a_2.5_ecut_30_nk_7/pwscf.save/
     NEW-OLD atomic charge density approx. for the potential

     Check: negative core charge=   -0.000004
     extrapolated charge   16.00933, renormalised to   16.00000
     Generating pointlists ...

     total cpu time spent up to now is       73.3 secs

     Self-consistent Calculation

     iteration #  1     ecut=    30.00 Ry     beta= 0.50
     Davidson diagonalization with overlap
     ethr =  1.00E-06,  avg # of iterations =  2.0

     total cpu time spent up to now is       74.1 secs

     total energy              =    -111.57820194 Ry
     estimated scf accuracy    <       0.00002814 Ry

     total magnetization       =     5.06 Bohr mag/cell
     absolute magnetization    =     5.31 Bohr mag/cell

     iteration #  2     ecut=    30.00 Ry     beta= 0.50
     Davidson diagonalization with overlap
     ethr =  1.76E-07,  avg # of iterations =  3.6

     total cpu time spent up to now is       75.0 secs

     total energy              =    -111.57822668 Ry
     estimated scf accuracy    <       0.00005625 Ry

     total magnetization       =     5.06 Bohr mag/cell
     absolute magnetization    =     5.31 Bohr mag/cell

     iteration #  3     ecut=    30.00 Ry     beta= 0.50
     Davidson diagonalization with overlap
     ethr =  1.76E-07,  avg # of iterations =  1.8

     total cpu time spent up to now is       75.6 secs

     total energy              =    -111.57822987 Ry
     estimated scf accuracy    <       0.00001341 Ry

     total magnetization       =     5.06 Bohr mag/cell
     absolute magnetization    =     5.31 Bohr mag/cell

     iteration #  4     ecut=    30.00 Ry     beta= 0.50
     Davidson diagonalization with overlap
     ethr =  8.38E-08,  avg # of iterations =  1.0

     total cpu time spent up to now is       76.1 secs

     total energy              =    -111.57822541 Ry
     estimated scf accuracy    <       0.00000764 Ry

     total magnetization       =     5.06 Bohr mag/cell
     absolute magnetization    =     5.31 Bohr mag/cell

     iteration #  5     ecut=    30.00 Ry     beta= 0.50
     Davidson diagonalization with overlap
     ethr =  4.77E-08,  avg # of iterations =  3.1

     total cpu time spent up to now is       76.9 secs

     total energy              =    -111.57822937 Ry
     estimated scf accuracy    <       0.00000254 Ry

     total magnetization       =     5.06 Bohr mag/cell
     absolute magnetization    =     5.31 Bohr mag/cell

     iteration #  6     ecut=    30.00 Ry     beta= 0.50
     Davidson diagonalization with overlap
     ethr =  1.59E-08,  avg # of iterations =  1.1

     total cpu time spent up to now is       77.5 secs

     total energy              =    -111.57822812 Ry
     estimated scf accuracy    <       0.00000344 Ry

     total magnetization       =     5.06 Bohr mag/cell
     absolute magnetization    =     5.31 Bohr mag/cell

     iteration #  7     ecut=    30.00 Ry     beta= 0.50
     Davidson diagonalization with overlap
     ethr =  1.59E-08,  avg # of iterations =  1.9

     total cpu time spent up to now is       78.1 secs

     total energy              =    -111.57822843 Ry
     estimated scf accuracy    <       0.00000024 Ry

     total magnetization       =     5.06 Bohr mag/cell
     absolute magnetization    =     5.31 Bohr mag/cell

     iteration #  8     ecut=    30.00 Ry     beta= 0.50
     Davidson diagonalization with overlap
     ethr =  1.53E-09,  avg # of iterations =  2.4

     total cpu time spent up to now is       78.8 secs

     total energy              =    -111.57822847 Ry
     estimated scf accuracy    <       0.00000002 Ry

     total magnetization       =     5.06 Bohr mag/cell
     absolute magnetization    =     5.31 Bohr mag/cell

     iteration #  9     ecut=    30.00 Ry     beta= 0.50
     Davidson diagonalization with overlap
     ethr =  1.12E-10,  avg # of iterations =  2.2

     total cpu time spent up to now is       79.5 secs

     total energy              =    -111.57822847 Ry
     estimated scf accuracy    <          9.1E-09 Ry

     total magnetization       =     5.06 Bohr mag/cell
     absolute magnetization    =     5.31 Bohr mag/cell

     iteration # 10     ecut=    30.00 Ry     beta= 0.50
     Davidson diagonalization with overlap
     ethr =  5.70E-11,  avg # of iterations =  2.7

     Magnetic moment per site  (integrated on atomic sphere of radius R)
     atom   1 (R=0.412)  charge=  6.5028  magn=  2.5783
     atom   2 (R=0.412)  charge=  6.5028  magn=  2.5783

     total cpu time spent up to now is       80.3 secs

     End of self-consistent calculation

     Number of k-points >= 100: set verbosity='high' to print the bands.

     the Fermi energy is    12.8438 ev

!    total energy              =    -111.57822847 Ry
     estimated scf accuracy    <          8.1E-10 Ry
     smearing contrib. (-TS)   =       0.00018019 Ry
     internal energy E=F+TS    =    -111.57840866 Ry

     The total energy is F=E-TS. E is the sum of the following terms:
     one-electron contribution =      12.73847781 Ry
     hartree contribution      =      13.81017622 Ry
     xc contribution           =     -52.91195470 Ry
     ewald contribution        =     -85.21510799 Ry

     total magnetization       =     5.06 Bohr mag/cell
     absolute magnetization    =     5.31 Bohr mag/cell

     convergence has been achieved in  10 iterations

     Forces acting on atoms (cartesian axes, Ry/au):

     atom    1 type  1   force =    -0.00000000   -0.00000159    0.00000000
     atom    2 type  1   force =     0.00000000    0.00000159    0.00000000
     The non-local contrib.  to forces
     atom    1 type  1   force =    -0.00000000   -0.00000790    0.00000000
     atom    2 type  1   force =     0.00000000    0.00000800    0.00000000
     The ionic contribution  to forces
     atom    1 type  1   force =    -0.00000000   -0.00000538   -0.00002747
     atom    2 type  1   force =     0.00000000    0.00000538    0.00002747
     The local contribution  to forces
     atom    1 type  1   force =     0.00000000    0.00001094    0.00000000
     atom    2 type  1   force =    -0.00000000   -0.00001094    0.00008656
     The core correction contribution to forces
     atom    1 type  1   force =    -0.00000000    0.00000075    0.00000002
     atom    2 type  1   force =    -0.00000000   -0.00000075    0.00001399
     The Hubbard contrib.    to forces
     atom    1 type  1   force =     0.00000000    0.00000000    0.00000000
     atom    2 type  1   force =     0.00000000    0.00000000    0.00000000
     The SCF correction term to forces
     atom    1 type  1   force =     0.00000000    0.00000005   -0.00000000
     atom    2 type  1   force =    -0.00000000   -0.00000005   -0.00000000

     Total force =     0.000002     Total SCF correction =     0.000000


     Computing stress (Cartesian axis) and pressure

          total   stress  (Ry/bohr**3)                   (kbar)     P=        0.31
   0.00000197   0.00000000   0.00000000            0.29        0.00        0.00
  -0.00000000   0.00000185   0.00000000           -0.00        0.27        0.00
   0.00000000   0.00000000   0.00000245            0.00        0.00        0.36

     Energy error            =      2.9E-07 Ry
     Gradient error          =      1.6E-06 Ry/Bohr
     Cell gradient error     =      3.6E-01 kbar

     bfgs converged in   7 scf cycles and   6 bfgs steps
     (criteria: energy <  1.0E-04 Ry, force <  1.0E-03 Ry/Bohr, cell <  5.0E-01 kbar)

     End of BFGS Geometry Optimization

     Final enthalpy           =    -111.5782284740 Ry

     File /home/gridsan/epan1/labutil/lab3_samples/problem1/Lab3/Fe_hcp_a_2.5_ecut_30_nk_7/pwscf.bfgs deleted, as requested
Begin final coordinates
     new unit-cell volume =    162.90205 a.u.^3 (    24.13959 Ang^3 )
     density =      7.68305 g/cm^3

CELL_PARAMETERS (angstrom)
   2.511946573  -0.000000000   0.000000000
  -1.255973287   2.175386714   0.000000000
   0.000000000   0.000000000   4.417566380

ATOMIC_POSITIONS (angstrom)
Fe            0.0000000000       -0.0000051740        0.0000000000
Fe            0.0000000000        1.4502673313        2.2087816182
End final coordinates



     Writing config-only to output data dir /home/gridsan/epan1/labutil/lab3_samples/problem1/Lab3/Fe_hcp_a_2.5_ecut_30_nk_7/pwscf.save/

     Final scf calculation at the relaxed structure.
     The G-vectors are recalculated for the final unit cell
     Results may differ from those at the preceding step.

     Parallelization info
     --------------------
     sticks:   dense  smooth     PW     G-vecs:    dense   smooth      PW
     Min          45      23      7                 1269      451      87
     Max          46      24      8                 1276      458      92
     Sum         367     187     61                10187     3635     713

     Using Slab Decomposition



     bravais-lattice index     =            0
     lattice parameter (alat)  =       4.7243  a.u.
     unit-cell volume          =     162.9021 (a.u.)^3
     number of atoms/cell      =            2
     number of atomic types    =            1
     number of electrons       =        16.00
     number of Kohn-Sham states=           12
     kinetic-energy cutoff     =      30.0000  Ry
     charge density cutoff     =     240.0000  Ry
     scf convergence threshold =      1.0E-09
     mixing beta               =       0.5000
     number of iterations used =            8  plain     mixing
     press convergence thresh. =      5.0E-01
     Exchange-correlation=  SLA  PW   PBE  PBE
                           (   1   4   3   4   0   0   0)

     celldm(1)=   4.724315  celldm(2)=   0.000000  celldm(3)=   0.000000
     celldm(4)=   0.000000  celldm(5)=   0.000000  celldm(6)=   0.000000

     crystal axes: (cart. coord. in units of alat)
               a(1) = (   1.004779  -0.000000   0.000000 )  
               a(2) = (  -0.502389   0.870155   0.000000 )  
               a(3) = (   0.000000   0.000000   1.767027 )  

     reciprocal axes: (cart. coord. in units 2 pi/alat)
               b(1) = (  0.995244  0.574610 -0.000000 )  
               b(2) = (  0.000000  1.149221 -0.000000 )  
               b(3) = ( -0.000000 -0.000000  0.565922 )  


     PseudoPot. # 1 for Fe read from file:
     /home/gridsan/epan1/labutil/lab3_samples/pseudopotentials/Fe.pbe-nd-rrkjus.UPF
     MD5 check sum: 398036227a04b607635f6f5e8dfd8242
     Pseudo is Ultrasoft + core correction, Zval =  8.0
     Generated by new atomic code, or converted to UPF format
     Using radial grid of  957 points,  6 beta functions with: 
                l(1) =   0
                l(2) =   0
                l(3) =   1
                l(4) =   1
                l(5) =   2
                l(6) =   2
     Q(r) pseudized with 0 coefficients 


     atomic species   valence    mass     pseudopotential
        Fe             8.00    55.84500     Fe( 1.00)

     Starting magnetic structure 
     atomic species   magnetization
        Fe           0.397

      4 Sym. Ops. (no inversion) found



   Cartesian axes

     site n.     atom                  positions (alat units)
         1           Fe  tau(   1) = (   0.0000000  -0.0000021   0.0000000  )
         2           Fe  tau(   2) = (   0.0000000   0.5801069   0.8835126  )

     number of k points=    64  Methfessel-Paxton smearing, width (Ry)=  0.0200
                       cart. coord. in units 2pi/alat
        k(    1) = (   0.0000000   0.0000000   0.0000000), wk =   0.0029155
        k(    2) = (   0.0000000   0.0000000   0.0808461), wk =   0.0058309
        k(    3) = (   0.0000000   0.0000000   0.1616921), wk =   0.0058309
        k(    4) = (   0.0000000   0.0000000   0.2425382), wk =   0.0058309
        k(    5) = (   0.0000000   0.1641744   0.0000000), wk =   0.0058309
        k(    6) = (   0.0000000   0.1641744   0.0808461), wk =   0.0116618
        k(    7) = (   0.0000000   0.1641744   0.1616921), wk =   0.0116618
        k(    8) = (   0.0000000   0.1641744   0.2425382), wk =   0.0116618
        k(    9) = (   0.0000000   0.3283488   0.0000000), wk =   0.0058309
        k(   10) = (   0.0000000   0.3283488   0.0808461), wk =   0.0116618
        k(   11) = (   0.0000000   0.3283488   0.1616921), wk =   0.0116618
        k(   12) = (   0.0000000   0.3283488   0.2425382), wk =   0.0116618
        k(   13) = (   0.0000000   0.4925233   0.0000000), wk =   0.0058309
        k(   14) = (   0.0000000   0.4925233   0.0808461), wk =   0.0116618
        k(   15) = (   0.0000000   0.4925233   0.1616921), wk =   0.0116618
        k(   16) = (   0.0000000   0.4925233   0.2425382), wk =   0.0116618
        k(   17) = (   0.1421777   0.2462616   0.0000000), wk =   0.0116618
        k(   18) = (   0.1421777   0.2462616   0.0808461), wk =   0.0233236
        k(   19) = (   0.1421777   0.2462616   0.1616921), wk =   0.0233236
        k(   20) = (   0.1421777   0.2462616   0.2425382), wk =   0.0233236
        k(   21) = (   0.1421777   0.4104361   0.0000000), wk =   0.0116618
        k(   22) = (   0.1421777   0.4104361   0.0808461), wk =   0.0233236
        k(   23) = (   0.1421777   0.4104361   0.1616921), wk =   0.0233236
        k(   24) = (   0.1421777   0.4104361   0.2425382), wk =   0.0233236
        k(   25) = (   0.1421777   0.5746105   0.0000000), wk =   0.0058309
        k(   26) = (   0.1421777   0.5746105   0.0808461), wk =   0.0116618
        k(   27) = (   0.1421777   0.5746105   0.1616921), wk =   0.0116618
        k(   28) = (   0.1421777   0.5746105   0.2425382), wk =   0.0116618
        k(   29) = (   0.2843555   0.4925233   0.0000000), wk =   0.0116618
        k(   30) = (   0.2843555   0.4925233   0.0808461), wk =   0.0233236
        k(   31) = (   0.2843555   0.4925233   0.1616921), wk =   0.0233236
        k(   32) = (   0.2843555   0.4925233   0.2425382), wk =   0.0233236
        k(   33) = (   0.1421777  -0.0820872   0.0000000), wk =   0.0116618
        k(   34) = (   0.1421777  -0.0820872   0.0808461), wk =   0.0233236
        k(   35) = (   0.1421777  -0.0820872   0.1616921), wk =   0.0233236
        k(   36) = (   0.1421777  -0.0820872   0.2425382), wk =   0.0233236
        k(   37) = (   0.2843555  -0.1641744   0.0000000), wk =   0.0116618
        k(   38) = (   0.2843555  -0.1641744   0.0808461), wk =   0.0233236
        k(   39) = (   0.2843555  -0.1641744   0.1616921), wk =   0.0233236
        k(   40) = (   0.2843555  -0.1641744   0.2425382), wk =   0.0233236
        k(   41) = (   0.4265332  -0.2462616   0.0000000), wk =   0.0116618
        k(   42) = (   0.4265332  -0.2462616   0.0808461), wk =   0.0233236
        k(   43) = (   0.4265332  -0.2462616   0.1616921), wk =   0.0233236
        k(   44) = (   0.4265332  -0.2462616   0.2425382), wk =   0.0233236
        k(   45) = (   0.2843555  -0.0000000   0.0000000), wk =   0.0058309
        k(   46) = (   0.2843555  -0.0000000  -0.0808461), wk =   0.0116618
        k(   47) = (   0.2843555  -0.0000000  -0.1616921), wk =   0.0116618
        k(   48) = (   0.2843555  -0.0000000  -0.2425382), wk =   0.0116618
        k(   49) = (   0.2843555  -0.3283488   0.0000000), wk =   0.0116618
        k(   50) = (   0.4265332  -0.0820872   0.0000000), wk =   0.0116618
        k(   51) = (   0.2843555  -0.3283488   0.0808461), wk =   0.0233236
        k(   52) = (   0.4265332  -0.0820872  -0.0808461), wk =   0.0233236
        k(   53) = (   0.2843555  -0.3283488   0.1616921), wk =   0.0233236
        k(   54) = (   0.4265332  -0.0820872  -0.1616921), wk =   0.0233236
        k(   55) = (   0.2843555  -0.3283488   0.2425382), wk =   0.0233236
        k(   56) = (   0.4265332  -0.0820872  -0.2425382), wk =   0.0233236
        k(   57) = (   0.4265332  -0.4104361   0.0000000), wk =   0.0116618
        k(   58) = (   0.4265332  -0.4104361   0.0808461), wk =   0.0233236
        k(   59) = (   0.4265332  -0.4104361   0.1616921), wk =   0.0233236
        k(   60) = (   0.4265332  -0.4104361   0.2425382), wk =   0.0233236
        k(   61) = (   0.5687109  -0.0000000   0.0000000), wk =   0.0058309
        k(   62) = (   0.5687109  -0.0000000  -0.0808461), wk =   0.0116618
        k(   63) = (   0.5687109  -0.0000000  -0.1616921), wk =   0.0116618
        k(   64) = (   0.5687109  -0.0000000  -0.2425382), wk =   0.0116618

     Dense  grid:    10187 G-vectors     FFT dimensions: (  24,  24,  45)

     Smooth grid:     3635 G-vectors     FFT dimensions: (  18,  18,  30)

     Estimated max dynamical RAM per process >       9.08 MB

     Estimated total dynamical RAM >      72.61 MB
     Generating pointlists ...

     Initial potential from superposition of free atoms

     starting charge      15.9987, renormalised to      16.0000
     Starting wfcs are   12 randomized atomic wfcs

     total cpu time spent up to now is       81.3 secs

     Self-consistent Calculation

     iteration #  1     ecut=    30.00 Ry     beta= 0.50
     Davidson diagonalization with overlap
     c_bands:  1 eigenvalues not converged
     c_bands:  1 eigenvalues not converged
     c_bands:  1 eigenvalues not converged
     c_bands:  1 eigenvalues not converged
     c_bands:  1 eigenvalues not converged
     c_bands:  1 eigenvalues not converged
     c_bands:  1 eigenvalues not converged
     c_bands:  1 eigenvalues not converged
     c_bands:  1 eigenvalues not converged
     c_bands:  1 eigenvalues not converged
     c_bands:  1 eigenvalues not converged
     c_bands:  1 eigenvalues not converged
     c_bands:  1 eigenvalues not converged
     ethr =  1.00E-06,  avg # of iterations = 15.6

     total cpu time spent up to now is       84.2 secs

     total energy              =    -111.29962339 Ry
     estimated scf accuracy    <       0.73059155 Ry

     total magnetization       =     4.65 Bohr mag/cell
     absolute magnetization    =     4.65 Bohr mag/cell

     iteration #  2     ecut=    30.00 Ry     beta= 0.50
     Davidson diagonalization with overlap
     ethr =  4.57E-03,  avg # of iterations =  2.4

     total cpu time spent up to now is       85.0 secs

     total energy              =    -111.54488042 Ry
     estimated scf accuracy    <       0.17242243 Ry

     total magnetization       =     5.00 Bohr mag/cell
     absolute magnetization    =     5.03 Bohr mag/cell

     iteration #  3     ecut=    30.00 Ry     beta= 0.50
     Davidson diagonalization with overlap
     ethr =  1.08E-03,  avg # of iterations =  1.5

     total cpu time spent up to now is       85.6 secs

     total energy              =    -111.57002774 Ry
     estimated scf accuracy    <       0.01045681 Ry

     total magnetization       =     5.05 Bohr mag/cell
     absolute magnetization    =     5.10 Bohr mag/cell

     iteration #  4     ecut=    30.00 Ry     beta= 0.50
     Davidson diagonalization with overlap
     ethr =  6.54E-05,  avg # of iterations =  3.1

     total cpu time spent up to now is       86.3 secs

     total energy              =    -111.57444347 Ry
     estimated scf accuracy    <       0.00683854 Ry

     total magnetization       =     5.07 Bohr mag/cell
     absolute magnetization    =     5.21 Bohr mag/cell

     iteration #  5     ecut=    30.00 Ry     beta= 0.50
     Davidson diagonalization with overlap
     ethr =  4.27E-05,  avg # of iterations =  2.7

     total cpu time spent up to now is       87.1 secs

     total energy              =    -111.58009583 Ry
     estimated scf accuracy    <       0.01740333 Ry

     total magnetization       =     5.04 Bohr mag/cell
     absolute magnetization    =     5.29 Bohr mag/cell

     iteration #  6     ecut=    30.00 Ry     beta= 0.50
     Davidson diagonalization with overlap
     ethr =  4.27E-05,  avg # of iterations =  1.0

     total cpu time spent up to now is       87.7 secs

     total energy              =    -111.57772659 Ry
     estimated scf accuracy    <       0.00846110 Ry

     total magnetization       =     5.04 Bohr mag/cell
     absolute magnetization    =     5.29 Bohr mag/cell

     iteration #  7     ecut=    30.00 Ry     beta= 0.50
     Davidson diagonalization with overlap
     ethr =  4.27E-05,  avg # of iterations =  1.5

     total cpu time spent up to now is       88.3 secs

     total energy              =    -111.57808998 Ry
     estimated scf accuracy    <       0.00093005 Ry

     total magnetization       =     5.05 Bohr mag/cell
     absolute magnetization    =     5.30 Bohr mag/cell

     iteration #  8     ecut=    30.00 Ry     beta= 0.50
     Davidson diagonalization with overlap
     ethr =  5.81E-06,  avg # of iterations =  2.7

     total cpu time spent up to now is       89.1 secs

     total energy              =    -111.57843319 Ry
     estimated scf accuracy    <       0.00001457 Ry

     total magnetization       =     5.06 Bohr mag/cell
     absolute magnetization    =     5.30 Bohr mag/cell

     iteration #  9     ecut=    30.00 Ry     beta= 0.50
     Davidson diagonalization with overlap
     ethr =  9.11E-08,  avg # of iterations =  5.1

     total cpu time spent up to now is       90.2 secs

     total energy              =    -111.57841365 Ry
     estimated scf accuracy    <       0.00009469 Ry

     total magnetization       =     5.06 Bohr mag/cell
     absolute magnetization    =     5.31 Bohr mag/cell

     iteration # 10     ecut=    30.00 Ry     beta= 0.50
     Davidson diagonalization with overlap
     ethr =  9.11E-08,  avg # of iterations =  4.0

     total cpu time spent up to now is       92.0 secs

     total energy              =    -111.57843853 Ry
     estimated scf accuracy    <       0.00000374 Ry

     total magnetization       =     5.06 Bohr mag/cell
     absolute magnetization    =     5.31 Bohr mag/cell

     iteration # 11     ecut=    30.00 Ry     beta= 0.50
     Davidson diagonalization with overlap
     ethr =  2.34E-08,  avg # of iterations =  1.6

     total cpu time spent up to now is       92.7 secs

     total energy              =    -111.57843792 Ry
     estimated scf accuracy    <       0.00000208 Ry

     total magnetization       =     5.06 Bohr mag/cell
     absolute magnetization    =     5.31 Bohr mag/cell

     iteration # 12     ecut=    30.00 Ry     beta= 0.50
     Davidson diagonalization with overlap
     ethr =  1.30E-08,  avg # of iterations =  2.4

     total cpu time spent up to now is       93.4 secs

     total energy              =    -111.57843840 Ry
     estimated scf accuracy    <       0.00000004 Ry

     total magnetization       =     5.06 Bohr mag/cell
     absolute magnetization    =     5.31 Bohr mag/cell

     iteration # 13     ecut=    30.00 Ry     beta= 0.50
     Davidson diagonalization with overlap
     ethr =  2.28E-10,  avg # of iterations =  8.5

     total cpu time spent up to now is       95.0 secs

     total energy              =    -111.57843856 Ry
     estimated scf accuracy    <       0.00000002 Ry

     total magnetization       =     5.06 Bohr mag/cell
     absolute magnetization    =     5.31 Bohr mag/cell

     iteration # 14     ecut=    30.00 Ry     beta= 0.50
     Davidson diagonalization with overlap
     ethr =  1.03E-10,  avg # of iterations =  2.3

     total cpu time spent up to now is       95.7 secs

     total energy              =    -111.57843857 Ry
     estimated scf accuracy    <          1.3E-09 Ry

     total magnetization       =     5.06 Bohr mag/cell
     absolute magnetization    =     5.31 Bohr mag/cell

     iteration # 15     ecut=    30.00 Ry     beta= 0.50
     Davidson diagonalization with overlap
     ethr =  8.11E-12,  avg # of iterations =  5.4

     total cpu time spent up to now is       96.8 secs

     total energy              =    -111.57843857 Ry
     estimated scf accuracy    <          1.1E-09 Ry

     total magnetization       =     5.06 Bohr mag/cell
     absolute magnetization    =     5.31 Bohr mag/cell

     iteration # 16     ecut=    30.00 Ry     beta= 0.50
     Davidson diagonalization with overlap
     ethr =  7.14E-12,  avg # of iterations =  1.3

     Magnetic moment per site  (integrated on atomic sphere of radius R)
     atom   1 (R=0.412)  charge=  6.5030  magn=  2.5782
     atom   2 (R=0.412)  charge=  6.5024  magn=  2.5782

     total cpu time spent up to now is       97.4 secs

     End of self-consistent calculation

     Number of k-points >= 100: set verbosity='high' to print the bands.

     the Fermi energy is    12.8420 ev

!    total energy              =    -111.57843857 Ry
     estimated scf accuracy    <          1.8E-10 Ry
     smearing contrib. (-TS)   =       0.00018078 Ry
     internal energy E=F+TS    =    -111.57861935 Ry

     The total energy is F=E-TS. E is the sum of the following terms:
     one-electron contribution =      12.73795619 Ry
     hartree contribution      =      13.80889404 Ry
     xc contribution           =     -52.91036164 Ry
     ewald contribution        =     -85.21510793 Ry

     total magnetization       =     5.06 Bohr mag/cell
     absolute magnetization    =     5.31 Bohr mag/cell

     convergence has been achieved in  16 iterations

     Forces acting on atoms (cartesian axes, Ry/au):

     atom    1 type  1   force =    -0.00000000   -0.00000180    0.00000000
     atom    2 type  1   force =     0.00000000    0.00000180    0.00000000
     The non-local contrib.  to forces
     atom    1 type  1   force =    -0.00000000   -0.00000732    0.00000000
     atom    2 type  1   force =     0.00000000    0.00000789    0.00000000
     The ionic contribution  to forces
     atom    1 type  1   force =     0.00000000   -0.00000538   -0.00002747
     atom    2 type  1   force =    -0.00000000    0.00000538    0.00002747
     The local contribution  to forces
     atom    1 type  1   force =     0.00000000    0.00001012    0.00000000
     atom    2 type  1   force =     0.00000000   -0.00001040    0.00008654
     The core correction contribution to forces
     atom    1 type  1   force =    -0.00000000    0.00000065   -0.00000000
     atom    2 type  1   force =    -0.00000000   -0.00000067    0.00001398
     The Hubbard contrib.    to forces
     atom    1 type  1   force =     0.00000000    0.00000000    0.00000000
     atom    2 type  1   force =     0.00000000    0.00000000    0.00000000
     The SCF correction term to forces
     atom    1 type  1   force =    -0.00000000    0.00000083   -0.00000000
     atom    2 type  1   force =    -0.00000000    0.00000030   -0.00000000

     Total force =     0.000003     Total SCF correction =     0.000001
     SCF correction compared to forces is large: reduce conv_thr to get better values


     Computing stress (Cartesian axis) and pressure

          total   stress  (Ry/bohr**3)                   (kbar)     P=       -5.53
  -0.00002614  -0.00000000   0.00000000           -3.85       -0.00        0.00
  -0.00000000  -0.00002626   0.00000000           -0.00       -3.86        0.00
   0.00000000   0.00000000  -0.00006033            0.00        0.00       -8.88


     init_run     :      0.79s CPU      0.93s WALL (       2 calls)
     electrons    :     94.07s CPU     90.95s WALL (       8 calls)
     update_pot   :      0.52s CPU      0.56s WALL (       6 calls)
     forces       :      0.95s CPU      1.28s WALL (       8 calls)
     stress       :      2.65s CPU      2.77s WALL (       8 calls)

     Called by init_run:
     wfcinit      :      0.27s CPU      0.35s WALL (       2 calls)
     potinit      :      0.13s CPU      0.13s WALL (       2 calls)
     hinit0       :      0.36s CPU      0.37s WALL (       2 calls)

     Called by electrons:
     c_bands      :     80.98s CPU     78.25s WALL (     111 calls)
     sum_band     :     11.00s CPU     10.35s WALL (     111 calls)
     v_of_rho     :      0.89s CPU      0.89s WALL (     119 calls)
     newd         :      0.65s CPU      0.59s WALL (     119 calls)
     mix_rho      :      0.32s CPU      0.31s WALL (     111 calls)

     Called by c_bands:
     init_us_2    :      1.09s CPU      1.05s WALL (   30720 calls)
     init_us_2:cp :      1.04s CPU      1.00s WALL (   30720 calls)
     cegterg      :     71.70s CPU     65.94s WALL (   14208 calls)

     Called by *egterg:
     cdiaghg      :     15.41s CPU     14.18s WALL (   53072 calls)
     h_psi        :     45.40s CPU     41.77s WALL (   54096 calls)
     s_psi        :      1.36s CPU      1.24s WALL (   54096 calls)
     g_psi        :      0.17s CPU      0.15s WALL (   39632 calls)

     Called by h_psi:
     h_psi:calbec :      3.82s CPU      3.59s WALL (   54096 calls)
     vloc_psi     :     40.18s CPU     36.79s WALL (   54096 calls)
     add_vuspsi   :      1.03s CPU      0.95s WALL (   54096 calls)

     General routines
     calbec       :      5.37s CPU      5.09s WALL (   73424 calls)
     fft          :      0.74s CPU      0.66s WALL (    3285 calls)
     ffts         :      0.17s CPU      0.16s WALL (     460 calls)
     fftw         :     42.77s CPU     39.09s WALL ( 1138198 calls)
     interpolate  :      0.17s CPU      0.17s WALL (     238 calls)

     Parallel routines

     PWSCF        :   1m39.69s CPU   1m38.27s WALL


   This run was terminated on:  10:28:46  31Oct2023            

=------------------------------------------------------------------------------=
   JOB DONE.
=------------------------------------------------------------------------------=
