Header of the LAMMPS data file 

4 atoms 
1 atom types

0.0 3.916161616161616  xlo xhi
0.0 3.916161616161616  ylo yhi
0.0 3.916161616161616  zlo zhi

Masses 

1  107.8682

Atoms # atomic 

1 1 0.00000 0.00000 0.00000 
2 1 0.00000 1.95808 1.95808 
3 1 1.95808 0.00000 1.95808 
4 1 1.95808 1.95808 0.00000 
