
     Program PWSCF v.7.2 starts on 31Oct2023 at 10:20:39 

     This program is part of the open-source Quantum ESPRESSO suite
     for quantum simulation of materials; please cite
         "P. Giannozzi et al., J. Phys.:Condens. Matter 21 395502 (2009);
         "P. Giannozzi et al., J. Phys.:Condens. Matter 29 465901 (2017);
         "P. Giannozzi et al., J. Chem. Phys. 152 154105 (2020);
          URL http://www.quantum-espresso.org", 
     in publications or presentations arising from this work. More details at
     http://www.quantum-espresso.org/quote

     Parallel version (MPI), running on     4 processors

     MPI processes distributed on     4 nodes
     186360 MiB available memory on the printing compute node when the environment starts

     Waiting for input...
     Reading input from standard input

     Current dimensions of program PWSCF are:
     Max number of different atomic species (ntypx) = 10
     Max number of k-points (npk) =  40000
     Max angular momentum in pseudopotentials (lmaxx) =  4
     file Fe.pbe-nd-rrkjus.UPF: wavefunction(s)  4S renormalized
     Message from routine setup:
     using ibrav=0 with symmetry is DISCOURAGED, use correct ibrav instead

     R & G space division:  proc/nbgrp/npool/nimage =       4
     Subspace diagonalization in iterative solution of the eigenvalue problem:
     a serial algorithm will be used


     Parallelization info
     --------------------
     sticks:   dense  smooth     PW     G-vecs:    dense   smooth      PW
     Min          95      45     16                 1181      400      91
     Max          96      46     17                 1183      401      93
     Sum         383     181     67                 4729     1601     369

     Using Slab Decomposition



     bravais-lattice index     =            0
     lattice parameter (alat)  =       4.5899  a.u.
     unit-cell volume          =      74.4385 (a.u.)^3
     number of atoms/cell      =            1
     number of atomic types    =            1
     number of electrons       =         8.00
     number of Kohn-Sham states=            8
     kinetic-energy cutoff     =      30.0000  Ry
     charge density cutoff     =     240.0000  Ry
     scf convergence threshold =      1.0E-07
     mixing beta               =       0.5000
     number of iterations used =            8  plain     mixing
     energy convergence thresh.=      1.0E-04
     force convergence thresh. =      1.0E-03
     press convergence thresh. =      5.0E-01
     Exchange-correlation=  SLA  PW   PBE  PBE
                           (   1   4   3   4   0   0   0)
     nstep                     =           50


     celldm(1)=   4.589935  celldm(2)=   0.000000  celldm(3)=   0.000000
     celldm(4)=   0.000000  celldm(5)=   0.000000  celldm(6)=   0.000000

     crystal axes: (cart. coord. in units of alat)
               a(1) = (  -0.577350   0.577350   0.577350 )  
               a(2) = (   0.577350  -0.577350   0.577350 )  
               a(3) = (   0.577350   0.577350  -0.577350 )  

     reciprocal axes: (cart. coord. in units 2 pi/alat)
               b(1) = (  0.000000  0.866025  0.866025 )  
               b(2) = (  0.866025  0.000000  0.866025 )  
               b(3) = (  0.866025  0.866025  0.000000 )  


     PseudoPot. # 1 for Fe read from file:
     /home/gridsan/epan1/labutil/lab3_samples/pseudopotentials/Fe.pbe-nd-rrkjus.UPF
     MD5 check sum: 398036227a04b607635f6f5e8dfd8242
     Pseudo is Ultrasoft + core correction, Zval =  8.0
     Generated by new atomic code, or converted to UPF format
     Using radial grid of  957 points,  6 beta functions with: 
                l(1) =   0
                l(2) =   0
                l(3) =   1
                l(4) =   1
                l(5) =   2
                l(6) =   2
     Q(r) pseudized with 0 coefficients 


     atomic species   valence    mass     pseudopotential
        Fe             8.00    55.84500     Fe( 1.00)

     Starting magnetic structure 
     atomic species   magnetization
        Fe           0.700

     48 Sym. Ops., with inversion, found



   Cartesian axes

     site n.     atom                  positions (alat units)
         1           Fe  tau(   1) = (   0.0000000   0.0000000   0.0000000  )

     number of k points=    20  Methfessel-Paxton smearing, width (Ry)=  0.0200
                       cart. coord. in units 2pi/alat
        k(    1) = (   0.0000000   0.0000000   0.0000000), wk =   0.0029155
        k(    2) = (   0.1237179   0.1237179   0.0000000), wk =   0.0349854
        k(    3) = (   0.2474358   0.2474358   0.0000000), wk =   0.0349854
        k(    4) = (   0.3711537   0.3711537   0.0000000), wk =   0.0349854
        k(    5) = (   0.2474358   0.1237179   0.1237179), wk =   0.0699708
        k(    6) = (   0.3711537   0.2474358   0.1237179), wk =   0.1399417
        k(    7) = (   0.4948717   0.3711537   0.1237179), wk =   0.0699708
        k(    8) = (   0.4948717   0.2474358   0.2474358), wk =   0.0699708
        k(    9) = (   0.2474358   0.2474358   0.2474358), wk =   0.0233236
        k(   10) = (   0.3711537   0.3711537   0.2474358), wk =   0.0699708
        k(   11) = (  -0.0000000  -0.0000000   0.2474358), wk =   0.0174927
        k(   12) = (   0.4948717   0.3711537   0.3711537), wk =   0.0233236
        k(   13) = (   0.0000000  -0.1237179   0.3711537), wk =   0.0699708
        k(   14) = (  -0.0000000  -0.2474358   0.4948717), wk =   0.0699708
        k(   15) = (   0.1237179  -0.1237179   0.4948717), wk =   0.0699708
        k(   16) = (  -0.7423075  -0.2474358  -0.2474358), wk =   0.0699708
        k(   17) = (   0.0000000   0.0000000   0.4948717), wk =   0.0174927
        k(   18) = (  -0.0000000  -0.1237179   0.6185896), wk =   0.0699708
        k(   19) = (  -0.7423075  -0.1237179  -0.1237179), wk =   0.0233236
        k(   20) = (  -0.0000000  -0.0000000   0.7423075), wk =   0.0174927

     Dense  grid:     4729 G-vectors     FFT dimensions: (  24,  24,  24)

     Smooth grid:     1601 G-vectors     FFT dimensions: (  15,  15,  15)

     Estimated max dynamical RAM per process >       7.63 MB

     Estimated total dynamical RAM >      30.52 MB
     Generating pointlists ...
     new r_m :   0.4125 (alat units)  1.8933 (a.u.) for type    1

     Initial potential from superposition of free atoms

     starting charge       7.9994, renormalised to       8.0000
     Starting wfcs are    6 randomized atomic wfcs +    2 random wfcs

     total cpu time spent up to now is        0.4 secs

     Self-consistent Calculation

     iteration #  1     ecut=    30.00 Ry     beta= 0.50
     Davidson diagonalization with overlap
     ethr =  1.00E-02,  avg # of iterations =  4.4

     total cpu time spent up to now is        0.6 secs

     total energy              =     -55.66936178 Ry
     estimated scf accuracy    <       0.31512234 Ry

     total magnetization       =     3.07 Bohr mag/cell
     absolute magnetization    =     3.07 Bohr mag/cell

     iteration #  2     ecut=    30.00 Ry     beta= 0.50
     Davidson diagonalization with overlap
     ethr =  3.94E-03,  avg # of iterations =  1.7

     total cpu time spent up to now is        0.7 secs

     total energy              =     -55.76856512 Ry
     estimated scf accuracy    <       0.04247487 Ry

     total magnetization       =     2.86 Bohr mag/cell
     absolute magnetization    =     2.86 Bohr mag/cell

     iteration #  3     ecut=    30.00 Ry     beta= 0.50
     Davidson diagonalization with overlap
     ethr =  5.31E-04,  avg # of iterations =  1.7

     total cpu time spent up to now is        0.7 secs

     total energy              =     -55.79208387 Ry
     estimated scf accuracy    <       0.01074109 Ry

     total magnetization       =     2.62 Bohr mag/cell
     absolute magnetization    =     2.66 Bohr mag/cell

     iteration #  4     ecut=    30.00 Ry     beta= 0.50
     Davidson diagonalization with overlap
     ethr =  1.34E-04,  avg # of iterations =  1.5

     total cpu time spent up to now is        0.8 secs

     total energy              =     -55.80105558 Ry
     estimated scf accuracy    <       0.00043453 Ry

     total magnetization       =     2.30 Bohr mag/cell
     absolute magnetization    =     2.44 Bohr mag/cell

     iteration #  5     ecut=    30.00 Ry     beta= 0.50
     Davidson diagonalization with overlap
     ethr =  5.43E-06,  avg # of iterations =  6.1

     total cpu time spent up to now is        1.0 secs

     total energy              =     -55.80138923 Ry
     estimated scf accuracy    <       0.00024704 Ry

     total magnetization       =     2.33 Bohr mag/cell
     absolute magnetization    =     2.45 Bohr mag/cell

     iteration #  6     ecut=    30.00 Ry     beta= 0.50
     Davidson diagonalization with overlap
     ethr =  3.09E-06,  avg # of iterations =  1.7

     total cpu time spent up to now is        1.1 secs

     total energy              =     -55.80155522 Ry
     estimated scf accuracy    <       0.00008327 Ry

     total magnetization       =     2.31 Bohr mag/cell
     absolute magnetization    =     2.43 Bohr mag/cell

     iteration #  7     ecut=    30.00 Ry     beta= 0.50
     Davidson diagonalization with overlap
     ethr =  1.04E-06,  avg # of iterations =  2.2

     total cpu time spent up to now is        1.2 secs

     total energy              =     -55.80160543 Ry
     estimated scf accuracy    <       0.00003346 Ry

     total magnetization       =     2.31 Bohr mag/cell
     absolute magnetization    =     2.43 Bohr mag/cell

     iteration #  8     ecut=    30.00 Ry     beta= 0.50
     Davidson diagonalization with overlap
     ethr =  4.18E-07,  avg # of iterations =  1.3

     total cpu time spent up to now is        1.3 secs

     total energy              =     -55.80161147 Ry
     estimated scf accuracy    <       0.00000266 Ry

     total magnetization       =     2.31 Bohr mag/cell
     absolute magnetization    =     2.43 Bohr mag/cell

     iteration #  9     ecut=    30.00 Ry     beta= 0.50
     Davidson diagonalization with overlap
     ethr =  3.32E-08,  avg # of iterations =  4.1

     total cpu time spent up to now is        1.4 secs

     total energy              =     -55.80161325 Ry
     estimated scf accuracy    <       0.00000201 Ry

     total magnetization       =     2.31 Bohr mag/cell
     absolute magnetization    =     2.42 Bohr mag/cell

     iteration # 10     ecut=    30.00 Ry     beta= 0.50
     Davidson diagonalization with overlap
     ethr =  2.52E-08,  avg # of iterations =  1.3

     total cpu time spent up to now is        1.5 secs

     total energy              =     -55.80161359 Ry
     estimated scf accuracy    <       0.00000020 Ry

     total magnetization       =     2.31 Bohr mag/cell
     absolute magnetization    =     2.42 Bohr mag/cell

     iteration # 11     ecut=    30.00 Ry     beta= 0.50
     Davidson diagonalization with overlap
     ethr =  2.51E-09,  avg # of iterations =  3.0

     Magnetic moment per site  (integrated on atomic sphere of radius R)
     atom   1 (R=0.413)  charge=  6.4356  magn=  2.3542

     total cpu time spent up to now is        1.6 secs

     End of self-consistent calculation

 ------ SPIN UP ------------


          k = 0.0000 0.0000 0.0000 (   201 PWs)   bands (ev):

     5.5137  11.6040  11.6040  11.6040  12.8803  12.8803  39.0816  39.0817

          k = 0.1237 0.1237 0.0000 (   205 PWs)   bands (ev):

     6.3599  11.3788  11.5591  12.0611  12.7105  12.9014  35.1500  37.7973

          k = 0.2474 0.2474 0.0000 (   204 PWs)   bands (ev):

     8.2836  10.8969  11.6160  12.7656  12.9756  13.1930  28.5916  34.8183

          k = 0.3712 0.3712 0.0000 (   202 PWs)   bands (ev):

     8.9366  10.5317  12.8918  13.0639  13.9436  14.2402  22.8615  32.8818

          k = 0.2474 0.1237 0.1237 (   205 PWs)   bands (ev):

     7.8364  11.1605  11.1697  12.5768  12.9871  13.0895  31.7886  32.9906

          k = 0.3712 0.2474 0.1237 (   201 PWs)   bands (ev):

     9.2978  10.6995  11.5238  12.7853  13.2295  14.8784  25.8014  30.2335

          k = 0.4949 0.3712 0.1237 (   205 PWs)   bands (ev):

     9.3349  10.5518  12.1869  12.9164  13.5907  16.9582  21.7872  29.3422

          k = 0.4949 0.2474 0.2474 (   204 PWs)   bands (ev):

    10.0631  10.5617  11.1854  12.9857  13.3268  18.3962  23.5069  24.8708

          k = 0.2474 0.2474 0.2474 (   198 PWs)   bands (ev):

     9.5488  10.6703  10.6703  12.9505  12.9505  14.9008  29.1705  29.1705

          k = 0.3712 0.3712 0.2474 (   206 PWs)   bands (ev):

     9.9889  10.4388  11.4643  13.0407  13.0886  17.7828  23.6135  27.7353

          k =-0.0000-0.0000 0.2474 (   209 PWs)   bands (ev):

     7.1475  11.6568  11.6568  12.0583  12.1311  13.1824  34.4962  36.5368

          k = 0.4949 0.3712 0.3712 (   207 PWs)   bands (ev):

    10.2813  10.8634  10.8634  13.1146  13.1146  21.7856  21.7856  23.9781

          k = 0.0000-0.1237 0.3712 (   199 PWs)   bands (ev):

     8.8717  11.1901  11.3687  12.3246  13.0961  13.6986  29.1824  33.7048

          k =-0.0000-0.2474 0.4949 (   209 PWs)   bands (ev):

     9.3883  11.0593  11.3291  12.6289  14.1782  16.0099  23.2143  31.6618

          k = 0.1237-0.1237 0.4949 (   210 PWs)   bands (ev):

     9.8843  10.4277  11.5178  12.5965  13.6099  16.0366  26.5763  27.3167

          k =-0.7423-0.2474-0.2474 (   210 PWs)   bands (ev):

     9.8936  10.5799  11.1485  12.9355  13.9088  19.3881  22.1331  26.0770

          k = 0.0000 0.0000 0.4949 (   205 PWs)   bands (ev):

     9.6678  10.4568  12.3409  12.3409  13.1140  15.2671  30.0594  30.0594

          k =-0.0000-0.1237 0.6186 (   214 PWs)   bands (ev):

     9.6529   9.8946  12.4283  12.8177  14.0419  18.6777  24.4379  27.7520

          k =-0.7423-0.1237-0.1237 (   212 PWs)   bands (ev):

     9.5193   9.5193  12.5313  13.8366  13.8366  22.7191  22.7192  24.1263

          k =-0.0000-0.0000 0.7423 (   220 PWs)   bands (ev):

     9.1591   9.1677  13.7802  13.7802  13.9928  21.9130  25.1402  25.1402

 ------ SPIN DOWN ----------


          k = 0.0000 0.0000 0.0000 (   201 PWs)   bands (ev):

     5.6595  13.8389  13.8389  13.8389  15.9787  15.9787  38.8662  38.8662

          k = 0.1237 0.1237 0.0000 (   205 PWs)   bands (ev):

     6.5158  13.5616  13.7510  14.3424  15.7273  16.0040  35.4772  37.7991

          k = 0.2474 0.2474 0.0000 (   204 PWs)   bands (ev):

     8.6815  12.9765  13.4357  15.6075  15.6426  16.1059  29.4180  34.9135

          k = 0.3712 0.3712 0.0000 (   202 PWs)   bands (ev):

    10.2637  12.5398  14.3174  15.8202  16.2371  16.8106  24.2030  32.9180

          k = 0.2474 0.1237 0.1237 (   205 PWs)   bands (ev):

     8.0677  13.2525  13.2862  15.3501  15.4788  16.1633  32.3782  33.5023

          k = 0.3712 0.2474 0.1237 (   201 PWs)   bands (ev):

    10.2250  12.6985  13.1273  15.6092  16.2539  17.0715  26.7870  30.8057

          k = 0.4949 0.3712 0.1237 (   205 PWs)   bands (ev):

    10.8547  12.5127  13.7324  15.7823  16.3886  18.4607  23.2480  29.8941

          k = 0.4949 0.2474 0.2474 (   204 PWs)   bands (ev):

    11.6503  12.3784  12.8497  15.8171  16.2199  19.9323  24.6045  25.7369

          k = 0.2474 0.2474 0.2474 (   198 PWs)   bands (ev):

    10.0032  12.6307  12.6307  16.0166  16.0166  17.0965  29.8480  29.8480

          k = 0.3712 0.3712 0.2474 (   206 PWs)   bands (ev):

    11.4400  12.2924  12.8269  16.0815  16.2630  19.3851  24.6898  28.4156

          k =-0.0000-0.0000 0.2474 (   209 PWs)   bands (ev):

     7.3274  13.8348  13.8348  14.3466  14.9809  16.3206  34.8159  37.0197

          k = 0.4949 0.3712 0.3712 (   207 PWs)   bands (ev):

    11.9896  12.4423  12.4423  16.2564  16.2564  22.8964  22.8964  24.9168

          k = 0.0000-0.1237 0.3712 (   199 PWs)   bands (ev):

     9.3501  13.3854  13.4819  14.8158  15.4954  16.6091  29.9930  34.1019

          k =-0.0000-0.2474 0.4949 (   209 PWs)   bands (ev):

    10.8486  13.1124  13.1562  15.2546  16.7388  17.7538  24.4549  32.2817

          k = 0.1237-0.1237 0.4949 (   210 PWs)   bands (ev):

    11.0606  12.5642  13.5790  15.0338  16.1995  17.9889  27.5609  28.0535

          k =-0.7423-0.2474-0.2474 (   210 PWs)   bands (ev):

    11.7158  12.4546  13.1597  15.4367  16.4702  20.6579  23.3956  26.8731

          k = 0.0000 0.0000 0.4949 (   205 PWs)   bands (ev):

    10.7123  12.8271  14.5140  14.5140  15.5354  17.4351  30.7284  30.7284

          k =-0.0000-0.1237 0.6186 (   214 PWs)   bands (ev):

    11.4865  11.9472  14.6317  15.0862  16.5819  19.9326  25.3494  28.3203

          k =-0.7423-0.1237-0.1237 (   212 PWs)   bands (ev):

    11.5398  11.5398  14.6880  16.3098  16.3098  23.5960  23.5960  24.8214

          k =-0.0000-0.0000 0.7423 (   220 PWs)   bands (ev):

    11.1543  11.2306  16.2223  16.2223  16.5346  22.5709  25.5194  25.5194

     the Fermi energy is    14.0986 ev

!    total energy              =     -55.80161373 Ry
     estimated scf accuracy    <       0.00000001 Ry
     smearing contrib. (-TS)   =       0.00019116 Ry
     internal energy E=F+TS    =     -55.80180489 Ry

     The total energy is F=E-TS. E is the sum of the following terms:
     one-electron contribution =       8.28136838 Ry
     hartree contribution      =       6.33649356 Ry
     xc contribution           =     -26.47420947 Ry
     ewald contribution        =     -43.94545736 Ry

     total magnetization       =     2.31 Bohr mag/cell
     absolute magnetization    =     2.42 Bohr mag/cell

     convergence has been achieved in  11 iterations

     Forces acting on atoms (cartesian axes, Ry/au):

     atom    1 type  1   force =     0.00000000    0.00000000    0.00000000
     The non-local contrib.  to forces
     atom    1 type  1   force =     0.00000000    0.00000000   -0.00000000
     The ionic contribution  to forces
     atom    1 type  1   force =    -0.00000000   -0.00000000   -0.00000000
     The local contribution  to forces
     atom    1 type  1   force =    -0.00000000   -0.00000000   -0.00000000
     The core correction contribution to forces
     atom    1 type  1   force =     0.00000000   -0.00000000   -0.00000000
     The Hubbard contrib.    to forces
     atom    1 type  1   force =     0.00000000    0.00000000    0.00000000
     The SCF correction term to forces
     atom    1 type  1   force =    -0.00000000   -0.00000000    0.00000000

     Total force =     0.000000     Total SCF correction =     0.000000


     Computing stress (Cartesian axis) and pressure

          total   stress  (Ry/bohr**3)                   (kbar)     P=       93.49
   0.00063556   0.00000000   0.00000000           93.49        0.00        0.00
   0.00000000   0.00063556   0.00000000            0.00       93.49        0.00
   0.00000000   0.00000000   0.00063556            0.00        0.00       93.49


     BFGS Geometry Optimization
     Energy error            =      0.0E+00 Ry
     Gradient error          =      0.0E+00 Ry/Bohr
     Cell gradient error     =      9.3E+01 kbar

     number of scf cycles    =   1
     number of bfgs steps    =   0

     enthalpy           new  =     -55.8016137302 Ry

     new trust radius        =       0.0274172860 bohr
     new conv_thr            =       0.0000001000 Ry

     new unit-cell volume =     78.04345 a.u.^3 (    11.56485 Ang^3 )
     density =      8.01851 g/cm^3

CELL_PARAMETERS (angstrom)
  -1.424601119   1.424601119   1.424601119
   1.424601119  -1.424601119   1.424601119
   1.424601119   1.424601119  -1.424601119

ATOMIC_POSITIONS (angstrom)
Fe            0.0000000000        0.0000000000        0.0000000000



     Writing config-only to output data dir /home/gridsan/epan1/labutil/lab3_samples/problem1/Lab3/Fe_bcc_a_2.8046394196999995_ecut_30_nk_7/pwscf.save/
     NEW-OLD atomic charge density approx. for the potential
     extrapolated charge    8.36950, renormalised to    8.00000
     Generating pointlists ...

     total cpu time spent up to now is        1.9 secs

     Self-consistent Calculation

     iteration #  1     ecut=    30.00 Ry     beta= 0.50
     Davidson diagonalization with overlap
     ethr =  1.00E-06,  avg # of iterations =  5.8

     total cpu time spent up to now is        2.1 secs

     total energy              =     -55.71215826 Ry
     estimated scf accuracy    <       0.09319133 Ry

     total magnetization       =     2.24 Bohr mag/cell
     absolute magnetization    =     2.36 Bohr mag/cell

     iteration #  2     ecut=    30.00 Ry     beta= 0.50
     Davidson diagonalization with overlap
     ethr =  1.16E-03,  avg # of iterations =  2.5

     total cpu time spent up to now is        2.2 secs

     total energy              =     -55.79886775 Ry
     estimated scf accuracy    <       0.21684998 Ry

     total magnetization       =     2.48 Bohr mag/cell
     absolute magnetization    =     2.59 Bohr mag/cell

     iteration #  3     ecut=    30.00 Ry     beta= 0.50
     Davidson diagonalization with overlap
     ethr =  1.16E-03,  avg # of iterations =  1.1

     total cpu time spent up to now is        2.3 secs

     total energy              =     -55.78737956 Ry
     estimated scf accuracy    <       0.04078864 Ry

     total magnetization       =     2.41 Bohr mag/cell
     absolute magnetization    =     2.54 Bohr mag/cell

     iteration #  4     ecut=    30.00 Ry     beta= 0.50
     Davidson diagonalization with overlap
     ethr =  5.10E-04,  avg # of iterations =  2.0

     total cpu time spent up to now is        2.3 secs

     total energy              =     -55.80244930 Ry
     estimated scf accuracy    <       0.01666449 Ry

     total magnetization       =     2.28 Bohr mag/cell
     absolute magnetization    =     2.43 Bohr mag/cell

     iteration #  5     ecut=    30.00 Ry     beta= 0.50
     Davidson diagonalization with overlap
     ethr =  2.08E-04,  avg # of iterations =  1.0

     total cpu time spent up to now is        2.4 secs

     total energy              =     -55.80270405 Ry
     estimated scf accuracy    <       0.00342948 Ry

     total magnetization       =     2.32 Bohr mag/cell
     absolute magnetization    =     2.45 Bohr mag/cell

     iteration #  6     ecut=    30.00 Ry     beta= 0.50
     Davidson diagonalization with overlap
     ethr =  4.29E-05,  avg # of iterations =  1.1

     total cpu time spent up to now is        2.5 secs

     total energy              =     -55.80238203 Ry
     estimated scf accuracy    <       0.00111286 Ry

     total magnetization       =     2.33 Bohr mag/cell
     absolute magnetization    =     2.46 Bohr mag/cell

     iteration #  7     ecut=    30.00 Ry     beta= 0.50
     Davidson diagonalization with overlap
     ethr =  1.39E-05,  avg # of iterations =  1.4

     total cpu time spent up to now is        2.6 secs

     total energy              =     -55.80255569 Ry
     estimated scf accuracy    <       0.00000208 Ry

     total magnetization       =     2.34 Bohr mag/cell
     absolute magnetization    =     2.47 Bohr mag/cell

     iteration #  8     ecut=    30.00 Ry     beta= 0.50
     Davidson diagonalization with overlap
     ethr =  2.60E-08,  avg # of iterations =  5.2

     total cpu time spent up to now is        2.8 secs

     total energy              =     -55.80256232 Ry
     estimated scf accuracy    <       0.00000210 Ry

     total magnetization       =     2.34 Bohr mag/cell
     absolute magnetization    =     2.47 Bohr mag/cell

     iteration #  9     ecut=    30.00 Ry     beta= 0.50
     Davidson diagonalization with overlap
     ethr =  2.60E-08,  avg # of iterations =  1.6

     total cpu time spent up to now is        2.9 secs

     total energy              =     -55.80256442 Ry
     estimated scf accuracy    <       0.00000026 Ry

     total magnetization       =     2.34 Bohr mag/cell
     absolute magnetization    =     2.47 Bohr mag/cell

     iteration # 10     ecut=    30.00 Ry     beta= 0.50
     Davidson diagonalization with overlap
     ethr =  3.22E-09,  avg # of iterations =  4.8

     total cpu time spent up to now is        3.1 secs

     total energy              =     -55.80256390 Ry
     estimated scf accuracy    <       0.00004343 Ry

     total magnetization       =     2.34 Bohr mag/cell
     absolute magnetization    =     2.47 Bohr mag/cell

     iteration # 11     ecut=    30.00 Ry     beta= 0.50
     Davidson diagonalization with overlap
     ethr =  3.22E-09,  avg # of iterations =  3.1

     total cpu time spent up to now is        3.2 secs

     total energy              =     -55.80256387 Ry
     estimated scf accuracy    <       0.00002161 Ry

     total magnetization       =     2.34 Bohr mag/cell
     absolute magnetization    =     2.47 Bohr mag/cell

     iteration # 12     ecut=    30.00 Ry     beta= 0.50
     Davidson diagonalization with overlap
     ethr =  3.22E-09,  avg # of iterations =  2.4

     total cpu time spent up to now is        3.3 secs

     total energy              =     -55.80256432 Ry
     estimated scf accuracy    <       0.00000697 Ry

     total magnetization       =     2.34 Bohr mag/cell
     absolute magnetization    =     2.47 Bohr mag/cell

     iteration # 13     ecut=    30.00 Ry     beta= 0.50
     Davidson diagonalization with overlap
     ethr =  3.22E-09,  avg # of iterations =  1.0

     total cpu time spent up to now is        3.4 secs

     total energy              =     -55.80256329 Ry
     estimated scf accuracy    <       0.00000562 Ry

     total magnetization       =     2.34 Bohr mag/cell
     absolute magnetization    =     2.47 Bohr mag/cell

     iteration # 14     ecut=    30.00 Ry     beta= 0.50
     Davidson diagonalization with overlap
     ethr =  3.22E-09,  avg # of iterations =  2.4

     Magnetic moment per site  (integrated on atomic sphere of radius R)
     atom   1 (R=0.413)  charge=  6.3808  magn=  2.3903

     total cpu time spent up to now is        3.5 secs

     End of self-consistent calculation

 ------ SPIN UP ------------


          k = 0.0000 0.0000 0.0000 (   201 PWs)   bands (ev):

     4.9518  10.8554  10.8554  10.8554  12.0315  12.0315  37.8096  37.8096

          k = 0.1218 0.1218 0.0000 (   205 PWs)   bands (ev):

     5.7683  10.6473  10.8153  11.2819  11.8758  12.0507  33.7881  36.4741

          k = 0.2436 0.2436 0.0000 (   204 PWs)   bands (ev):

     7.6542  10.2004  10.8671  11.9282  12.1180  12.3362  27.2453  33.5241

          k = 0.3653 0.3653 0.0000 (   202 PWs)   bands (ev):

     8.3442   9.8607  12.0433  12.1975  13.1139  13.3093  21.5855  31.6474

          k = 0.2436 0.1218 0.1218 (   205 PWs)   bands (ev):

     7.2026  10.4465  10.4538  11.7535  12.1375  12.2313  30.4535  31.5645

          k = 0.3653 0.2436 0.1218 (   201 PWs)   bands (ev):

     8.6663  10.0172  10.7813  11.9477  12.3547  13.9295  24.5012  28.8783

          k = 0.4871 0.3653 0.1218 (   205 PWs)   bands (ev):

     8.7272   9.8795  11.4032  12.0664  12.7041  15.9785  20.5255  28.0124

          k = 0.4871 0.2436 0.2436 (   204 PWs)   bands (ev):

     9.4141   9.8865  10.4677  12.1338  12.4494  17.3280  22.3084  23.5419

          k = 0.2436 0.2436 0.2436 (   198 PWs)   bands (ev):

     8.8719   9.9900   9.9900  12.0953  12.0953  13.9451  27.8737  27.8737

          k = 0.3653 0.3653 0.2436 (   206 PWs)   bands (ev):

     9.3417   9.7735  10.7291  12.1787  12.2201  16.7324  22.3649  26.4733

          k =-0.0000-0.0000 0.2436 (   209 PWs)   bands (ev):

     6.5310  10.9070  10.9070  11.2802  11.3433  12.3084  33.2213  35.0305

          k = 0.4871 0.3653 0.3653 (   207 PWs)   bands (ev):

     9.6236  10.1678  10.1678  12.2451  12.2451  20.6418  20.6418  22.6668

          k = 0.0000-0.1218 0.3653 (   199 PWs)   bands (ev):

     8.2251  10.4730  10.6404  11.5265  12.2467  12.7919  27.8275  32.1554

          k = 0.0000-0.2436 0.4871 (   209 PWs)   bands (ev):

     8.7753  10.3529  10.6000  11.8048  13.2519  15.0442  21.9446  30.1994

          k = 0.1218-0.1218 0.4871 (   210 PWs)   bands (ev):

     9.2302   9.7647  10.7795  11.7808  12.7203  15.0388  25.2916  25.9533

          k =-0.7307-0.2436-0.2436 (   210 PWs)   bands (ev):

     9.2601   9.9020  10.4349  12.0945  13.0012  18.3173  20.8983  24.7699

          k = 0.0000 0.0000 0.4871 (   205 PWs)   bands (ev):

     9.0197   9.7938  11.5468  11.5468  12.2642  14.2910  28.6468  28.6468

          k =-0.0000-0.1218 0.6089 (   214 PWs)   bands (ev):

     9.0371   9.2641  11.6287  11.9891  13.1257  17.6077  23.1784  26.4232

          k =-0.7307-0.1218-0.1218 (   212 PWs)   bands (ev):

     8.9160   8.9160  11.7244  12.9360  12.9360  21.5497  21.5497  22.8593

          k =-0.0000-0.0000 0.7307 (   220 PWs)   bands (ev):

     8.5825   8.5875  12.8843  12.8843  13.0801  20.7706  23.9213  23.9213

 ------ SPIN DOWN ----------


          k = 0.0000 0.0000 0.0000 (   201 PWs)   bands (ev):

     5.0610  13.1270  13.1270  13.1270  15.1599  15.1599  37.5389  37.5389

          k = 0.1218 0.1218 0.0000 (   205 PWs)   bands (ev):

     5.8869  12.8667  13.0437  13.6003  14.9244  15.1835  34.0807  36.4331

          k = 0.2436 0.2436 0.0000 (   204 PWs)   bands (ev):

     8.0053  12.3160  12.7281  14.7892  14.8390  15.2780  28.0387  33.5773

          k = 0.3653 0.3653 0.0000 (   202 PWs)   bands (ev):

     9.6627  11.9039  13.4761  15.0004  15.3992  15.9189  22.9102  31.6431

          k = 0.2436 0.1218 0.1218 (   205 PWs)   bands (ev):

     7.3938  12.5734  12.6069  14.5445  14.6896  15.3299  31.0034  32.0555

          k = 0.3653 0.2436 0.1218 (   201 PWs)   bands (ev):

     9.5527  12.0493  12.4196  14.8064  15.4099  16.1559  25.4560  29.4261

          k = 0.4871 0.3653 0.1218 (   205 PWs)   bands (ev):

    10.2563  11.8742  12.9525  14.9662  15.5334  17.4679  21.9799  28.5403

          k = 0.4871 0.2436 0.2436 (   204 PWs)   bands (ev):

    11.0069  11.7255  12.1556  14.9999  15.3756  18.8594  23.3747  24.3880

          k = 0.2436 0.2436 0.2436 (   198 PWs)   bands (ev):

     9.2903  11.9833  11.9833  15.1920  15.1920  16.1773  28.5152  28.5152

          k = 0.3653 0.3653 0.2436 (   206 PWs)   bands (ev):

    10.7907  11.6583  12.1110  15.2504  15.4229  18.3397  23.4156  27.1218

          k =-0.0000-0.0000 0.2436 (   209 PWs)   bands (ev):

     6.6724  13.1216  13.1216  13.6060  14.2278  15.4761  33.4839  35.4967

          k = 0.4871 0.3653 0.3653 (   207 PWs)   bands (ev):

    11.3577  11.7656  11.7656  15.4158  15.4158  21.7288  21.7288  23.5853

          k = 0.0000-0.1218 0.3653 (   199 PWs)   bands (ev):

     8.6585  12.7005  12.7898  14.0582  14.6847  15.7350  28.6021  32.7137

          k = 0.0000-0.2436 0.4871 (   209 PWs)   bands (ev):

    10.2288  12.4396  12.4415  14.4677  15.8518  16.7902  23.1633  30.7899

          k = 0.1218-0.1218 0.4871 (   210 PWs)   bands (ev):

    10.3840  11.9297  12.8743  14.2568  15.3477  17.0060  26.2368  26.6662

          k =-0.7307-0.2436-0.2436 (   210 PWs)   bands (ev):

    11.0984  11.7899  12.4796  14.6336  15.6007  19.5605  22.1428  25.5389

          k = 0.0000 0.0000 0.4871 (   205 PWs)   bands (ev):

    10.0320  12.1991  13.7567  13.7567  14.7246  16.4812  29.2859  29.2859

          k =-0.0000-0.1218 0.6089 (   214 PWs)   bands (ev):

    10.8736  11.3496  13.8692  14.2949  15.7051  18.8466  24.0589  26.9600

          k =-0.7307-0.1218-0.1218 (   212 PWs)   bands (ev):

    10.9609  10.9609  13.9165  15.4484  15.4484  22.3924  22.3924  23.5323

          k =-0.0000-0.0000 0.7307 (   220 PWs)   bands (ev):

    10.5984  10.6833  15.3656  15.3656  15.6612  21.3985  24.2661  24.2661

     the Fermi energy is    13.2064 ev

!    total energy              =     -55.80256374 Ry
     estimated scf accuracy    <       0.00000007 Ry
     smearing contrib. (-TS)   =       0.00013694 Ry
     internal energy E=F+TS    =     -55.80270068 Ry

     The total energy is F=E-TS. E is the sum of the following terms:
     one-electron contribution =       7.30923794 Ry
     hartree contribution      =       6.59203498 Ry
     xc contribution           =     -26.44584316 Ry
     ewald contribution        =     -43.25813044 Ry

     total magnetization       =     2.34 Bohr mag/cell
     absolute magnetization    =     2.47 Bohr mag/cell

     convergence has been achieved in  14 iterations

     Forces acting on atoms (cartesian axes, Ry/au):

     atom    1 type  1   force =     0.00000000    0.00000000    0.00000000
     The non-local contrib.  to forces
     atom    1 type  1   force =    -0.00000000   -0.00000000    0.00000000
     The ionic contribution  to forces
     atom    1 type  1   force =    -0.00000000   -0.00000000   -0.00000000
     The local contribution  to forces
     atom    1 type  1   force =    -0.00000000   -0.00000000   -0.00000000
     The core correction contribution to forces
     atom    1 type  1   force =    -0.00000000   -0.00000000    0.00000000
     The Hubbard contrib.    to forces
     atom    1 type  1   force =     0.00000000    0.00000000    0.00000000
     The SCF correction term to forces
     atom    1 type  1   force =     0.00000000   -0.00000000    0.00000000

     Total force =     0.000000     Total SCF correction =     0.000000


     Computing stress (Cartesian axis) and pressure

          total   stress  (Ry/bohr**3)                   (kbar)     P=       -1.97
  -0.00001338   0.00000000  -0.00000000           -1.97        0.00       -0.00
   0.00000000  -0.00001338   0.00000000            0.00       -1.97        0.00
  -0.00000000   0.00000000  -0.00001338           -0.00        0.00       -1.97

     Energy error            =      9.5E-04 Ry
     Gradient error          =      0.0E+00 Ry/Bohr
     Cell gradient error     =      2.0E+00 kbar

     number of scf cycles    =   2
     number of bfgs steps    =   1

     enthalpy           old  =     -55.8016137302 Ry
     enthalpy           new  =     -55.8025637394 Ry

     CASE: enthalpy          _new < enthalpy          _old

     new trust radius        =       0.0005877119 bohr
     new conv_thr            =       0.0000000010 Ry

     new unit-cell volume =     77.96559 a.u.^3 (    11.55331 Ang^3 )
     density =      8.02651 g/cm^3

CELL_PARAMETERS (angstrom)
  -1.424127249   1.424127249   1.424127249
   1.424127249  -1.424127249   1.424127249
   1.424127249   1.424127249  -1.424127249

ATOMIC_POSITIONS (angstrom)
Fe            0.0000000000        0.0000000000        0.0000000000



     Writing config-only to output data dir /home/gridsan/epan1/labutil/lab3_samples/problem1/Lab3/Fe_bcc_a_2.8046394196999995_ecut_30_nk_7/pwscf.save/
     NEW-OLD atomic charge density approx. for the potential
     extrapolated charge    7.99201, renormalised to    8.00000
     Generating pointlists ...

     total cpu time spent up to now is        3.8 secs

     Self-consistent Calculation

     iteration #  1     ecut=    30.00 Ry     beta= 0.50
     Davidson diagonalization with overlap
     ethr =  1.00E-06,  avg # of iterations =  2.0

     total cpu time spent up to now is        3.9 secs

     total energy              =     -55.80251159 Ry
     estimated scf accuracy    <       0.00005875 Ry

     total magnetization       =     2.34 Bohr mag/cell
     absolute magnetization    =     2.47 Bohr mag/cell

     iteration #  2     ecut=    30.00 Ry     beta= 0.50
     Davidson diagonalization with overlap
     ethr =  7.34E-07,  avg # of iterations =  2.3

     total cpu time spent up to now is        4.0 secs

     total energy              =     -55.80256223 Ry
     estimated scf accuracy    <       0.00017247 Ry

     total magnetization       =     2.33 Bohr mag/cell
     absolute magnetization    =     2.47 Bohr mag/cell

     iteration #  3     ecut=    30.00 Ry     beta= 0.50
     Davidson diagonalization with overlap
     ethr =  7.34E-07,  avg # of iterations =  1.2

     total cpu time spent up to now is        4.1 secs

     total energy              =     -55.80255486 Ry
     estimated scf accuracy    <       0.00002658 Ry

     total magnetization       =     2.33 Bohr mag/cell
     absolute magnetization    =     2.47 Bohr mag/cell

     iteration #  4     ecut=    30.00 Ry     beta= 0.50
     Davidson diagonalization with overlap
     ethr =  3.32E-07,  avg # of iterations =  2.2

     total cpu time spent up to now is        4.2 secs

     total energy              =     -55.80256852 Ry
     estimated scf accuracy    <       0.00003190 Ry

     total magnetization       =     2.34 Bohr mag/cell
     absolute magnetization    =     2.47 Bohr mag/cell

     iteration #  5     ecut=    30.00 Ry     beta= 0.50
     Davidson diagonalization with overlap
     ethr =  3.32E-07,  avg # of iterations =  1.0

     total cpu time spent up to now is        4.3 secs

     total energy              =     -55.80256761 Ry
     estimated scf accuracy    <       0.00000993 Ry

     total magnetization       =     2.34 Bohr mag/cell
     absolute magnetization    =     2.47 Bohr mag/cell

     iteration #  6     ecut=    30.00 Ry     beta= 0.50
     Davidson diagonalization with overlap
     ethr =  1.24E-07,  avg # of iterations =  1.0

     total cpu time spent up to now is        4.4 secs

     total energy              =     -55.80256609 Ry
     estimated scf accuracy    <       0.00000297 Ry

     total magnetization       =     2.34 Bohr mag/cell
     absolute magnetization    =     2.47 Bohr mag/cell

     iteration #  7     ecut=    30.00 Ry     beta= 0.50
     Davidson diagonalization with overlap
     ethr =  3.71E-08,  avg # of iterations =  2.0

     total cpu time spent up to now is        4.5 secs

     total energy              =     -55.80256745 Ry
     estimated scf accuracy    <       0.00000183 Ry

     total magnetization       =     2.34 Bohr mag/cell
     absolute magnetization    =     2.47 Bohr mag/cell

     iteration #  8     ecut=    30.00 Ry     beta= 0.50
     Davidson diagonalization with overlap
     ethr =  2.28E-08,  avg # of iterations =  1.0

     total cpu time spent up to now is        4.6 secs

     total energy              =     -55.80256736 Ry
     estimated scf accuracy    <       0.00000084 Ry

     total magnetization       =     2.34 Bohr mag/cell
     absolute magnetization    =     2.47 Bohr mag/cell

     iteration #  9     ecut=    30.00 Ry     beta= 0.50
     Davidson diagonalization with overlap
     ethr =  1.04E-08,  avg # of iterations =  1.0

     total cpu time spent up to now is        4.7 secs

     total energy              =     -55.80256724 Ry
     estimated scf accuracy    <       0.00000036 Ry

     total magnetization       =     2.34 Bohr mag/cell
     absolute magnetization    =     2.47 Bohr mag/cell

     iteration # 10     ecut=    30.00 Ry     beta= 0.50
     Davidson diagonalization with overlap
     ethr =  4.44E-09,  avg # of iterations =  1.1

     Magnetic moment per site  (integrated on atomic sphere of radius R)
     atom   1 (R=0.413)  charge=  6.3817  magn=  2.3888

     total cpu time spent up to now is        4.8 secs

     End of self-consistent calculation

 ------ SPIN UP ------------


          k = 0.0000 0.0000 0.0000 (   201 PWs)   bands (ev):

     4.9634  10.8720  10.8720  10.8720  12.0499  12.0499  37.8361  37.8361

          k = 0.1218 0.1218 0.0000 (   205 PWs)   bands (ev):

     5.7806  10.6635  10.8317  11.2991  11.8939  12.0692  33.8166  36.5017

          k = 0.2436 0.2436 0.0000 (   204 PWs)   bands (ev):

     7.6675  10.2159  10.8834  11.9464  12.1366  12.3550  27.2735  33.5510

          k = 0.3655 0.3655 0.0000 (   202 PWs)   bands (ev):

     8.3571   9.8756  12.0617  12.2163  13.1312  13.3297  21.6124  31.6730

          k = 0.2436 0.1218 0.1218 (   205 PWs)   bands (ev):

     7.2158  10.4623  10.4696  11.7714  12.1561  12.2500  30.4814  31.5944

          k = 0.3655 0.2436 0.1218 (   201 PWs)   bands (ev):

     8.6799  10.0323  10.7973  11.9660  12.3737  13.9500  24.5285  28.9066

          k = 0.4873 0.3655 0.1218 (   205 PWs)   bands (ev):

     8.7405   9.8944  11.4201  12.0849  12.7234  15.9992  20.5521  28.0402

          k = 0.4873 0.2436 0.2436 (   204 PWs)   bands (ev):

     9.4284   9.9013  10.4832  12.1524  12.4686  17.3506  22.3336  23.5698

          k = 0.2436 0.2436 0.2436 (   198 PWs)   bands (ev):

     8.8861  10.0051  10.0051  12.1139  12.1139  13.9658  27.9008  27.9008

          k = 0.3655 0.3655 0.2436 (   206 PWs)   bands (ev):

     9.3558   9.7882  10.7451  12.1974  12.2390  16.7547  22.3911  26.4998

          k =-0.0000-0.0000 0.2436 (   209 PWs)   bands (ev):

     6.5438  10.9236  10.9236  11.2974  11.3605  12.3273  33.2478  35.0620

          k = 0.4873 0.3655 0.3655 (   207 PWs)   bands (ev):

     9.6381  10.1830  10.1830  12.2640  12.2640  20.6658  20.6658  22.6943

          k = 0.0000-0.1218 0.3655 (   199 PWs)   bands (ev):

     8.2387  10.4887  10.6565  11.5440  12.2654  12.8114  27.8559  32.1871

          k = 0.0000-0.2436 0.4873 (   209 PWs)   bands (ev):

     8.7886  10.3685  10.6157  11.8228  13.2722  15.0646  21.9713  30.2299

          k = 0.1218-0.1218 0.4873 (   210 PWs)   bands (ev):

     9.2442   9.7791  10.7957  11.7987  12.7398  15.0600  25.3185  25.9819

          k =-0.7309-0.2436-0.2436 (   210 PWs)   bands (ev):

     9.2739   9.9167  10.4506  12.1129  13.0211  18.3397  20.9243  24.7972

          k = 0.0000 0.0000 0.4873 (   205 PWs)   bands (ev):

     9.0335   9.8083  11.5643  11.5643  12.2829  14.3117  28.6763  28.6763

          k =-0.0000-0.1218 0.6091 (   214 PWs)   bands (ev):

     9.0505   9.2778  11.6463  12.0073  13.1459  17.6302  23.2047  26.4510

          k =-0.7309-0.1218-0.1218 (   212 PWs)   bands (ev):

     8.9291   8.9291  11.7422  12.9558  12.9558  21.5742  21.5742  22.8858

          k =-0.0000-0.0000 0.7309 (   220 PWs)   bands (ev):

     8.5951   8.6001  12.9039  12.9039  13.1001  20.7945  23.9467  23.9467

 ------ SPIN DOWN ----------


          k = 0.0000 0.0000 0.0000 (   201 PWs)   bands (ev):

     5.0732  13.1418  13.1418  13.1418  15.1773  15.1773  37.5664  37.5664

          k = 0.1218 0.1218 0.0000 (   205 PWs)   bands (ev):

     5.8997  12.8812  13.0585  13.6158  14.9415  15.2010  34.1097  36.4615

          k = 0.2436 0.2436 0.0000 (   204 PWs)   bands (ev):

     8.0191  12.3298  12.7429  14.8062  14.8560  15.2956  28.0673  33.6050

          k = 0.3655 0.3655 0.0000 (   202 PWs)   bands (ev):

     9.6751  11.9172  13.4934  15.0178  15.4170  15.9375  22.9370  31.6695

          k = 0.2436 0.1218 0.1218 (   205 PWs)   bands (ev):

     7.4076  12.5876  12.6211  14.5613  14.7063  15.3476  31.0319  32.0855

          k = 0.3655 0.2436 0.1218 (   201 PWs)   bands (ev):

     9.5666  12.0628  12.4343  14.8234  15.4278  16.1750  25.4836  29.4546

          k = 0.4873 0.3655 0.1218 (   205 PWs)   bands (ev):

    10.2687  11.8875  12.9686  14.9834  15.5515  17.4885  22.0062  28.5683

          k = 0.4873 0.2436 0.2436 (   204 PWs)   bands (ev):

    11.0203  11.7391  12.1699  15.0171  15.3935  18.8817  23.4002  24.4159

          k = 0.2436 0.2436 0.2436 (   198 PWs)   bands (ev):

     9.3049  11.9968  11.9968  15.2096  15.2096  16.1964  28.5428  28.5428

          k = 0.3655 0.3655 0.2436 (   206 PWs)   bands (ev):

    10.8042  11.6715  12.1257  15.2680  15.4407  18.3614  23.4420  27.1485

          k =-0.0000-0.0000 0.2436 (   209 PWs)   bands (ev):

     6.6858  13.1365  13.1365  13.6215  14.2438  15.4940  33.5115  35.5283

          k = 0.4873 0.3655 0.3655 (   207 PWs)   bands (ev):

    11.3708  11.7796  11.7796  15.4337  15.4337  21.7530  21.7530  23.6128

          k = 0.0000-0.1218 0.3655 (   199 PWs)   bands (ev):

     8.6726  12.7149  12.8043  14.0741  14.7016  15.7535  28.6309  32.7425

          k = 0.0000-0.2436 0.4873 (   209 PWs)   bands (ev):

    10.2417  12.4545  12.4555  14.4843  15.8703  16.8103  23.1901  30.8207

          k = 0.1218-0.1218 0.4873 (   210 PWs)   bands (ev):

    10.3980  11.9431  12.8890  14.2731  15.3655  17.0265  26.2643  26.6948

          k =-0.7309-0.2436-0.2436 (   210 PWs)   bands (ev):

    11.1113  11.8038  12.4938  14.6505  15.6189  19.5832  22.1687  25.5665

          k = 0.0000 0.0000 0.4873 (   205 PWs)   bands (ev):

    10.0461  12.2124  13.7725  13.7725  14.7415  16.5012  29.3156  29.3156

          k =-0.0000-0.1218 0.6091 (   214 PWs)   bands (ev):

    10.8865  11.3623  13.8851  14.3114  15.7234  18.8692  24.0856  26.9880

          k =-0.7309-0.1218-0.1218 (   212 PWs)   bands (ev):

    10.9732  10.9732  13.9325  15.4663  15.4663  22.4173  22.4173  23.5589

          k =-0.0000-0.0000 0.7309 (   220 PWs)   bands (ev):

    10.6101  10.6949  15.3835  15.3835  15.6794  21.4226  24.2919  24.2919

     the Fermi energy is    13.2253 ev

!    total energy              =     -55.80256729 Ry
     estimated scf accuracy    <          7.8E-10 Ry
     smearing contrib. (-TS)   =       0.00014009 Ry
     internal energy E=F+TS    =     -55.80270738 Ry

     The total energy is F=E-TS. E is the sum of the following terms:
     one-electron contribution =       7.33021682 Ry
     hartree contribution      =       6.58542286 Ry
     xc contribution           =     -26.44582272 Ry
     ewald contribution        =     -43.27252434 Ry

     total magnetization       =     2.34 Bohr mag/cell
     absolute magnetization    =     2.47 Bohr mag/cell

     convergence has been achieved in  10 iterations

     Forces acting on atoms (cartesian axes, Ry/au):

     atom    1 type  1   force =     0.00000000    0.00000000    0.00000000
     The non-local contrib.  to forces
     atom    1 type  1   force =     0.00000000    0.00000000    0.00000000
     The ionic contribution  to forces
     atom    1 type  1   force =    -0.00000000   -0.00000000   -0.00000000
     The local contribution  to forces
     atom    1 type  1   force =    -0.00000000    0.00000000   -0.00000000
     The core correction contribution to forces
     atom    1 type  1   force =    -0.00000000   -0.00000000   -0.00000000
     The Hubbard contrib.    to forces
     atom    1 type  1   force =     0.00000000    0.00000000    0.00000000
     The SCF correction term to forces
     atom    1 type  1   force =     0.00000000    0.00000000   -0.00000000

     Total force =     0.000000     Total SCF correction =     0.000000


     Computing stress (Cartesian axis) and pressure

          total   stress  (Ry/bohr**3)                   (kbar)     P=       -6.31
  -0.00004292   0.00000000   0.00000000           -6.31        0.00        0.00
   0.00000000  -0.00004292   0.00000000            0.00       -6.31        0.00
   0.00000000   0.00000000  -0.00004292            0.00        0.00       -6.31

     Energy error            =      3.6E-06 Ry
     Gradient error          =      0.0E+00 Ry/Bohr
     Cell gradient error     =      6.3E+00 kbar

     number of scf cycles    =   3
     number of bfgs steps    =   2

     enthalpy           old  =     -55.8025637394 Ry
     enthalpy           new  =     -55.8025672910 Ry

     CASE: enthalpy          _new < enthalpy          _old


     WARNING: bfgs curvature condition failed, Theta= 0.250
     new trust radius        =       0.0008814212 bohr
     new conv_thr            =       0.0000000010 Ry

     new unit-cell volume =     77.84891 a.u.^3 (    11.53602 Ang^3 )
     density =      8.03855 g/cm^3

CELL_PARAMETERS (angstrom)
  -1.423416443   1.423416443   1.423416443
   1.423416443  -1.423416443   1.423416443
   1.423416443   1.423416443  -1.423416443

ATOMIC_POSITIONS (angstrom)
Fe            0.0000000000        0.0000000000        0.0000000000



     Writing config-only to output data dir /home/gridsan/epan1/labutil/lab3_samples/problem1/Lab3/Fe_bcc_a_2.8046394196999995_ecut_30_nk_7/pwscf.save/
     NEW-OLD atomic charge density approx. for the potential
     extrapolated charge    7.98801, renormalised to    8.00000
     Generating pointlists ...

     total cpu time spent up to now is        5.0 secs

     Self-consistent Calculation

     iteration #  1     ecut=    30.00 Ry     beta= 0.50
     Davidson diagonalization with overlap
     ethr =  1.00E-06,  avg # of iterations =  2.0

     total cpu time spent up to now is        5.1 secs

     total energy              =     -55.80242903 Ry
     estimated scf accuracy    <       0.00015927 Ry

     total magnetization       =     2.34 Bohr mag/cell
     absolute magnetization    =     2.48 Bohr mag/cell

     iteration #  2     ecut=    30.00 Ry     beta= 0.50
     Davidson diagonalization with overlap
     ethr =  1.99E-06,  avg # of iterations =  2.2

     total cpu time spent up to now is        5.3 secs

     total energy              =     -55.80255581 Ry
     estimated scf accuracy    <       0.00041542 Ry

     total magnetization       =     2.33 Bohr mag/cell
     absolute magnetization    =     2.46 Bohr mag/cell

     iteration #  3     ecut=    30.00 Ry     beta= 0.50
     Davidson diagonalization with overlap
     ethr =  1.99E-06,  avg # of iterations =  1.1

     total cpu time spent up to now is        5.3 secs

     total energy              =     -55.80254355 Ry
     estimated scf accuracy    <       0.00005834 Ry

     total magnetization       =     2.33 Bohr mag/cell
     absolute magnetization    =     2.47 Bohr mag/cell

     iteration #  4     ecut=    30.00 Ry     beta= 0.50
     Davidson diagonalization with overlap
     ethr =  7.29E-07,  avg # of iterations =  2.2

     total cpu time spent up to now is        5.4 secs

     total energy              =     -55.80257354 Ry
     estimated scf accuracy    <       0.00006949 Ry

     total magnetization       =     2.34 Bohr mag/cell
     absolute magnetization    =     2.47 Bohr mag/cell

     iteration #  5     ecut=    30.00 Ry     beta= 0.50
     Davidson diagonalization with overlap
     ethr =  7.29E-07,  avg # of iterations =  1.0

     total cpu time spent up to now is        5.5 secs

     total energy              =     -55.80257112 Ry
     estimated scf accuracy    <       0.00002165 Ry

     total magnetization       =     2.33 Bohr mag/cell
     absolute magnetization    =     2.47 Bohr mag/cell

     iteration #  6     ecut=    30.00 Ry     beta= 0.50
     Davidson diagonalization with overlap
     ethr =  2.71E-07,  avg # of iterations =  1.0

     total cpu time spent up to now is        5.6 secs

     total energy              =     -55.80256863 Ry
     estimated scf accuracy    <       0.00000539 Ry

     total magnetization       =     2.33 Bohr mag/cell
     absolute magnetization    =     2.47 Bohr mag/cell

     iteration #  7     ecut=    30.00 Ry     beta= 0.50
     Davidson diagonalization with overlap
     ethr =  6.73E-08,  avg # of iterations =  2.0

     total cpu time spent up to now is        5.7 secs

     total energy              =     -55.80257117 Ry
     estimated scf accuracy    <       0.00000343 Ry

     total magnetization       =     2.33 Bohr mag/cell
     absolute magnetization    =     2.47 Bohr mag/cell

     iteration #  8     ecut=    30.00 Ry     beta= 0.50
     Davidson diagonalization with overlap
     ethr =  4.29E-08,  avg # of iterations =  1.0

     total cpu time spent up to now is        5.8 secs

     total energy              =     -55.80257098 Ry
     estimated scf accuracy    <       0.00000163 Ry

     total magnetization       =     2.33 Bohr mag/cell
     absolute magnetization    =     2.47 Bohr mag/cell

     iteration #  9     ecut=    30.00 Ry     beta= 0.50
     Davidson diagonalization with overlap
     ethr =  2.04E-08,  avg # of iterations =  1.0

     total cpu time spent up to now is        5.9 secs

     total energy              =     -55.80257073 Ry
     estimated scf accuracy    <       0.00000069 Ry

     total magnetization       =     2.33 Bohr mag/cell
     absolute magnetization    =     2.47 Bohr mag/cell

     iteration # 10     ecut=    30.00 Ry     beta= 0.50
     Davidson diagonalization with overlap
     ethr =  8.63E-09,  avg # of iterations =  1.1

     Magnetic moment per site  (integrated on atomic sphere of radius R)
     atom   1 (R=0.413)  charge=  6.3832  magn=  2.3867

     total cpu time spent up to now is        6.0 secs

     End of self-consistent calculation

 ------ SPIN UP ------------


          k = 0.0000 0.0000 0.0000 (   201 PWs)   bands (ev):

     4.9808  10.8955  10.8955  10.8955  12.0761  12.0761  37.8758  37.8758

          k = 0.1219 0.1219 0.0000 (   205 PWs)   bands (ev):

     5.7988  10.6865  10.8550  11.3235  11.9197  12.0954  33.8591  36.5430

          k = 0.2438 0.2438 0.0000 (   204 PWs)   bands (ev):

     7.6870  10.2378  10.9067  11.9724  12.1631  12.3819  27.3154  33.5914

          k = 0.3657 0.3657 0.0000 (   202 PWs)   bands (ev):

     8.3756   9.8967  12.0880  12.2431  13.1569  13.3588  21.6520  31.7116

          k = 0.2438 0.1219 0.1219 (   205 PWs)   bands (ev):

     7.2354  10.4846  10.4921  11.7969  12.1825  12.2766  30.5230  31.6389

          k = 0.3657 0.2438 0.1219 (   201 PWs)   bands (ev):

     8.6996  10.0537  10.8204  11.9920  12.4007  13.9796  24.5688  28.9489

          k = 0.4875 0.3657 0.1219 (   205 PWs)   bands (ev):

     8.7594   9.9155  11.4444  12.1113  12.7509  16.0296  20.5913  28.0816

          k = 0.4875 0.2438 0.2438 (   204 PWs)   bands (ev):

     9.4487   9.9223  10.5056  12.1789  12.4958  17.3837  22.3707  23.6111

          k = 0.2438 0.2438 0.2438 (   198 PWs)   bands (ev):

     8.9071  10.0264  10.0264  12.1403  12.1403  13.9956  27.9412  27.9412

          k = 0.3657 0.3657 0.2438 (   206 PWs)   bands (ev):

     9.3760   9.8091  10.7680  12.2241  12.2658  16.7874  22.4299  26.5390

          k =-0.0000-0.0000 0.2438 (   209 PWs)   bands (ev):

     6.5628  10.9471  10.9471  11.3218  11.3848  12.3543  33.2875  35.1091

          k = 0.4875 0.3657 0.3657 (   207 PWs)   bands (ev):

     9.6588  10.2048  10.2048  12.2908  12.2908  20.7013  20.7013  22.7352

          k = 0.0000-0.1219 0.3657 (   199 PWs)   bands (ev):

     8.2587  10.5109  10.6793  11.5689  12.2920  12.8394  27.8980  32.2341

          k = 0.0000-0.2438 0.4875 (   209 PWs)   bands (ev):

     8.8077  10.3907  10.6382  11.8484  13.3012  15.0944  22.0107  30.2755

          k = 0.1219-0.1219 0.4875 (   210 PWs)   bands (ev):

     9.2645   9.7997  10.8188  11.8242  12.7676  15.0909  25.3584  26.0243

          k =-0.7313-0.2438-0.2438 (   210 PWs)   bands (ev):

     9.2936   9.9377  10.4730  12.1392  13.0494  18.3728  20.9626  24.8378

          k = 0.0000 0.0000 0.4875 (   205 PWs)   bands (ev):

     9.0536   9.8288  11.5892  11.5892  12.3095  14.3418  28.7203  28.7203

          k =-0.0000-0.1219 0.6094 (   214 PWs)   bands (ev):

     9.0696   9.2973  11.6713  12.0332  13.1745  17.6633  23.2438  26.4923

          k =-0.7313-0.1219-0.1219 (   212 PWs)   bands (ev):

     8.9478   8.9478  11.7674  12.9839  12.9839  21.6104  21.6104  22.9252

          k =-0.0000-0.0000 0.7313 (   220 PWs)   bands (ev):

     8.6130   8.6181  12.9319  12.9319  13.1287  20.8299  23.9846  23.9846

 ------ SPIN DOWN ----------


          k = 0.0000 0.0000 0.0000 (   201 PWs)   bands (ev):

     5.0915  13.1629  13.1629  13.1629  15.2020  15.2020  37.6078  37.6078

          k = 0.1219 0.1219 0.0000 (   205 PWs)   bands (ev):

     5.9190  12.9018  13.0794  13.6377  14.9657  15.2258  34.1530  36.5041

          k = 0.2438 0.2438 0.0000 (   204 PWs)   bands (ev):

     8.0399  12.3493  12.7640  14.8305  14.8802  15.3206  28.1098  33.6467

          k = 0.3657 0.3657 0.0000 (   202 PWs)   bands (ev):

     9.6934  11.9360  13.5191  15.0424  15.4423  15.9639  22.9764  31.7093

          k = 0.2438 0.1219 0.1219 (   205 PWs)   bands (ev):

     7.4283  12.6077  12.6413  14.5852  14.7301  15.3728  31.0744  32.1303

          k = 0.3657 0.2438 0.1219 (   201 PWs)   bands (ev):

     9.5871  12.0821  12.4555  14.8475  15.4531  16.2024  25.5244  29.4973

          k = 0.4875 0.3657 0.1219 (   205 PWs)   bands (ev):

    10.2867  11.9065  12.9924  15.0080  15.5771  17.5184  22.0448  28.6102

          k = 0.4875 0.2438 0.2438 (   204 PWs)   bands (ev):

    11.0397  11.7587  12.1908  15.0416  15.4188  18.9142  23.4378  24.4573

          k = 0.2438 0.2438 0.2438 (   198 PWs)   bands (ev):

     9.3267  12.0160  12.0160  15.2344  15.2344  16.2238  28.5839  28.5839

          k = 0.3657 0.3657 0.2438 (   206 PWs)   bands (ev):

    10.8238  11.6904  12.1473  15.2930  15.4661  18.3929  23.4810  27.1884

          k =-0.0000-0.0000 0.2438 (   209 PWs)   bands (ev):

     6.7058  13.1576  13.1576  13.6434  14.2667  15.5196  33.5529  35.5755

          k = 0.4875 0.3657 0.3657 (   207 PWs)   bands (ev):

    11.3896  11.7999  11.7999  15.4590  15.4590  21.7886  21.7886  23.6537

          k = 0.0000-0.1219 0.3657 (   199 PWs)   bands (ev):

     8.6939  12.7355  12.8247  14.0968  14.7256  15.7799  28.6738  32.7856

          k = 0.0000-0.2438 0.4875 (   209 PWs)   bands (ev):

    10.2606  12.4753  12.4764  14.5078  15.8966  16.8396  23.2296  30.8667

          k = 0.1219-0.1219 0.4875 (   210 PWs)   bands (ev):

    10.4187  11.9623  12.9099  14.2963  15.3909  17.0563  26.3049  26.7375

          k =-0.7313-0.2438-0.2438 (   210 PWs)   bands (ev):

    11.1300  11.8241  12.5141  14.6744  15.6447  19.6167  22.2070  25.6075

          k = 0.0000 0.0000 0.4875 (   205 PWs)   bands (ev):

    10.0670  12.2315  13.7949  13.7949  14.7655  16.5302  29.3600  29.3600

          k =-0.0000-0.1219 0.6094 (   214 PWs)   bands (ev):

    10.9052  11.3804  13.9077  14.3350  15.7494  18.9023  24.1252  27.0298

          k =-0.7313-0.1219-0.1219 (   212 PWs)   bands (ev):

    10.9908  10.9908  13.9555  15.4919  15.4919  22.4542  22.4542  23.5985

          k =-0.0000-0.0000 0.7313 (   220 PWs)   bands (ev):

    10.6271  10.7116  15.4089  15.4089  15.7053  21.4587  24.3305  24.3305

     the Fermi energy is    13.2525 ev

!    total energy              =     -55.80257085 Ry
     estimated scf accuracy    <          6.8E-11 Ry
     smearing contrib. (-TS)   =       0.00014431 Ry
     internal energy E=F+TS    =     -55.80271516 Ry

     The total energy is F=E-TS. E is the sum of the following terms:
     one-electron contribution =       7.36075253 Ry
     hartree contribution      =       6.57724215 Ry
     xc contribution           =     -26.44657667 Ry
     ewald contribution        =     -43.29413316 Ry

     total magnetization       =     2.33 Bohr mag/cell
     absolute magnetization    =     2.47 Bohr mag/cell

     convergence has been achieved in  10 iterations

     Forces acting on atoms (cartesian axes, Ry/au):

     atom    1 type  1   force =     0.00000000    0.00000000    0.00000000
     The non-local contrib.  to forces
     atom    1 type  1   force =     0.00000000   -0.00000000    0.00000000
     The ionic contribution  to forces
     atom    1 type  1   force =    -0.00000000   -0.00000000   -0.00000000
     The local contribution  to forces
     atom    1 type  1   force =    -0.00000000   -0.00000000    0.00000000
     The core correction contribution to forces
     atom    1 type  1   force =    -0.00000000   -0.00000000    0.00000000
     The Hubbard contrib.    to forces
     atom    1 type  1   force =     0.00000000    0.00000000    0.00000000
     The SCF correction term to forces
     atom    1 type  1   force =    -0.00000000   -0.00000000    0.00000000

     Total force =     0.000000     Total SCF correction =     0.000000


     Computing stress (Cartesian axis) and pressure

          total   stress  (Ry/bohr**3)                   (kbar)     P=       -3.24
  -0.00002201   0.00000000   0.00000000           -3.24        0.00        0.00
   0.00000000  -0.00002201   0.00000000            0.00       -3.24        0.00
   0.00000000   0.00000000  -0.00002201            0.00        0.00       -3.24

     Energy error            =      3.6E-06 Ry
     Gradient error          =      0.0E+00 Ry/Bohr
     Cell gradient error     =      3.2E+00 kbar

     number of scf cycles    =   4
     number of bfgs steps    =   3

     enthalpy           old  =     -55.8025672910 Ry
     enthalpy           new  =     -55.8025708498 Ry

     CASE: enthalpy          _new < enthalpy          _old

     new trust radius        =       0.0009251365 bohr
     new conv_thr            =       0.0000000010 Ry

     new unit-cell volume =     77.72653 a.u.^3 (    11.51788 Ang^3 )
     density =      8.05120 g/cm^3

CELL_PARAMETERS (angstrom)
  -1.422670198   1.422670198   1.422670198
   1.422670198  -1.422670198   1.422670198
   1.422670198   1.422670198  -1.422670198

ATOMIC_POSITIONS (angstrom)
Fe            0.0000000000        0.0000000000        0.0000000000



     Writing config-only to output data dir /home/gridsan/epan1/labutil/lab3_samples/problem1/Lab3/Fe_bcc_a_2.8046394196999995_ecut_30_nk_7/pwscf.save/
     NEW-OLD atomic charge density approx. for the potential
     extrapolated charge    7.98741, renormalised to    8.00000
     Generating pointlists ...

     total cpu time spent up to now is        6.3 secs

     Self-consistent Calculation

     iteration #  1     ecut=    30.00 Ry     beta= 0.50
     Davidson diagonalization with overlap
     ethr =  1.00E-06,  avg # of iterations =  2.0

     total cpu time spent up to now is        6.4 secs

     total energy              =     -55.80241767 Ry
     estimated scf accuracy    <       0.00017311 Ry

     total magnetization       =     2.34 Bohr mag/cell
     absolute magnetization    =     2.47 Bohr mag/cell

     iteration #  2     ecut=    30.00 Ry     beta= 0.50
     Davidson diagonalization with overlap
     ethr =  2.16E-06,  avg # of iterations =  2.2

     total cpu time spent up to now is        6.5 secs

     total energy              =     -55.80255627 Ry
     estimated scf accuracy    <       0.00045104 Ry

     total magnetization       =     2.33 Bohr mag/cell
     absolute magnetization    =     2.46 Bohr mag/cell

     iteration #  3     ecut=    30.00 Ry     beta= 0.50
     Davidson diagonalization with overlap
     ethr =  2.16E-06,  avg # of iterations =  1.1

     total cpu time spent up to now is        6.6 secs

     total energy              =     -55.80254287 Ry
     estimated scf accuracy    <       0.00006383 Ry

     total magnetization       =     2.33 Bohr mag/cell
     absolute magnetization    =     2.46 Bohr mag/cell

     iteration #  4     ecut=    30.00 Ry     beta= 0.50
     Davidson diagonalization with overlap
     ethr =  7.98E-07,  avg # of iterations =  2.2

     total cpu time spent up to now is        6.7 secs

     total energy              =     -55.80257519 Ry
     estimated scf accuracy    <       0.00007146 Ry

     total magnetization       =     2.33 Bohr mag/cell
     absolute magnetization    =     2.47 Bohr mag/cell

     iteration #  5     ecut=    30.00 Ry     beta= 0.50
     Davidson diagonalization with overlap
     ethr =  7.98E-07,  avg # of iterations =  1.0

     total cpu time spent up to now is        6.8 secs

     total energy              =     -55.80257236 Ry
     estimated scf accuracy    <       0.00002242 Ry

     total magnetization       =     2.33 Bohr mag/cell
     absolute magnetization    =     2.47 Bohr mag/cell

     iteration #  6     ecut=    30.00 Ry     beta= 0.50
     Davidson diagonalization with overlap
     ethr =  2.80E-07,  avg # of iterations =  1.0

     total cpu time spent up to now is        6.9 secs

     total energy              =     -55.80257025 Ry
     estimated scf accuracy    <       0.00000491 Ry

     total magnetization       =     2.33 Bohr mag/cell
     absolute magnetization    =     2.47 Bohr mag/cell

     iteration #  7     ecut=    30.00 Ry     beta= 0.50
     Davidson diagonalization with overlap
     ethr =  6.14E-08,  avg # of iterations =  2.0

     total cpu time spent up to now is        7.0 secs

     total energy              =     -55.80257266 Ry
     estimated scf accuracy    <       0.00000367 Ry

     total magnetization       =     2.33 Bohr mag/cell
     absolute magnetization    =     2.46 Bohr mag/cell

     iteration #  8     ecut=    30.00 Ry     beta= 0.50
     Davidson diagonalization with overlap
     ethr =  4.58E-08,  avg # of iterations =  1.0

     total cpu time spent up to now is        7.1 secs

     total energy              =     -55.80257239 Ry
     estimated scf accuracy    <       0.00000160 Ry

     total magnetization       =     2.33 Bohr mag/cell
     absolute magnetization    =     2.46 Bohr mag/cell

     iteration #  9     ecut=    30.00 Ry     beta= 0.50
     Davidson diagonalization with overlap
     ethr =  2.00E-08,  avg # of iterations =  1.0

     total cpu time spent up to now is        7.2 secs

     total energy              =     -55.80257227 Ry
     estimated scf accuracy    <       0.00000041 Ry

     total magnetization       =     2.33 Bohr mag/cell
     absolute magnetization    =     2.46 Bohr mag/cell

     iteration # 10     ecut=    30.00 Ry     beta= 0.50
     Davidson diagonalization with overlap
     ethr =  5.18E-09,  avg # of iterations =  1.4

     total cpu time spent up to now is        7.3 secs

     total energy              =     -55.80257236 Ry
     estimated scf accuracy    <       0.00000001 Ry

     total magnetization       =     2.33 Bohr mag/cell
     absolute magnetization    =     2.46 Bohr mag/cell

     iteration # 11     ecut=    30.00 Ry     beta= 0.50
     Davidson diagonalization with overlap
     ethr =  1.48E-10,  avg # of iterations =  3.1

     total cpu time spent up to now is        7.4 secs

     total energy              =     -55.80257236 Ry
     estimated scf accuracy    <          1.2E-09 Ry

     total magnetization       =     2.33 Bohr mag/cell
     absolute magnetization    =     2.46 Bohr mag/cell

     iteration # 12     ecut=    30.00 Ry     beta= 0.50
     Davidson diagonalization with overlap
     ethr =  1.54E-11,  avg # of iterations =  4.3

     Magnetic moment per site  (integrated on atomic sphere of radius R)
     atom   1 (R=0.413)  charge=  6.3850  magn=  2.3846

     total cpu time spent up to now is        7.6 secs

     End of self-consistent calculation

 ------ SPIN UP ------------


          k = 0.0000 0.0000 0.0000 (   201 PWs)   bands (ev):

     4.9990  10.9203  10.9203  10.9203  12.1037  12.1037  37.9176  37.9176

          k = 0.1219 0.1219 0.0000 (   205 PWs)   bands (ev):

     5.8180  10.7107  10.8796  11.3493  11.9469  12.1231  33.9038  36.5864

          k = 0.2439 0.2439 0.0000 (   204 PWs)   bands (ev):

     7.7075  10.2608  10.9312  11.9998  12.1910  12.4101  27.3594  33.6338

          k = 0.3658 0.3658 0.0000 (   202 PWs)   bands (ev):

     8.3951   9.9190  12.1158  12.2713  13.1840  13.3895  21.6937  31.7520

          k = 0.2439 0.1219 0.1219 (   205 PWs)   bands (ev):

     7.2560  10.5082  10.5158  11.8238  12.2104  12.3047  30.5667  31.6857

          k = 0.3658 0.2439 0.1219 (   201 PWs)   bands (ev):

     8.7203  10.0762  10.8448  12.0195  12.4293  14.0107  24.6113  28.9933

          k = 0.4878 0.3658 0.1219 (   205 PWs)   bands (ev):

     8.7794   9.9378  11.4700  12.1391  12.7800  16.0615  20.6325  28.1252

          k = 0.4878 0.2439 0.2439 (   204 PWs)   bands (ev):

     9.4702   9.9445  10.5292  12.2068  12.5245  17.4186  22.4098  23.6545

          k = 0.2439 0.2439 0.2439 (   198 PWs)   bands (ev):

     8.9292  10.0489  10.0489  12.1682  12.1682  14.0270  27.9836  27.9836

          k = 0.3658 0.3658 0.2439 (   206 PWs)   bands (ev):

     9.3973   9.8311  10.7922  12.2522  12.2941  16.8217  22.4707  26.5803

          k =-0.0000-0.0000 0.2439 (   209 PWs)   bands (ev):

     6.5828  10.9719  10.9719  11.3475  11.4105  12.3827  33.3292  35.1586

          k = 0.4878 0.3658 0.3658 (   207 PWs)   bands (ev):

     9.6805  10.2277  10.2277  12.3192  12.3192  20.7387  20.7387  22.7781

          k = 0.0000-0.1219 0.3658 (   199 PWs)   bands (ev):

     8.2798  10.5344  10.7034  11.5952  12.3201  12.8689  27.9423  32.2836

          k = 0.0000-0.2439 0.4878 (   209 PWs)   bands (ev):

     8.8278  10.4141  10.6620  11.8754  13.3317  15.1259  22.0522  30.3233

          k = 0.1219-0.1219 0.4878 (   210 PWs)   bands (ev):

     9.2859   9.8214  10.8432  11.8511  12.7968  15.1234  25.4003  26.0689

          k =-0.7317-0.2439-0.2439 (   210 PWs)   bands (ev):

     9.3144   9.9598  10.4966  12.1668  13.0793  18.4077  21.0029  24.8806

          k = 0.0000 0.0000 0.4878 (   205 PWs)   bands (ev):

     9.0747   9.8505  11.6154  11.6154  12.3376  14.3736  28.7665  28.7665

          k =-0.0000-0.1219 0.6097 (   214 PWs)   bands (ev):

     9.0897   9.3179  11.6977  12.0605  13.2047  17.6982  23.2850  26.5357

          k =-0.7317-0.1219-0.1219 (   212 PWs)   bands (ev):

     8.9675   8.9675  11.7941  13.0136  13.0136  21.6485  21.6485  22.9667

          k = 0.0000 0.0000 0.7317 (   220 PWs)   bands (ev):

     8.6319   8.6371  12.9615  12.9615  13.1587  20.8672  24.0245  24.0245

 ------ SPIN DOWN ----------


          k = 0.0000 0.0000 0.0000 (   201 PWs)   bands (ev):

     5.1108  13.1851  13.1851  13.1851  15.2282  15.2282  37.6514  37.6514

          k = 0.1219 0.1219 0.0000 (   205 PWs)   bands (ev):

     5.9393  12.9235  13.1016  13.6609  14.9914  15.2520  34.1987  36.5489

          k = 0.2439 0.2439 0.0000 (   204 PWs)   bands (ev):

     8.0617  12.3700  12.7864  14.8561  14.9057  15.3470  28.1545  33.6906

          k = 0.3658 0.3658 0.0000 (   202 PWs)   bands (ev):

     9.7126  11.9559  13.5463  15.0684  15.4690  15.9919  23.0180  31.7512

          k = 0.2439 0.1219 0.1219 (   205 PWs)   bands (ev):

     7.4500  12.6290  12.6627  14.6105  14.7553  15.3994  31.1192  32.1776

          k = 0.3658 0.2439 0.1219 (   201 PWs)   bands (ev):

     9.6088  12.1025  12.4779  14.8730  15.4800  16.2313  25.5675  29.5423

          k = 0.4878 0.3658 0.1219 (   205 PWs)   bands (ev):

    10.3058  11.9265  13.0175  15.0339  15.6043  17.5501  22.0856  28.6543

          k = 0.4878 0.2439 0.2439 (   204 PWs)   bands (ev):

    11.0601  11.7795  12.2128  15.0676  15.4456  18.9485  23.4774  24.5010

          k = 0.2439 0.2439 0.2439 (   198 PWs)   bands (ev):

     9.3497  12.0364  12.0364  15.2607  15.2607  16.2527  28.6272  28.6272

          k = 0.3658 0.3658 0.2439 (   206 PWs)   bands (ev):

    10.8445  11.7103  12.1700  15.3195  15.4929  18.4262  23.5221  27.2304

          k =-0.0000-0.0000 0.2439 (   209 PWs)   bands (ev):

     6.7270  13.1800  13.1800  13.6666  14.2907  15.5465  33.5965  35.6251

          k = 0.4878 0.3658 0.3658 (   207 PWs)   bands (ev):

    11.4095  11.8213  11.8213  15.4858  15.4858  21.8261  21.8261  23.6968

          k = 0.0000-0.1219 0.3658 (   199 PWs)   bands (ev):

     8.7162  12.7572  12.8464  14.1208  14.7510  15.8079  28.7189  32.8310

          k = 0.0000-0.2439 0.4878 (   209 PWs)   bands (ev):

    10.2805  12.4964  12.4994  14.5328  15.9244  16.8705  23.2712  30.9151

          k = 0.1219-0.1219 0.4878 (   210 PWs)   bands (ev):

    10.4405  11.9825  12.9321  14.3208  15.4177  17.0877  26.3478  26.7825

          k =-0.7317-0.2439-0.2439 (   210 PWs)   bands (ev):

    11.1497  11.8454  12.5355  14.6998  15.6721  19.6520  22.2473  25.6507

          k = 0.0000 0.0000 0.4878 (   205 PWs)   bands (ev):

    10.0890  12.2517  13.8187  13.8187  14.7909  16.5607  29.4067  29.4067

          k =-0.0000-0.1219 0.6097 (   214 PWs)   bands (ev):

    10.9250  11.3996  13.9317  14.3599  15.7769  18.9373  24.1669  27.0739

          k =-0.7317-0.1219-0.1219 (   212 PWs)   bands (ev):

    11.0094  11.0094  13.9797  15.5189  15.5189  22.4931  22.4931  23.6402

          k = 0.0000 0.0000 0.7317 (   220 PWs)   bands (ev):

    10.6449  10.7292  15.4358  15.4358  15.7327  21.4967  24.3711  24.3711

     the Fermi energy is    13.2811 ev

!    total energy              =     -55.80257236 Ry
     estimated scf accuracy    <          4.4E-10 Ry
     smearing contrib. (-TS)   =       0.00014874 Ry
     internal energy E=F+TS    =     -55.80272110 Ry

     The total energy is F=E-TS. E is the sum of the following terms:
     one-electron contribution =       7.39282295 Ry
     hartree contribution      =       6.56868667 Ry
     xc contribution           =     -26.44738813 Ry
     ewald contribution        =     -43.31684260 Ry

     total magnetization       =     2.33 Bohr mag/cell
     absolute magnetization    =     2.46 Bohr mag/cell

     convergence has been achieved in  12 iterations

     Forces acting on atoms (cartesian axes, Ry/au):

     atom    1 type  1   force =     0.00000000    0.00000000    0.00000000
     The non-local contrib.  to forces
     atom    1 type  1   force =     0.00000000    0.00000000    0.00000000
     The ionic contribution  to forces
     atom    1 type  1   force =    -0.00000000   -0.00000000   -0.00000000
     The local contribution  to forces
     atom    1 type  1   force =     0.00000000   -0.00000000   -0.00000000
     The core correction contribution to forces
     atom    1 type  1   force =    -0.00000000   -0.00000000   -0.00000000
     The Hubbard contrib.    to forces
     atom    1 type  1   force =     0.00000000    0.00000000    0.00000000
     The SCF correction term to forces
     atom    1 type  1   force =    -0.00000000   -0.00000000    0.00000000

     Total force =     0.000000     Total SCF correction =     0.000000


     Computing stress (Cartesian axis) and pressure

          total   stress  (Ry/bohr**3)                   (kbar)     P=       -0.00
  -0.00000003  -0.00000000  -0.00000000           -0.00       -0.00       -0.00
  -0.00000000  -0.00000003  -0.00000000           -0.00       -0.00       -0.00
  -0.00000000  -0.00000000  -0.00000003           -0.00       -0.00       -0.00

     Energy error            =      1.5E-06 Ry
     Gradient error          =      0.0E+00 Ry/Bohr
     Cell gradient error     =      4.0E-03 kbar

     bfgs converged in   5 scf cycles and   4 bfgs steps
     (criteria: energy <  1.0E-04 Ry, force <  1.0E-03 Ry/Bohr, cell <  5.0E-01 kbar)

     End of BFGS Geometry Optimization

     Final enthalpy           =     -55.8025723648 Ry

     File /home/gridsan/epan1/labutil/lab3_samples/problem1/Lab3/Fe_bcc_a_2.8046394196999995_ecut_30_nk_7/pwscf.bfgs deleted, as requested
Begin final coordinates
     new unit-cell volume =     77.72653 a.u.^3 (    11.51788 Ang^3 )
     density =      8.05120 g/cm^3

CELL_PARAMETERS (angstrom)
  -1.422670198   1.422670198   1.422670198
   1.422670198  -1.422670198   1.422670198
   1.422670198   1.422670198  -1.422670198

ATOMIC_POSITIONS (angstrom)
Fe            0.0000000000        0.0000000000        0.0000000000
End final coordinates



     Writing config-only to output data dir /home/gridsan/epan1/labutil/lab3_samples/problem1/Lab3/Fe_bcc_a_2.8046394196999995_ecut_30_nk_7/pwscf.save/

     Final scf calculation at the relaxed structure.
     The G-vectors are recalculated for the final unit cell
     Results may differ from those at the preceding step.

     Parallelization info
     --------------------
     sticks:   dense  smooth     PW     G-vecs:    dense   smooth      PW
     Min          97      49     16                 1223      430      91
     Max          98      50     17                 1225      431      93
     Sum         391     197     67                 4897     1721     369

     Using Slab Decomposition



     bravais-lattice index     =            0
     lattice parameter (alat)  =       4.5899  a.u.
     unit-cell volume          =      77.7265 (a.u.)^3
     number of atoms/cell      =            1
     number of atomic types    =            1
     number of electrons       =         8.00
     number of Kohn-Sham states=            8
     kinetic-energy cutoff     =      30.0000  Ry
     charge density cutoff     =     240.0000  Ry
     scf convergence threshold =      1.0E-09
     mixing beta               =       0.5000
     number of iterations used =            8  plain     mixing
     press convergence thresh. =      5.0E-01
     Exchange-correlation=  SLA  PW   PBE  PBE
                           (   1   4   3   4   0   0   0)

     celldm(1)=   4.589935  celldm(2)=   0.000000  celldm(3)=   0.000000
     celldm(4)=   0.000000  celldm(5)=   0.000000  celldm(6)=   0.000000

     crystal axes: (cart. coord. in units of alat)
               a(1) = (  -0.585729   0.585729   0.585729 )  
               a(2) = (   0.585729  -0.585729   0.585729 )  
               a(3) = (   0.585729   0.585729  -0.585729 )  

     reciprocal axes: (cart. coord. in units 2 pi/alat)
               b(1) = (  0.000000  0.853637  0.853637 )  
               b(2) = (  0.853637  0.000000  0.853637 )  
               b(3) = (  0.853637  0.853637  0.000000 )  


     PseudoPot. # 1 for Fe read from file:
     /home/gridsan/epan1/labutil/lab3_samples/pseudopotentials/Fe.pbe-nd-rrkjus.UPF
     MD5 check sum: 398036227a04b607635f6f5e8dfd8242
     Pseudo is Ultrasoft + core correction, Zval =  8.0
     Generated by new atomic code, or converted to UPF format
     Using radial grid of  957 points,  6 beta functions with: 
                l(1) =   0
                l(2) =   0
                l(3) =   1
                l(4) =   1
                l(5) =   2
                l(6) =   2
     Q(r) pseudized with 0 coefficients 


     atomic species   valence    mass     pseudopotential
        Fe             8.00    55.84500     Fe( 1.00)

     Starting magnetic structure 
     atomic species   magnetization
        Fe           0.373

     48 Sym. Ops., with inversion, found



   Cartesian axes

     site n.     atom                  positions (alat units)
         1           Fe  tau(   1) = (   0.0000000   0.0000000   0.0000000  )

     number of k points=    20  Methfessel-Paxton smearing, width (Ry)=  0.0200
                       cart. coord. in units 2pi/alat
        k(    1) = (   0.0000000   0.0000000   0.0000000), wk =   0.0029155
        k(    2) = (   0.1219482   0.1219482   0.0000000), wk =   0.0349854
        k(    3) = (   0.2438964   0.2438964   0.0000000), wk =   0.0349854
        k(    4) = (   0.3658446   0.3658446   0.0000000), wk =   0.0349854
        k(    5) = (   0.2438964   0.1219482   0.1219482), wk =   0.0699708
        k(    6) = (   0.3658446   0.2438964   0.1219482), wk =   0.1399417
        k(    7) = (   0.4877928   0.3658446   0.1219482), wk =   0.0699708
        k(    8) = (   0.4877928   0.2438964   0.2438964), wk =   0.0699708
        k(    9) = (   0.2438964   0.2438964   0.2438964), wk =   0.0233236
        k(   10) = (   0.3658446   0.3658446   0.2438964), wk =   0.0699708
        k(   11) = (  -0.0000000  -0.0000000   0.2438964), wk =   0.0174927
        k(   12) = (   0.4877928   0.3658446   0.3658446), wk =   0.0233236
        k(   13) = (   0.0000000  -0.1219482   0.3658446), wk =   0.0699708
        k(   14) = (   0.0000000  -0.2438964   0.4877928), wk =   0.0699708
        k(   15) = (   0.1219482  -0.1219482   0.4877928), wk =   0.0699708
        k(   16) = (  -0.7316892  -0.2438964  -0.2438964), wk =   0.0699708
        k(   17) = (   0.0000000   0.0000000   0.4877928), wk =   0.0174927
        k(   18) = (  -0.0000000  -0.1219482   0.6097410), wk =   0.0699708
        k(   19) = (  -0.7316892  -0.1219482  -0.1219482), wk =   0.0233236
        k(   20) = (   0.0000000   0.0000000   0.7316892), wk =   0.0174927

     Dense  grid:     4897 G-vectors     FFT dimensions: (  24,  24,  24)

     Smooth grid:     1721 G-vectors     FFT dimensions: (  18,  18,  18)

     Estimated max dynamical RAM per process >       7.81 MB

     Estimated total dynamical RAM >      31.25 MB
     Generating pointlists ...

     Initial potential from superposition of free atoms

     starting charge       7.9994, renormalised to       8.0000
     Starting wfcs are    6 randomized atomic wfcs +    2 random wfcs

     total cpu time spent up to now is        8.0 secs

     Self-consistent Calculation

     iteration #  1     ecut=    30.00 Ry     beta= 0.50
     Davidson diagonalization with overlap
     c_bands:  1 eigenvalues not converged
     c_bands:  1 eigenvalues not converged
     c_bands:  1 eigenvalues not converged
     c_bands:  1 eigenvalues not converged
     c_bands:  1 eigenvalues not converged
     c_bands:  1 eigenvalues not converged
     c_bands:  1 eigenvalues not converged
     c_bands:  1 eigenvalues not converged
     c_bands:  1 eigenvalues not converged
     ethr =  1.00E-06,  avg # of iterations = 17.4

     total cpu time spent up to now is        8.5 secs

     total energy              =     -55.67529815 Ry
     estimated scf accuracy    <       0.35659820 Ry

     total magnetization       =     2.26 Bohr mag/cell
     absolute magnetization    =     2.26 Bohr mag/cell

     iteration #  2     ecut=    30.00 Ry     beta= 0.50
     Davidson diagonalization with overlap
     ethr =  4.46E-03,  avg # of iterations =  1.9

     total cpu time spent up to now is        8.6 secs

     total energy              =     -55.77989984 Ry
     estimated scf accuracy    <       0.09576451 Ry

     total magnetization       =     2.45 Bohr mag/cell
     absolute magnetization    =     2.47 Bohr mag/cell

     iteration #  3     ecut=    30.00 Ry     beta= 0.50
     Davidson diagonalization with overlap
     ethr =  1.20E-03,  avg # of iterations =  1.0

     total cpu time spent up to now is        8.8 secs

     total energy              =     -55.80078549 Ry
     estimated scf accuracy    <       0.00178064 Ry

     total magnetization       =     2.35 Bohr mag/cell
     absolute magnetization    =     2.38 Bohr mag/cell

     iteration #  4     ecut=    30.00 Ry     beta= 0.50
     Davidson diagonalization with overlap
     ethr =  2.23E-05,  avg # of iterations =  2.2

     total cpu time spent up to now is        8.9 secs

     total energy              =     -55.80263194 Ry
     estimated scf accuracy    <       0.00017565 Ry

     total magnetization       =     2.33 Bohr mag/cell
     absolute magnetization    =     2.44 Bohr mag/cell

     iteration #  5     ecut=    30.00 Ry     beta= 0.50
     Davidson diagonalization with overlap
     ethr =  2.20E-06,  avg # of iterations =  2.9

     total cpu time spent up to now is        9.4 secs

     total energy              =     -55.80270381 Ry
     estimated scf accuracy    <       0.00003125 Ry

     total magnetization       =     2.32 Bohr mag/cell
     absolute magnetization    =     2.45 Bohr mag/cell

     iteration #  6     ecut=    30.00 Ry     beta= 0.50
     Davidson diagonalization with overlap
     ethr =  3.91E-07,  avg # of iterations =  2.9

     total cpu time spent up to now is        9.6 secs

     total energy              =     -55.80272755 Ry
     estimated scf accuracy    <       0.00000701 Ry

     total magnetization       =     2.33 Bohr mag/cell
     absolute magnetization    =     2.46 Bohr mag/cell

     iteration #  7     ecut=    30.00 Ry     beta= 0.50
     Davidson diagonalization with overlap
     ethr =  8.76E-08,  avg # of iterations =  3.7

     total cpu time spent up to now is        9.8 secs

     total energy              =     -55.80273128 Ry
     estimated scf accuracy    <       0.00001829 Ry

     total magnetization       =     2.33 Bohr mag/cell
     absolute magnetization    =     2.46 Bohr mag/cell

     iteration #  8     ecut=    30.00 Ry     beta= 0.50
     Davidson diagonalization with overlap
     ethr =  8.76E-08,  avg # of iterations =  2.1

     total cpu time spent up to now is        9.9 secs

     total energy              =     -55.80273412 Ry
     estimated scf accuracy    <       0.00000016 Ry

     total magnetization       =     2.33 Bohr mag/cell
     absolute magnetization    =     2.46 Bohr mag/cell

     iteration #  9     ecut=    30.00 Ry     beta= 0.50
     Davidson diagonalization with overlap
     ethr =  2.06E-09,  avg # of iterations =  5.2

     total cpu time spent up to now is       10.1 secs

     total energy              =     -55.80273439 Ry
     estimated scf accuracy    <       0.00000005 Ry

     total magnetization       =     2.33 Bohr mag/cell
     absolute magnetization    =     2.46 Bohr mag/cell

     iteration # 10     ecut=    30.00 Ry     beta= 0.50
     Davidson diagonalization with overlap
     ethr =  6.40E-10,  avg # of iterations =  2.4

     total cpu time spent up to now is       10.4 secs

     total energy              =     -55.80273442 Ry
     estimated scf accuracy    <          4.6E-09 Ry

     total magnetization       =     2.33 Bohr mag/cell
     absolute magnetization    =     2.47 Bohr mag/cell

     iteration # 11     ecut=    30.00 Ry     beta= 0.50
     Davidson diagonalization with overlap
     ethr =  5.73E-11,  avg # of iterations =  3.1

     Magnetic moment per site  (integrated on atomic sphere of radius R)
     atom   1 (R=0.413)  charge=  6.3850  magn=  2.3847

     total cpu time spent up to now is       10.6 secs

     End of self-consistent calculation

 ------ SPIN UP ------------


          k = 0.0000 0.0000 0.0000 (   201 PWs)   bands (ev):

     4.9992  10.9198  10.9198  10.9198  12.1032  12.1032  37.9176  37.9176

          k = 0.1219 0.1219 0.0000 (   211 PWs)   bands (ev):

     5.8182  10.7098  10.8788  11.3488  11.9464  12.1225  33.9028  36.5862

          k = 0.2439 0.2439 0.0000 (   211 PWs)   bands (ev):

     7.7075  10.2599  10.9308  11.9991  12.1905  12.4093  27.3592  33.6337

          k = 0.3658 0.3658 0.0000 (   206 PWs)   bands (ev):

     8.3949   9.9181  12.1153  12.2707  13.1840  13.3888  21.6935  31.7519

          k = 0.2439 0.1219 0.1219 (   214 PWs)   bands (ev):

     7.2562  10.5075  10.5148  11.8232  12.2095  12.3042  30.5664  31.6856

          k = 0.3658 0.2439 0.1219 (   213 PWs)   bands (ev):

     8.7199  10.0753  10.8442  12.0188  12.4285  14.0101  24.6112  28.9931

          k = 0.4878 0.3658 0.1219 (   219 PWs)   bands (ev):

     8.7791   9.9368  11.4694  12.1382  12.7789  16.0612  20.6324  28.1252

          k = 0.4878 0.2439 0.2439 (   219 PWs)   bands (ev):

     9.4694   9.9438  10.5284  12.2061  12.5234  17.4183  22.4096  23.6546

          k = 0.2439 0.2439 0.2439 (   222 PWs)   bands (ev):

     8.9289  10.0477  10.0477  12.1672  12.1672  14.0260  27.9830  27.9830

          k = 0.3658 0.3658 0.2439 (   214 PWs)   bands (ev):

     9.3970   9.8304  10.7919  12.2515  12.2932  16.8213  22.4706  26.5799

          k =-0.0000-0.0000 0.2439 (   213 PWs)   bands (ev):

     6.5831  10.9712  10.9712  11.3470  11.4100  12.3821  33.3289  35.1585

          k = 0.4878 0.3658 0.3658 (   222 PWs)   bands (ev):

     9.6794  10.2274  10.2274  12.3180  12.3180  20.7384  20.7384  22.7783

          k = 0.0000-0.1219 0.3658 (   221 PWs)   bands (ev):

     8.2794  10.5335  10.7024  11.5942  12.3189  12.8679  27.9418  32.2832

          k = 0.0000-0.2439 0.4878 (   217 PWs)   bands (ev):

     8.8275  10.4133  10.6615  11.8749  13.3308  15.1256  22.0521  30.3236

          k = 0.1219-0.1219 0.4878 (   217 PWs)   bands (ev):

     9.2857   9.8208  10.8425  11.8504  12.7961  15.1231  25.4001  26.0691

          k =-0.7317-0.2439-0.2439 (   214 PWs)   bands (ev):

     9.3140   9.9595  10.4960  12.1662  13.0785  18.4076  21.0029  24.8807

          k = 0.0000 0.0000 0.4878 (   217 PWs)   bands (ev):

     9.0744   9.8500  11.6142  11.6142  12.3369  14.3734  28.7664  28.7664

          k =-0.0000-0.1219 0.6097 (   221 PWs)   bands (ev):

     9.0894   9.3175  11.6971  12.0597  13.2038  17.6981  23.2850  26.5360

          k =-0.7317-0.1219-0.1219 (   224 PWs)   bands (ev):

     8.9669   8.9669  11.7933  13.0127  13.0127  21.6486  21.6486  22.9669

          k = 0.0000 0.0000 0.7317 (   228 PWs)   bands (ev):

     8.6312   8.6368  12.9606  12.9606  13.1580  20.8674  24.0248  24.0248

 ------ SPIN DOWN ----------


          k = 0.0000 0.0000 0.0000 (   201 PWs)   bands (ev):

     5.1112  13.1850  13.1850  13.1850  15.2276  15.2276  37.6516  37.6516

          k = 0.1219 0.1219 0.0000 (   211 PWs)   bands (ev):

     5.9397  12.9227  13.1009  13.6607  14.9907  15.2513  34.1981  36.5489

          k = 0.2439 0.2439 0.0000 (   211 PWs)   bands (ev):

     8.0620  12.3693  12.7860  14.8555  14.9050  15.3464  28.1544  33.6906

          k = 0.3658 0.3658 0.0000 (   206 PWs)   bands (ev):

     9.7127  11.9553  13.5465  15.0679  15.4684  15.9914  23.0179  31.7513

          k = 0.2439 0.1219 0.1219 (   214 PWs)   bands (ev):

     7.4504  12.6281  12.6622  14.6100  14.7546  15.3984  31.1190  32.1775

          k = 0.3658 0.2439 0.1219 (   213 PWs)   bands (ev):

     9.6089  12.1017  12.4774  14.8724  15.4790  16.2306  25.5674  29.5422

          k = 0.4878 0.3658 0.1219 (   219 PWs)   bands (ev):

    10.3057  11.9256  13.0173  15.0328  15.6030  17.5496  22.0855  28.6544

          k = 0.4878 0.2439 0.2439 (   219 PWs)   bands (ev):

    11.0598  11.7789  12.2121  15.0669  15.4443  18.9481  23.4772  24.5013

          k = 0.2439 0.2439 0.2439 (   222 PWs)   bands (ev):

     9.3498  12.0352  12.0352  15.2594  15.2594  16.2515  28.6268  28.6268

          k = 0.3658 0.3658 0.2439 (   214 PWs)   bands (ev):

    10.8445  11.7097  12.1700  15.3186  15.4918  18.4258  23.5221  27.2301

          k =-0.0000-0.0000 0.2439 (   213 PWs)   bands (ev):

     6.7274  13.1795  13.1795  13.6662  14.2903  15.5458  33.5962  35.6251

          k = 0.4878 0.3658 0.3658 (   222 PWs)   bands (ev):

    11.4083  11.8213  11.8213  15.4844  15.4844  21.8258  21.8258  23.6971

          k = 0.0000-0.1219 0.3658 (   221 PWs)   bands (ev):

     8.7163  12.7561  12.8454  14.1200  14.7499  15.8061  28.7186  32.8318

          k = 0.0000-0.2439 0.4878 (   217 PWs)   bands (ev):

    10.2803  12.4957  12.4991  14.5323  15.9235  16.8701  23.2711  30.9158

          k = 0.1219-0.1219 0.4878 (   217 PWs)   bands (ev):

    10.4406  11.9820  12.9316  14.3202  15.4171  17.0873  26.3476  26.7828

          k =-0.7317-0.2439-0.2439 (   214 PWs)   bands (ev):

    11.1495  11.8453  12.5351  14.6993  15.6715  19.6519  22.2473  25.6510

          k = 0.0000 0.0000 0.4878 (   217 PWs)   bands (ev):

    10.0891  12.2511  13.8177  13.8177  14.7904  16.5602  29.4069  29.4069

          k =-0.0000-0.1219 0.6097 (   221 PWs)   bands (ev):

    10.9248  11.3992  13.9313  14.3591  15.7761  18.9373  24.1671  27.0743

          k =-0.7317-0.1219-0.1219 (   224 PWs)   bands (ev):

    11.0087  11.0087  13.9792  15.5181  15.5181  22.4932  22.4932  23.6406

          k = 0.0000 0.0000 0.7317 (   228 PWs)   bands (ev):

    10.6447  10.7284  15.4350  15.4350  15.7320  21.4971  24.3717  24.3717

     the Fermi energy is    13.2805 ev

!    total energy              =     -55.80273442 Ry
     estimated scf accuracy    <          3.5E-11 Ry
     smearing contrib. (-TS)   =       0.00014780 Ry
     internal energy E=F+TS    =     -55.80288222 Ry

     The total energy is F=E-TS. E is the sum of the following terms:
     one-electron contribution =       7.39259415 Ry
     hartree contribution      =       6.56839535 Ry
     xc contribution           =     -26.44702914 Ry
     ewald contribution        =     -43.31684259 Ry

     total magnetization       =     2.33 Bohr mag/cell
     absolute magnetization    =     2.46 Bohr mag/cell

     convergence has been achieved in  11 iterations

     Forces acting on atoms (cartesian axes, Ry/au):

     atom    1 type  1   force =     0.00000000    0.00000000    0.00000000
     The non-local contrib.  to forces
     atom    1 type  1   force =    -0.00000000   -0.00000000   -0.00000000
     The ionic contribution  to forces
     atom    1 type  1   force =    -0.00000000   -0.00000000   -0.00000000
     The local contribution  to forces
     atom    1 type  1   force =    -0.00000000   -0.00000000   -0.00000000
     The core correction contribution to forces
     atom    1 type  1   force =    -0.00000000   -0.00000000   -0.00000000
     The Hubbard contrib.    to forces
     atom    1 type  1   force =     0.00000000    0.00000000    0.00000000
     The SCF correction term to forces
     atom    1 type  1   force =     0.00000000   -0.00000000    0.00000000

     Total force =     0.000000     Total SCF correction =     0.000000


     Computing stress (Cartesian axis) and pressure

          total   stress  (Ry/bohr**3)                   (kbar)     P=       -3.14
  -0.00002133   0.00000000   0.00000000           -3.14        0.00        0.00
   0.00000000  -0.00002133   0.00000000            0.00       -3.14        0.00
   0.00000000   0.00000000  -0.00002133            0.00        0.00       -3.14


     init_run     :      0.60s CPU      0.60s WALL (       2 calls)
     electrons    :      6.97s CPU      8.68s WALL (       6 calls)
     update_pot   :      0.33s CPU      0.30s WALL (       4 calls)
     forces       :      0.21s CPU      0.23s WALL (       6 calls)
     stress       :      0.75s CPU      0.73s WALL (       6 calls)

     Called by init_run:
     wfcinit      :      0.05s CPU      0.05s WALL (       2 calls)
     potinit      :      0.13s CPU      0.13s WALL (       2 calls)
     hinit0       :      0.41s CPU      0.41s WALL (       2 calls)

     Called by electrons:
     c_bands      :      5.34s CPU      6.92s WALL (      68 calls)
     sum_band     :      1.02s CPU      1.12s WALL (      68 calls)
     v_of_rho     :      0.35s CPU      0.35s WALL (      74 calls)
     newd         :      0.20s CPU      0.19s WALL (      74 calls)
     mix_rho      :      0.06s CPU      0.05s WALL (      68 calls)

     Called by c_bands:
     init_us_2    :      0.15s CPU      0.16s WALL (    6000 calls)
     init_us_2:cp :      0.14s CPU      0.15s WALL (    6000 calls)
     cegterg      :      4.49s CPU      4.95s WALL (    2720 calls)

     Called by *egterg:
     cdiaghg      :      0.87s CPU      0.98s WALL (    8996 calls)
     h_psi        :      2.78s CPU      2.94s WALL (    9236 calls)
     s_psi        :      0.06s CPU      0.06s WALL (    9236 calls)
     g_psi        :      0.02s CPU      0.02s WALL (    6436 calls)

     Called by h_psi:
     h_psi:calbec :      0.27s CPU      0.30s WALL (    9236 calls)
     vloc_psi     :      2.40s CPU      2.52s WALL (    9236 calls)
     add_vuspsi   :      0.07s CPU      0.07s WALL (    9236 calls)

     General routines
     calbec       :      0.36s CPU      0.40s WALL (   13156 calls)
     fft          :      0.28s CPU      0.27s WALL (    2082 calls)
     ffts         :      0.10s CPU      0.10s WALL (     284 calls)
     fftw         :      2.49s CPU      2.63s WALL (  133552 calls)
     interpolate  :      0.12s CPU      0.11s WALL (     148 calls)

     Parallel routines

     PWSCF        :      9.14s CPU     10.89s WALL


   This run was terminated on:  10:20:50  31Oct2023            

=------------------------------------------------------------------------------=
   JOB DONE.
=------------------------------------------------------------------------------=
