
     Program PWSCF v.7.2 starts on  2Nov2023 at 14:12:24 

     This program is part of the open-source Quantum ESPRESSO suite
     for quantum simulation of materials; please cite
         "P. Giannozzi et al., J. Phys.:Condens. Matter 21 395502 (2009);
         "P. Giannozzi et al., J. Phys.:Condens. Matter 29 465901 (2017);
         "P. Giannozzi et al., J. Chem. Phys. 152 154105 (2020);
          URL http://www.quantum-espresso.org", 
     in publications or presentations arising from this work. More details at
     http://www.quantum-espresso.org/quote

     Parallel version (MPI), running on     8 processors

     MPI processes distributed on     8 nodes
     184246 MiB available memory on the printing compute node when the environment starts

     Waiting for input...
     Reading input from standard input
Warning: card &CELL ignored
Warning: card / ignored

     Current dimensions of program PWSCF are:
     Max number of different atomic species (ntypx) = 10
     Max number of k-points (npk) =  40000
     Max angular momentum in pseudopotentials (lmaxx) =  4
     file Fe.pbe-nd-rrkjus.UPF: wavefunction(s)  4S renormalized
     file Fe.pbe-nd-rrkjus.UPF: wavefunction(s)  4S renormalized
     Message from routine setup:
     using ibrav=0 with symmetry is DISCOURAGED, use correct ibrav instead

     R & G space division:  proc/nbgrp/npool/nimage =       8
     Subspace diagonalization in iterative solution of the eigenvalue problem:
     a serial algorithm will be used


     Parallelization info
     --------------------
     sticks:   dense  smooth     PW     G-vecs:    dense   smooth      PW
     Min          97      49     20                 1224      434     119
     Max          98      50     21                 1225      435     120
     Sum         781     397    167                 9795     3479     955

     Using Slab Decomposition



     bravais-lattice index     =            0
     lattice parameter (alat)  =       9.3257  a.u.
     unit-cell volume          =     156.0865 (a.u.)^3
     number of atoms/cell      =            2
     number of atomic types    =            2
     number of electrons       =        16.00
     number of Kohn-Sham states=           12
     kinetic-energy cutoff     =      30.0000  Ry
     charge density cutoff     =     240.0000  Ry
     scf convergence threshold =      1.0E-07
     mixing beta               =       0.5000
     number of iterations used =            8  plain     mixing
     Exchange-correlation=  SLA  PW   PBE  PBE
                           (   1   4   3   4   0   0   0)

     celldm(1)=   9.325721  celldm(2)=   0.000000  celldm(3)=   0.000000
     celldm(4)=   0.000000  celldm(5)=   0.000000  celldm(6)=   0.000000

     crystal axes: (cart. coord. in units of alat)
               a(1) = (  -0.577350   0.577350   0.577350 )  
               a(2) = (   0.288675  -0.288675   0.288675 )  
               a(3) = (   0.288675   0.288675  -0.288675 )  

     reciprocal axes: (cart. coord. in units 2 pi/alat)
               b(1) = (  0.000000  0.866025  0.866025 )  
               b(2) = (  1.732051  0.000000  1.732051 )  
               b(3) = (  1.732051  1.732051  0.000000 )  


     PseudoPot. # 1 for Fe read from file:
     /home/gridsan/epan1/labutil/lab3_samples/pseudopotentials/Fe.pbe-nd-rrkjus.UPF
     MD5 check sum: 398036227a04b607635f6f5e8dfd8242
     Pseudo is Ultrasoft + core correction, Zval =  8.0
     Generated by new atomic code, or converted to UPF format
     Using radial grid of  957 points,  6 beta functions with: 
                l(1) =   0
                l(2) =   0
                l(3) =   1
                l(4) =   1
                l(5) =   2
                l(6) =   2
     Q(r) pseudized with 0 coefficients 


     PseudoPot. # 2 for Fe read from file:
     /home/gridsan/epan1/labutil/lab3_samples/pseudopotentials/Fe.pbe-nd-rrkjus.UPF
     MD5 check sum: 398036227a04b607635f6f5e8dfd8242
     Pseudo is Ultrasoft + core correction, Zval =  8.0
     Generated by new atomic code, or converted to UPF format
     Using radial grid of  957 points,  6 beta functions with: 
                l(1) =   0
                l(2) =   0
                l(3) =   1
                l(4) =   1
                l(5) =   2
                l(6) =   2
     Q(r) pseudized with 0 coefficients 


     atomic species   valence    mass     pseudopotential
        Fe1            8.00    55.84500     Fe( 1.00)
        Fe2            8.00    55.84500     Fe( 1.00)

     Starting magnetic structure 
     atomic species   magnetization
        Fe1          1.000
        Fe2         -1.000

      8 Sym. Ops., with inversion, found



   Cartesian axes

     site n.     atom                  positions (alat units)
         1           Fe1 tau(   1) = (   0.0000000   0.0000000   0.0000000  )
         2           Fe2 tau(   2) = (  -0.2886751   0.2886751   0.2886751  )

     number of k points=   186  Methfessel-Paxton smearing, width (Ry)=  0.0200

     Number of k-points >= 100: set verbosity='high' to print them.

     Dense  grid:     9795 G-vectors     FFT dimensions: (  45,  24,  24)

     Smooth grid:     3479 G-vectors     FFT dimensions: (  36,  18,  18)

     Estimated max dynamical RAM per process >      11.25 MB

     Estimated total dynamical RAM >      90.01 MB
     Generating pointlists ...
     new r_m :   0.2062 (alat units)  1.9234 (a.u.) for type    1
     new r_m :   0.2062 (alat units)  1.9234 (a.u.) for type    2

     Initial potential from superposition of free atoms

     starting charge      15.9987, renormalised to      16.0000
     Starting wfcs are   12 randomized atomic wfcs

     total cpu time spent up to now is        1.1 secs

     Self-consistent Calculation

     iteration #  1     ecut=    30.00 Ry     beta= 0.50
     Davidson diagonalization with overlap
     ethr =  1.00E-02,  avg # of iterations =  4.0

     total cpu time spent up to now is        3.8 secs

     total energy              =    -111.18651728 Ry
     estimated scf accuracy    <       0.93684530 Ry

     total magnetization       =     0.00 Bohr mag/cell
     absolute magnetization    =     7.21 Bohr mag/cell

     iteration #  2     ecut=    30.00 Ry     beta= 0.50
     Davidson diagonalization with overlap
     ethr =  5.86E-03,  avg # of iterations =  2.2

     total cpu time spent up to now is        5.8 secs

     total energy              =    -111.46483473 Ry
     estimated scf accuracy    <       0.15075326 Ry

     total magnetization       =     0.00 Bohr mag/cell
     absolute magnetization    =     6.35 Bohr mag/cell

     iteration #  3     ecut=    30.00 Ry     beta= 0.50
     Davidson diagonalization with overlap
     ethr =  9.42E-04,  avg # of iterations =  1.7

     total cpu time spent up to now is        7.6 secs

     total energy              =    -111.53164693 Ry
     estimated scf accuracy    <       0.05337087 Ry

     total magnetization       =    -0.01 Bohr mag/cell
     absolute magnetization    =     5.97 Bohr mag/cell

     iteration #  4     ecut=    30.00 Ry     beta= 0.50
     Davidson diagonalization with overlap
     ethr =  3.34E-04,  avg # of iterations =  2.5

     total cpu time spent up to now is        9.8 secs

     total energy              =    -111.56183001 Ry
     estimated scf accuracy    <       0.02052718 Ry

     total magnetization       =     0.10 Bohr mag/cell
     absolute magnetization    =     4.94 Bohr mag/cell

     iteration #  5     ecut=    30.00 Ry     beta= 0.50
     Davidson diagonalization with overlap
     ethr =  1.28E-04,  avg # of iterations =  1.2

     total cpu time spent up to now is       11.5 secs

     total energy              =    -111.56345633 Ry
     estimated scf accuracy    <       0.00512962 Ry

     total magnetization       =    -0.01 Bohr mag/cell
     absolute magnetization    =     4.90 Bohr mag/cell

     iteration #  6     ecut=    30.00 Ry     beta= 0.50
     Davidson diagonalization with overlap
     ethr =  3.21E-05,  avg # of iterations =  1.6

     total cpu time spent up to now is       13.3 secs

     total energy              =    -111.56280638 Ry
     estimated scf accuracy    <       0.00382327 Ry

     total magnetization       =     0.00 Bohr mag/cell
     absolute magnetization    =     4.86 Bohr mag/cell

     iteration #  7     ecut=    30.00 Ry     beta= 0.50
     Davidson diagonalization with overlap
     ethr =  2.39E-05,  avg # of iterations =  2.7

     total cpu time spent up to now is       15.9 secs

     total energy              =    -111.56553670 Ry
     estimated scf accuracy    <       0.00012677 Ry

     total magnetization       =    -0.00 Bohr mag/cell
     absolute magnetization    =     4.56 Bohr mag/cell

     iteration #  8     ecut=    30.00 Ry     beta= 0.50
     Davidson diagonalization with overlap
     c_bands:  1 eigenvalues not converged
     ethr =  7.92E-07,  avg # of iterations =  4.9

     total cpu time spent up to now is       19.0 secs

     total energy              =    -111.56567051 Ry
     estimated scf accuracy    <       0.00005271 Ry

     total magnetization       =    -0.00 Bohr mag/cell
     absolute magnetization    =     4.57 Bohr mag/cell

     iteration #  9     ecut=    30.00 Ry     beta= 0.50
     Davidson diagonalization with overlap
     ethr =  3.29E-07,  avg # of iterations =  3.8

     total cpu time spent up to now is       21.7 secs

     total energy              =    -111.56572945 Ry
     estimated scf accuracy    <       0.00001420 Ry

     total magnetization       =    -0.00 Bohr mag/cell
     absolute magnetization    =     4.54 Bohr mag/cell

     iteration # 10     ecut=    30.00 Ry     beta= 0.50
     Davidson diagonalization with overlap
     ethr =  8.87E-08,  avg # of iterations =  3.9

     total cpu time spent up to now is       24.5 secs

     total energy              =    -111.56574004 Ry
     estimated scf accuracy    <       0.00000434 Ry

     total magnetization       =    -0.00 Bohr mag/cell
     absolute magnetization    =     4.54 Bohr mag/cell

     iteration # 11     ecut=    30.00 Ry     beta= 0.50
     Davidson diagonalization with overlap
     ethr =  2.71E-08,  avg # of iterations =  3.8

     total cpu time spent up to now is       27.5 secs

     total energy              =    -111.56574288 Ry
     estimated scf accuracy    <       0.00000021 Ry

     total magnetization       =    -0.00 Bohr mag/cell
     absolute magnetization    =     4.54 Bohr mag/cell

     iteration # 12     ecut=    30.00 Ry     beta= 0.50
     Davidson diagonalization with overlap
     ethr =  1.31E-09,  avg # of iterations =  7.5

     Magnetic moment per site  (integrated on atomic sphere of radius R)
     atom   1 (R=0.206)  charge=  6.4604  magn=  2.1965
     atom   2 (R=0.206)  charge=  6.4611  magn= -2.1991

     total cpu time spent up to now is       32.1 secs

     End of self-consistent calculation

     Number of k-points >= 100: set verbosity='high' to print the bands.

     the Fermi energy is    13.6353 ev

!    total energy              =    -111.56574362 Ry
     estimated scf accuracy    <       0.00000009 Ry
     smearing contrib. (-TS)   =      -0.00037351 Ry
     internal energy E=F+TS    =    -111.56537011 Ry

     The total energy is F=E-TS. E is the sum of the following terms:
     one-electron contribution =      14.66171360 Ry
     hartree contribution      =      13.08941807 Ry
     xc contribution           =     -52.80017296 Ry
     ewald contribution        =     -86.51632882 Ry

     total magnetization       =    -0.00 Bohr mag/cell
     absolute magnetization    =     4.54 Bohr mag/cell

     convergence has been achieved in  12 iterations

     Forces acting on atoms (cartesian axes, Ry/au):

     atom    1 type  1   force =     0.00000000    0.00000000    0.00000000
     atom    2 type  2   force =    -0.00000000   -0.00000000   -0.00000000
     The non-local contrib.  to forces
     atom    1 type  1   force =     0.00000000    0.00000000    0.00000000
     atom    2 type  2   force =     0.00000000   -0.00000000   -0.00000000
     The ionic contribution  to forces
     atom    1 type  1   force =     0.00000000   -0.00000000   -0.00000000
     atom    2 type  2   force =    -0.00000000    0.00000000   -0.00000000
     The local contribution  to forces
     atom    1 type  1   force =    -0.00000000   -0.00000000   -0.00000000
     atom    2 type  2   force =     0.00000000   -0.00000000   -0.00000000
     The core correction contribution to forces
     atom    1 type  1   force =    -0.00000000    0.00000000    0.00000000
     atom    2 type  2   force =     0.00000000   -0.00000000   -0.00000000
     The Hubbard contrib.    to forces
     atom    1 type  1   force =     0.00000000    0.00000000    0.00000000
     atom    2 type  2   force =     0.00000000    0.00000000    0.00000000
     The SCF correction term to forces
     atom    1 type  1   force =    -0.00000000    0.00000000   -0.00000000
     atom    2 type  2   force =    -0.00000000   -0.00000000   -0.00000000

     Total force =     0.000000     Total SCF correction =     0.000000


     Computing stress (Cartesian axis) and pressure

          total   stress  (Ry/bohr**3)                   (kbar)     P=      -15.53
   0.00023843  -0.00000000  -0.00000000           35.07       -0.00       -0.00
  -0.00000000  -0.00027753   0.00045577           -0.00      -40.83       67.05
  -0.00000000   0.00045577  -0.00027753           -0.00       67.05      -40.83


     init_run     :      0.77s CPU      0.81s WALL (       1 calls)
     electrons    :     33.62s CPU     31.05s WALL (       1 calls)
     forces       :      0.16s CPU      0.21s WALL (       1 calls)
     stress       :      0.71s CPU      0.73s WALL (       1 calls)

     Called by init_run:
     wfcinit      :      0.43s CPU      0.46s WALL (       1 calls)
     potinit      :      0.13s CPU      0.13s WALL (       1 calls)
     hinit0       :      0.20s CPU      0.20s WALL (       1 calls)

     Called by electrons:
     c_bands      :     30.70s CPU     28.08s WALL (      12 calls)
     sum_band     :      2.73s CPU      2.74s WALL (      12 calls)
     v_of_rho     :      0.08s CPU      0.10s WALL (      13 calls)
     newd         :      0.07s CPU      0.07s WALL (      13 calls)
     mix_rho      :      0.03s CPU      0.03s WALL (      12 calls)

     Called by c_bands:
     init_us_2    :      0.46s CPU      0.44s WALL (   10044 calls)
     init_us_2:cp :      0.45s CPU      0.42s WALL (   10044 calls)
     cegterg      :     27.83s CPU     24.69s WALL (    4464 calls)

     Called by *egterg:
     cdiaghg      :      5.76s CPU      5.15s WALL (   19263 calls)
     h_psi        :     18.45s CPU     16.40s WALL (   19635 calls)
     s_psi        :      0.51s CPU      0.44s WALL (   19635 calls)
     g_psi        :      0.07s CPU      0.06s WALL (   14799 calls)

     Called by h_psi:
     h_psi:calbec :      1.34s CPU      1.20s WALL (   19635 calls)
     vloc_psi     :     16.56s CPU     14.70s WALL (   19635 calls)
     add_vuspsi   :      0.41s CPU      0.37s WALL (   19635 calls)

     General routines
     calbec       :      1.70s CPU      1.57s WALL (   25959 calls)
     fft          :      0.17s CPU      0.18s WALL (     363 calls)
     ffts         :      0.12s CPU      0.12s WALL (      50 calls)
     fftw         :     16.75s CPU     15.05s WALL (  371002 calls)
     interpolate  :      0.12s CPU      0.12s WALL (      26 calls)

     Parallel routines

     PWSCF        :     35.56s CPU     33.11s WALL


   This run was terminated on:  14:12:57   2Nov2023            

=------------------------------------------------------------------------------=
   JOB DONE.
=------------------------------------------------------------------------------=
