
     Program PWSCF v.7.2 starts on  2Nov2023 at 14:21:12 

     This program is part of the open-source Quantum ESPRESSO suite
     for quantum simulation of materials; please cite
         "P. Giannozzi et al., J. Phys.:Condens. Matter 21 395502 (2009);
         "P. Giannozzi et al., J. Phys.:Condens. Matter 29 465901 (2017);
         "P. Giannozzi et al., J. Chem. Phys. 152 154105 (2020);
          URL http://www.quantum-espresso.org", 
     in publications or presentations arising from this work. More details at
     http://www.quantum-espresso.org/quote

     Parallel version (MPI), running on     8 processors

     MPI processes distributed on     8 nodes
     186088 MiB available memory on the printing compute node when the environment starts

     Waiting for input...
     Reading input from standard input
Warning: card &CELL ignored
Warning: card / ignored

     Current dimensions of program PWSCF are:
     Max number of different atomic species (ntypx) = 10
     Max number of k-points (npk) =  40000
     Max angular momentum in pseudopotentials (lmaxx) =  4
     file Fe.pbe-nd-rrkjus.UPF: wavefunction(s)  4S renormalized
     Found identity + ( -0.5000  0.0000  0.0000) symmetry
     This is a supercell, fractional translations are disabled
     Message from routine setup:
     using ibrav=0 with symmetry is DISCOURAGED, use correct ibrav instead

     R & G space division:  proc/nbgrp/npool/nimage =       8
     Subspace diagonalization in iterative solution of the eigenvalue problem:
     a serial algorithm will be used


     Parallelization info
     --------------------
     sticks:   dense  smooth     PW     G-vecs:    dense   smooth      PW
     Min          97      49     20                 1224      434     119
     Max          98      50     21                 1225      435     120
     Sum         781     397    167                 9795     3479     955

     Using Slab Decomposition



     bravais-lattice index     =            0
     lattice parameter (alat)  =       9.3257  a.u.
     unit-cell volume          =     156.0865 (a.u.)^3
     number of atoms/cell      =            2
     number of atomic types    =            1
     number of electrons       =        16.00
     number of Kohn-Sham states=           12
     kinetic-energy cutoff     =      30.0000  Ry
     charge density cutoff     =     240.0000  Ry
     scf convergence threshold =      1.0E-07
     mixing beta               =       0.5000
     number of iterations used =            8  plain     mixing
     Exchange-correlation=  SLA  PW   PBE  PBE
                           (   1   4   3   4   0   0   0)

     celldm(1)=   9.325721  celldm(2)=   0.000000  celldm(3)=   0.000000
     celldm(4)=   0.000000  celldm(5)=   0.000000  celldm(6)=   0.000000

     crystal axes: (cart. coord. in units of alat)
               a(1) = (  -0.577350   0.577350   0.577350 )  
               a(2) = (   0.288675  -0.288675   0.288675 )  
               a(3) = (   0.288675   0.288675  -0.288675 )  

     reciprocal axes: (cart. coord. in units 2 pi/alat)
               b(1) = (  0.000000  0.866025  0.866025 )  
               b(2) = (  1.732051  0.000000  1.732051 )  
               b(3) = (  1.732051  1.732051  0.000000 )  


     PseudoPot. # 1 for Fe read from file:
     /home/gridsan/epan1/labutil/lab3_samples/pseudopotentials/Fe.pbe-nd-rrkjus.UPF
     MD5 check sum: 398036227a04b607635f6f5e8dfd8242
     Pseudo is Ultrasoft + core correction, Zval =  8.0
     Generated by new atomic code, or converted to UPF format
     Using radial grid of  957 points,  6 beta functions with: 
                l(1) =   0
                l(2) =   0
                l(3) =   1
                l(4) =   1
                l(5) =   2
                l(6) =   2
     Q(r) pseudized with 0 coefficients 


     atomic species   valence    mass     pseudopotential
        Fe             8.00    55.84500     Fe( 1.00)

     Starting magnetic structure 
     atomic species   magnetization
        Fe           1.000

      8 Sym. Ops., with inversion, found



   Cartesian axes

     site n.     atom                  positions (alat units)
         1           Fe  tau(   1) = (   0.0000000   0.0000000   0.0000000  )
         2           Fe  tau(   2) = (  -0.2886751   0.2886751   0.2886751  )

     number of k points=   186  Methfessel-Paxton smearing, width (Ry)=  0.0200

     Number of k-points >= 100: set verbosity='high' to print them.

     Dense  grid:     9795 G-vectors     FFT dimensions: (  45,  24,  24)

     Smooth grid:     3479 G-vectors     FFT dimensions: (  36,  18,  18)

     Estimated max dynamical RAM per process >       9.97 MB

     Estimated total dynamical RAM >      79.76 MB
     Generating pointlists ...
     new r_m :   0.2062 (alat units)  1.9234 (a.u.) for type    1

     Initial potential from superposition of free atoms

     starting charge      15.9987, renormalised to      16.0000
     Starting wfcs are   12 randomized atomic wfcs

     total cpu time spent up to now is        0.9 secs

     Self-consistent Calculation

     iteration #  1     ecut=    30.00 Ry     beta= 0.50
     Davidson diagonalization with overlap
     ethr =  1.00E-02,  avg # of iterations =  3.8

     total cpu time spent up to now is        3.0 secs

     total energy              =    -111.15557724 Ry
     estimated scf accuracy    <       0.97952385 Ry

     total magnetization       =     6.97 Bohr mag/cell
     absolute magnetization    =     6.98 Bohr mag/cell

     iteration #  2     ecut=    30.00 Ry     beta= 0.50
     Davidson diagonalization with overlap
     ethr =  6.12E-03,  avg # of iterations =  2.0

     total cpu time spent up to now is        4.8 secs

     total energy              =    -111.48750709 Ry
     estimated scf accuracy    <       0.17760784 Ry

     total magnetization       =     6.19 Bohr mag/cell
     absolute magnetization    =     6.21 Bohr mag/cell

     iteration #  3     ecut=    30.00 Ry     beta= 0.50
     Davidson diagonalization with overlap
     ethr =  1.11E-03,  avg # of iterations =  1.1

     total cpu time spent up to now is        6.3 secs

     total energy              =    -111.58150854 Ry
     estimated scf accuracy    <       0.05873082 Ry

     total magnetization       =     5.72 Bohr mag/cell
     absolute magnetization    =     5.86 Bohr mag/cell

     iteration #  4     ecut=    30.00 Ry     beta= 0.50
     Davidson diagonalization with overlap
     ethr =  3.67E-04,  avg # of iterations =  1.3

     total cpu time spent up to now is        7.8 secs

     total energy              =    -111.59199214 Ry
     estimated scf accuracy    <       0.18546626 Ry

     total magnetization       =     4.80 Bohr mag/cell
     absolute magnetization    =     5.15 Bohr mag/cell

     iteration #  5     ecut=    30.00 Ry     beta= 0.50
     Davidson diagonalization with overlap
     ethr =  3.67E-04,  avg # of iterations =  1.1

     total cpu time spent up to now is        9.3 secs

     total energy              =    -111.60021528 Ry
     estimated scf accuracy    <       0.00646077 Ry

     total magnetization       =     4.80 Bohr mag/cell
     absolute magnetization    =     5.17 Bohr mag/cell

     iteration #  6     ecut=    30.00 Ry     beta= 0.50
     Davidson diagonalization with overlap
     ethr =  4.04E-05,  avg # of iterations =  2.5

     total cpu time spent up to now is       11.2 secs

     total energy              =    -111.60268832 Ry
     estimated scf accuracy    <       0.00143593 Ry

     total magnetization       =     4.75 Bohr mag/cell
     absolute magnetization    =     5.10 Bohr mag/cell

     iteration #  7     ecut=    30.00 Ry     beta= 0.50
     Davidson diagonalization with overlap
     ethr =  8.97E-06,  avg # of iterations =  1.8

     total cpu time spent up to now is       13.0 secs

     total energy              =    -111.60328638 Ry
     estimated scf accuracy    <       0.00009611 Ry

     total magnetization       =     4.67 Bohr mag/cell
     absolute magnetization    =     5.00 Bohr mag/cell

     iteration #  8     ecut=    30.00 Ry     beta= 0.50
     Davidson diagonalization with overlap
     c_bands:  1 eigenvalues not converged
     ethr =  6.01E-07,  avg # of iterations =  4.5

     total cpu time spent up to now is       15.7 secs

     total energy              =    -111.60330731 Ry
     estimated scf accuracy    <       0.00016906 Ry

     total magnetization       =     4.63 Bohr mag/cell
     absolute magnetization    =     4.96 Bohr mag/cell

     iteration #  9     ecut=    30.00 Ry     beta= 0.50
     Davidson diagonalization with overlap
     ethr =  6.01E-07,  avg # of iterations =  2.6

     total cpu time spent up to now is       17.5 secs

     total energy              =    -111.60341343 Ry
     estimated scf accuracy    <       0.00000881 Ry

     total magnetization       =     4.59 Bohr mag/cell
     absolute magnetization    =     4.91 Bohr mag/cell

     iteration # 10     ecut=    30.00 Ry     beta= 0.50
     Davidson diagonalization with overlap
     ethr =  5.51E-08,  avg # of iterations =  5.0

     total cpu time spent up to now is       20.2 secs

     total energy              =    -111.60341574 Ry
     estimated scf accuracy    <       0.00002056 Ry

     total magnetization       =     4.59 Bohr mag/cell
     absolute magnetization    =     4.91 Bohr mag/cell

     iteration # 11     ecut=    30.00 Ry     beta= 0.50
     Davidson diagonalization with overlap
     ethr =  5.51E-08,  avg # of iterations =  3.0

     total cpu time spent up to now is       22.2 secs

     total energy              =    -111.60342218 Ry
     estimated scf accuracy    <       0.00000011 Ry

     total magnetization       =     4.59 Bohr mag/cell
     absolute magnetization    =     4.90 Bohr mag/cell

     iteration # 12     ecut=    30.00 Ry     beta= 0.50
     Davidson diagonalization with overlap
     ethr =  6.99E-10,  avg # of iterations =  8.7

     total cpu time spent up to now is       26.7 secs

     total energy              =    -111.60342293 Ry
     estimated scf accuracy    <       0.00000012 Ry

     total magnetization       =     4.59 Bohr mag/cell
     absolute magnetization    =     4.90 Bohr mag/cell

     iteration # 13     ecut=    30.00 Ry     beta= 0.50
     Davidson diagonalization with overlap
     ethr =  6.99E-10,  avg # of iterations =  2.1

     Magnetic moment per site  (integrated on atomic sphere of radius R)
     atom   1 (R=0.206)  charge=  6.4679  magn=  2.3632
     atom   2 (R=0.206)  charge=  6.4683  magn=  2.3640

     total cpu time spent up to now is       28.5 secs

     End of self-consistent calculation

     Number of k-points >= 100: set verbosity='high' to print the bands.

     the Fermi energy is    13.2107 ev

!    total energy              =    -111.60342303 Ry
     estimated scf accuracy    <       0.00000001 Ry
     smearing contrib. (-TS)   =      -0.00002573 Ry
     internal energy E=F+TS    =    -111.60339729 Ry

     The total energy is F=E-TS. E is the sum of the following terms:
     one-electron contribution =      14.61412334 Ry
     hartree contribution      =      13.18531203 Ry
     xc contribution           =     -52.88650383 Ry
     ewald contribution        =     -86.51632882 Ry

     total magnetization       =     4.59 Bohr mag/cell
     absolute magnetization    =     4.90 Bohr mag/cell

     convergence has been achieved in  13 iterations

     Forces acting on atoms (cartesian axes, Ry/au):

     atom    1 type  1   force =     0.00000000   -0.00000000   -0.00000000
     atom    2 type  1   force =    -0.00000000    0.00000000    0.00000000
     The non-local contrib.  to forces
     atom    1 type  1   force =     0.00000000    0.00000000    0.00000000
     atom    2 type  1   force =    -0.00000000    0.00000000   -0.00000000
     The ionic contribution  to forces
     atom    1 type  1   force =     0.00000000   -0.00000000   -0.00000000
     atom    2 type  1   force =    -0.00000000    0.00000000   -0.00000000
     The local contribution  to forces
     atom    1 type  1   force =    -0.00000000   -0.00000000   -0.00000000
     atom    2 type  1   force =     0.00000000   -0.00000000   -0.00000000
     The core correction contribution to forces
     atom    1 type  1   force =    -0.00000000    0.00000000    0.00000000
     atom    2 type  1   force =     0.00000000   -0.00000000   -0.00000000
     The Hubbard contrib.    to forces
     atom    1 type  1   force =     0.00000000    0.00000000    0.00000000
     atom    2 type  1   force =     0.00000000    0.00000000    0.00000000
     The SCF correction term to forces
     atom    1 type  1   force =     0.00000000   -0.00000000   -0.00000000
     atom    2 type  1   force =     0.00000000   -0.00000000    0.00000000

     Total force =     0.000000     Total SCF correction =     0.000000


     Computing stress (Cartesian axis) and pressure

          total   stress  (Ry/bohr**3)                   (kbar)     P=      -14.88
  -0.00011536   0.00000000  -0.00000000          -16.97        0.00       -0.00
  -0.00000000  -0.00009405   0.00002384           -0.00      -13.84        3.51
  -0.00000000   0.00002384  -0.00009405           -0.00        3.51      -13.84


     init_run     :      0.70s CPU      0.76s WALL (       1 calls)
     electrons    :     28.42s CPU     27.53s WALL (       1 calls)
     forces       :      0.16s CPU      0.18s WALL (       1 calls)
     stress       :      0.66s CPU      0.69s WALL (       1 calls)

     Called by init_run:
     wfcinit      :      0.42s CPU      0.45s WALL (       1 calls)
     potinit      :      0.12s CPU      0.12s WALL (       1 calls)
     hinit0       :      0.15s CPU      0.17s WALL (       1 calls)

     Called by electrons:
     c_bands      :     25.49s CPU     24.51s WALL (      13 calls)
     sum_band     :      2.67s CPU      2.59s WALL (      13 calls)
     v_of_rho     :      0.12s CPU      0.27s WALL (      14 calls)
     newd         :      0.04s CPU      0.05s WALL (      14 calls)
     mix_rho      :      0.04s CPU      0.04s WALL (      13 calls)

     Called by c_bands:
     init_us_2    :      0.30s CPU      0.28s WALL (   10788 calls)
     init_us_2:cp :      0.29s CPU      0.27s WALL (   10788 calls)
     cegterg      :     22.31s CPU     19.99s WALL (    4836 calls)

     Called by *egterg:
     cdiaghg      :      3.62s CPU      3.26s WALL (   19442 calls)
     h_psi        :     15.42s CPU     13.87s WALL (   19814 calls)
     s_psi        :      0.26s CPU      0.24s WALL (   19814 calls)
     g_psi        :      0.04s CPU      0.04s WALL (   14606 calls)

     Called by h_psi:
     h_psi:calbec :      1.35s CPU      1.20s WALL (   19814 calls)
     vloc_psi     :     13.69s CPU     12.31s WALL (   19814 calls)
     add_vuspsi   :      0.29s CPU      0.26s WALL (   19814 calls)

     General routines
     calbec       :      1.95s CPU      1.79s WALL (   26510 calls)
     fft          :      0.18s CPU      0.19s WALL (     388 calls)
     ffts         :      0.12s CPU      0.12s WALL (      54 calls)
     fftw         :     14.36s CPU     13.01s WALL (  395332 calls)
     interpolate  :      0.12s CPU      0.12s WALL (      28 calls)

     Parallel routines

     PWSCF        :     30.27s CPU     29.55s WALL


   This run was terminated on:  14:21:41   2Nov2023            

=------------------------------------------------------------------------------=
   JOB DONE.
=------------------------------------------------------------------------------=
