
     Program PWSCF v.7.2 starts on  2Nov2023 at 14:22:55 

     This program is part of the open-source Quantum ESPRESSO suite
     for quantum simulation of materials; please cite
         "P. Giannozzi et al., J. Phys.:Condens. Matter 21 395502 (2009);
         "P. Giannozzi et al., J. Phys.:Condens. Matter 29 465901 (2017);
         "P. Giannozzi et al., J. Chem. Phys. 152 154105 (2020);
          URL http://www.quantum-espresso.org", 
     in publications or presentations arising from this work. More details at
     http://www.quantum-espresso.org/quote

     Parallel version (MPI), running on     8 processors

     MPI processes distributed on     8 nodes
     156424 MiB available memory on the printing compute node when the environment starts

     Waiting for input...
     Reading input from standard input
Warning: card &CELL ignored
Warning: card / ignored

     Current dimensions of program PWSCF are:
     Max number of different atomic species (ntypx) = 10
     Max number of k-points (npk) =  40000
     Max angular momentum in pseudopotentials (lmaxx) =  4
     file Fe.pbe-nd-rrkjus.UPF: wavefunction(s)  4S renormalized
     Found identity + ( -0.5000  0.0000  0.0000) symmetry
     This is a supercell, fractional translations are disabled
     Message from routine setup:
     using ibrav=0 with symmetry is DISCOURAGED, use correct ibrav instead

     R & G space division:  proc/nbgrp/npool/nimage =       8
     Subspace diagonalization in iterative solution of the eigenvalue problem:
     a serial algorithm will be used


     Parallelization info
     --------------------
     sticks:   dense  smooth     PW     G-vecs:    dense   smooth      PW
     Min          97      49     20                 1224      434     119
     Max          98      50     21                 1225      435     120
     Sum         781     397    167                 9795     3479     955

     Using Slab Decomposition



     bravais-lattice index     =            0
     lattice parameter (alat)  =       9.3257  a.u.
     unit-cell volume          =     156.0865 (a.u.)^3
     number of atoms/cell      =            2
     number of atomic types    =            1
     number of electrons       =        16.00
     number of Kohn-Sham states=           12
     kinetic-energy cutoff     =      30.0000  Ry
     charge density cutoff     =     240.0000  Ry
     scf convergence threshold =      1.0E-07
     mixing beta               =       0.5000
     number of iterations used =            8  plain     mixing
     Exchange-correlation=  SLA  PW   PBE  PBE
                           (   1   4   3   4   0   0   0)

     celldm(1)=   9.325721  celldm(2)=   0.000000  celldm(3)=   0.000000
     celldm(4)=   0.000000  celldm(5)=   0.000000  celldm(6)=   0.000000

     crystal axes: (cart. coord. in units of alat)
               a(1) = (  -0.577350   0.577350   0.577350 )  
               a(2) = (   0.288675  -0.288675   0.288675 )  
               a(3) = (   0.288675   0.288675  -0.288675 )  

     reciprocal axes: (cart. coord. in units 2 pi/alat)
               b(1) = (  0.000000  0.866025  0.866025 )  
               b(2) = (  1.732051  0.000000  1.732051 )  
               b(3) = (  1.732051  1.732051  0.000000 )  


     PseudoPot. # 1 for Fe read from file:
     /home/gridsan/epan1/labutil/lab3_samples/pseudopotentials/Fe.pbe-nd-rrkjus.UPF
     MD5 check sum: 398036227a04b607635f6f5e8dfd8242
     Pseudo is Ultrasoft + core correction, Zval =  8.0
     Generated by new atomic code, or converted to UPF format
     Using radial grid of  957 points,  6 beta functions with: 
                l(1) =   0
                l(2) =   0
                l(3) =   1
                l(4) =   1
                l(5) =   2
                l(6) =   2
     Q(r) pseudized with 0 coefficients 


     atomic species   valence    mass     pseudopotential
        Fe             8.00    55.84500     Fe( 1.00)

      8 Sym. Ops., with inversion, found



   Cartesian axes

     site n.     atom                  positions (alat units)
         1           Fe  tau(   1) = (   0.0000000   0.0000000   0.0000000  )
         2           Fe  tau(   2) = (  -0.2886751   0.2886751   0.2886751  )

     number of k points=   186  Methfessel-Paxton smearing, width (Ry)=  0.0200

     Number of k-points >= 100: set verbosity='high' to print them.

     Dense  grid:     9795 G-vectors     FFT dimensions: (  45,  24,  24)

     Smooth grid:     3479 G-vectors     FFT dimensions: (  36,  18,  18)

     Estimated max dynamical RAM per process >       7.61 MB

     Estimated total dynamical RAM >      60.85 MB

     Initial potential from superposition of free atoms

     starting charge      15.9987, renormalised to      16.0000
     Starting wfcs are   12 randomized atomic wfcs

     total cpu time spent up to now is        0.7 secs

     Self-consistent Calculation

     iteration #  1     ecut=    30.00 Ry     beta= 0.50
     Davidson diagonalization with overlap
     ethr =  1.00E-02,  avg # of iterations =  3.7

     total cpu time spent up to now is        1.9 secs

     total energy              =    -111.28470580 Ry
     estimated scf accuracy    <       0.69943263 Ry

     iteration #  2     ecut=    30.00 Ry     beta= 0.50
     Davidson diagonalization with overlap
     ethr =  4.37E-03,  avg # of iterations =  2.2

     total cpu time spent up to now is        3.0 secs

     total energy              =    -111.48520333 Ry
     estimated scf accuracy    <       0.09349847 Ry

     iteration #  3     ecut=    30.00 Ry     beta= 0.50
     Davidson diagonalization with overlap
     ethr =  5.84E-04,  avg # of iterations =  1.3

     total cpu time spent up to now is        3.9 secs

     total energy              =    -111.50068112 Ry
     estimated scf accuracy    <       0.00210550 Ry

     iteration #  4     ecut=    30.00 Ry     beta= 0.50
     Davidson diagonalization with overlap
     ethr =  1.32E-05,  avg # of iterations =  3.9

     total cpu time spent up to now is        5.2 secs

     total energy              =    -111.50071915 Ry
     estimated scf accuracy    <       0.08635579 Ry

     iteration #  5     ecut=    30.00 Ry     beta= 0.50
     Davidson diagonalization with overlap
     ethr =  1.32E-05,  avg # of iterations =  2.0

     total cpu time spent up to now is        6.2 secs

     total energy              =    -111.50204288 Ry
     estimated scf accuracy    <       0.00162814 Ry

     iteration #  6     ecut=    30.00 Ry     beta= 0.50
     Davidson diagonalization with overlap
     ethr =  1.02E-05,  avg # of iterations =  1.1

     total cpu time spent up to now is        7.1 secs

     total energy              =    -111.50219936 Ry
     estimated scf accuracy    <       0.00013187 Ry

     iteration #  7     ecut=    30.00 Ry     beta= 0.50
     Davidson diagonalization with overlap
     ethr =  8.24E-07,  avg # of iterations =  3.1

     total cpu time spent up to now is        8.3 secs

     total energy              =    -111.50221988 Ry
     estimated scf accuracy    <       0.00005165 Ry

     iteration #  8     ecut=    30.00 Ry     beta= 0.50
     Davidson diagonalization with overlap
     ethr =  3.23E-07,  avg # of iterations =  2.1

     total cpu time spent up to now is        9.2 secs

     total energy              =    -111.50222525 Ry
     estimated scf accuracy    <       0.00001039 Ry

     iteration #  9     ecut=    30.00 Ry     beta= 0.50
     Davidson diagonalization with overlap
     ethr =  6.50E-08,  avg # of iterations =  4.3

     total cpu time spent up to now is       10.7 secs

     total energy              =    -111.50223006 Ry
     estimated scf accuracy    <       0.00000091 Ry

     iteration # 10     ecut=    30.00 Ry     beta= 0.50
     Davidson diagonalization with overlap
     ethr =  5.67E-09,  avg # of iterations =  7.0

     total cpu time spent up to now is       13.2 secs

     total energy              =    -111.50223152 Ry
     estimated scf accuracy    <       0.00000016 Ry

     iteration # 11     ecut=    30.00 Ry     beta= 0.50
     Davidson diagonalization with overlap
     ethr =  9.71E-10,  avg # of iterations =  3.8

     total cpu time spent up to now is       14.5 secs

     End of self-consistent calculation

     Number of k-points >= 100: set verbosity='high' to print the bands.

     the Fermi energy is    13.3245 ev

!    total energy              =    -111.50223155 Ry
     estimated scf accuracy    <       0.00000002 Ry
     smearing contrib. (-TS)   =      -0.00202627 Ry
     internal energy E=F+TS    =    -111.50020529 Ry

     The total energy is F=E-TS. E is the sum of the following terms:
     one-electron contribution =      14.52550206 Ry
     hartree contribution      =      13.03560179 Ry
     xc contribution           =     -52.54498031 Ry
     ewald contribution        =     -86.51632882 Ry

     convergence has been achieved in  11 iterations

     Forces acting on atoms (cartesian axes, Ry/au):

     atom    1 type  1   force =     0.00000000    0.00000000    0.00000000
     atom    2 type  1   force =     0.00000000    0.00000000    0.00000000
     The non-local contrib.  to forces
     atom    1 type  1   force =     0.00000000    0.00000000    0.00000000
     atom    2 type  1   force =     0.00000000    0.00000000    0.00000000
     The ionic contribution  to forces
     atom    1 type  1   force =     0.00000000   -0.00000000   -0.00000000
     atom    2 type  1   force =    -0.00000000    0.00000000   -0.00000000
     The local contribution  to forces
     atom    1 type  1   force =     0.00000000   -0.00000000   -0.00000000
     atom    2 type  1   force =     0.00000000   -0.00000000   -0.00000000
     The core correction contribution to forces
     atom    1 type  1   force =    -0.00000000    0.00000000    0.00000000
     atom    2 type  1   force =     0.00000000   -0.00000000   -0.00000000
     The Hubbard contrib.    to forces
     atom    1 type  1   force =     0.00000000    0.00000000    0.00000000
     atom    2 type  1   force =     0.00000000    0.00000000    0.00000000
     The SCF correction term to forces
     atom    1 type  1   force =     0.00000000   -0.00000000   -0.00000000
     atom    2 type  1   force =     0.00000000    0.00000000   -0.00000000

     Total force =     0.000000     Total SCF correction =     0.000000


     Computing stress (Cartesian axis) and pressure

          total   stress  (Ry/bohr**3)                   (kbar)     P=     -210.86
  -0.00143347   0.00000000   0.00000000         -210.87        0.00        0.00
   0.00000000  -0.00143340  -0.00001097            0.00     -210.86       -1.61
   0.00000000  -0.00001097  -0.00143340            0.00       -1.61     -210.86


     init_run     :      0.51s CPU      0.53s WALL (       1 calls)
     electrons    :     15.16s CPU     13.79s WALL (       1 calls)
     forces       :      0.10s CPU      0.13s WALL (       1 calls)
     stress       :      0.37s CPU      0.39s WALL (       1 calls)

     Called by init_run:
     wfcinit      :      0.21s CPU      0.23s WALL (       1 calls)
     potinit      :      0.12s CPU      0.12s WALL (       1 calls)
     hinit0       :      0.16s CPU      0.17s WALL (       1 calls)

     Called by electrons:
     c_bands      :     13.50s CPU     12.29s WALL (      11 calls)
     sum_band     :      1.57s CPU      1.40s WALL (      11 calls)
     v_of_rho     :      0.04s CPU      0.04s WALL (      12 calls)
     newd         :      0.03s CPU      0.03s WALL (      12 calls)
     mix_rho      :      0.02s CPU      0.02s WALL (      11 calls)

     Called by c_bands:
     init_us_2    :      0.21s CPU      0.19s WALL (    4650 calls)
     init_us_2:cp :      0.20s CPU      0.18s WALL (    4650 calls)
     cegterg      :     12.41s CPU     11.09s WALL (    2046 calls)

     Called by *egterg:
     cdiaghg      :      2.49s CPU      2.25s WALL (    8487 calls)
     h_psi        :      8.31s CPU      7.44s WALL (    8673 calls)
     s_psi        :      0.23s CPU      0.20s WALL (    8673 calls)
     g_psi        :      0.03s CPU      0.03s WALL (    6441 calls)

     Called by h_psi:
     h_psi:calbec :      0.67s CPU      0.60s WALL (    8673 calls)
     vloc_psi     :      7.39s CPU      6.61s WALL (    8673 calls)
     add_vuspsi   :      0.19s CPU      0.18s WALL (    8673 calls)

     General routines
     calbec       :      0.87s CPU      0.79s WALL (   11649 calls)
     fft          :      0.16s CPU      0.16s WALL (     179 calls)
     ffts         :      0.12s CPU      0.12s WALL (      23 calls)
     fftw         :      7.73s CPU      6.88s WALL (  170186 calls)
     interpolate  :      0.12s CPU      0.12s WALL (      12 calls)

     Parallel routines

     PWSCF        :     16.33s CPU     15.28s WALL


   This run was terminated on:  14:23:10   2Nov2023            

=------------------------------------------------------------------------------=
   JOB DONE.
=------------------------------------------------------------------------------=
