
     Program PWSCF v.7.2 starts on  3Nov2023 at 10:53:19 

     This program is part of the open-source Quantum ESPRESSO suite
     for quantum simulation of materials; please cite
         "P. Giannozzi et al., J. Phys.:Condens. Matter 21 395502 (2009);
         "P. Giannozzi et al., J. Phys.:Condens. Matter 29 465901 (2017);
         "P. Giannozzi et al., J. Chem. Phys. 152 154105 (2020);
          URL http://www.quantum-espresso.org", 
     in publications or presentations arising from this work. More details at
     http://www.quantum-espresso.org/quote

     Parallel version (MPI), running on     8 processors

     MPI processes distributed on     8 nodes
     185900 MiB available memory on the printing compute node when the environment starts

     Waiting for input...
     Reading input from standard input

     Current dimensions of program PWSCF are:
     Max number of different atomic species (ntypx) = 10
     Max number of k-points (npk) =  40000
     Max angular momentum in pseudopotentials (lmaxx) =  4
     file Cu.pz-d-rrkjus.UPF: wavefunction(s)  3D renormalized
     Message from routine setup:
     using ibrav=0 with symmetry is DISCOURAGED, use correct ibrav instead

     R & G space division:  proc/nbgrp/npool/nimage =       8
     Subspace diagonalization in iterative solution of the eigenvalue problem:
     a serial algorithm will be used


     Parallelization info
     --------------------
     sticks:   dense  smooth     PW     G-vecs:    dense   smooth      PW
     Min          59      30     10                  858      305      65
     Max          60      31     11                  861      308      68
     Sum         475     241     85                 6879     2445     531

     Using Slab Decomposition



     bravais-lattice index     =            0
     lattice parameter (alat)  =       4.6768  a.u.
     unit-cell volume          =      72.3337 (a.u.)^3
     number of atoms/cell      =            1
     number of atomic types    =            1
     number of electrons       =        11.00
     number of Kohn-Sham states=           10
     kinetic-energy cutoff     =      40.0000  Ry
     charge density cutoff     =     320.0000  Ry
     scf convergence threshold =      1.0E-07
     mixing beta               =       0.5000
     number of iterations used =            8  plain     mixing
     energy convergence thresh.=      1.0E-04
     force convergence thresh. =      1.0E-03
     press convergence thresh. =      5.0E-01
     Exchange-correlation=  SLA  PZ   NOGX NOGC
                           (   1   1   0   0   0   0   0)
     nstep                     =           50


     celldm(1)=   4.676834  celldm(2)=   0.000000  celldm(3)=   0.000000
     celldm(4)=   0.000000  celldm(5)=   0.000000  celldm(6)=   0.000000

     crystal axes: (cart. coord. in units of alat)
               a(1) = (   0.000000   0.707107   0.707107 )  
               a(2) = (   0.707107   0.000000   0.707107 )  
               a(3) = (   0.707107   0.707107   0.000000 )  

     reciprocal axes: (cart. coord. in units 2 pi/alat)
               b(1) = ( -0.707107  0.707107  0.707107 )  
               b(2) = (  0.707107 -0.707107  0.707107 )  
               b(3) = (  0.707107  0.707107 -0.707107 )  


     PseudoPot. # 1 for Cu read from file:
     /home/gridsan/epan1/labutil/lab3_samples/pseudopotentials/Cu.pz-d-rrkjus.UPF
     MD5 check sum: fd38ae683e239c95a66f426e1f8e5fc7
     Pseudo is Ultrasoft, Zval = 11.0
     Generated by new atomic code, or converted to UPF format
     Using radial grid of  899 points,  3 beta functions with: 
                l(1) =   2
                l(2) =   2
                l(3) =   1
     Q(r) pseudized with 0 coefficients 


     atomic species   valence    mass     pseudopotential
        Cu            11.00    63.54600     Cu( 1.00)

     Starting magnetic structure 
     atomic species   magnetization
        Cu           0.700

     48 Sym. Ops., with inversion, found



   Cartesian axes

     site n.     atom                  positions (alat units)
         1           Cu  tau(   1) = (   0.0000000   0.0000000   0.0000000  )

     number of k points=    16  Methfessel-Paxton smearing, width (Ry)=  0.0200
                       cart. coord. in units 2pi/alat
        k(    1) = (   0.0000000   0.0000000   0.0000000), wk =   0.0046296
        k(    2) = (   0.1178511   0.1178511  -0.1178511), wk =   0.0370370
        k(    3) = (   0.2357023   0.2357023  -0.2357023), wk =   0.0370370
        k(    4) = (  -0.3535534  -0.3535534   0.3535534), wk =   0.0185185
        k(    5) = (   0.2357023   0.0000000   0.0000000), wk =   0.0277778
        k(    6) = (   0.3535534   0.1178511  -0.1178511), wk =   0.1111111
        k(    7) = (  -0.2357023  -0.4714045   0.4714045), wk =   0.1111111
        k(    8) = (  -0.1178511  -0.3535534   0.3535534), wk =   0.1111111
        k(    9) = (   0.0000000  -0.2357023   0.2357023), wk =   0.0555556
        k(   10) = (   0.4714045   0.0000000   0.0000000), wk =   0.0277778
        k(   11) = (  -0.1178511  -0.5892557   0.5892557), wk =   0.1111111
        k(   12) = (  -0.0000000  -0.4714045   0.4714045), wk =   0.0555556
        k(   13) = (  -0.7071068   0.0000000   0.0000000), wk =   0.0138889
        k(   14) = (  -0.2357023  -0.4714045   0.7071068), wk =   0.1111111
        k(   15) = (  -0.1178511  -0.3535534   0.5892557), wk =   0.1111111
        k(   16) = (  -0.7071068   0.2357023   0.0000000), wk =   0.0555556

     Dense  grid:     6879 G-vectors     FFT dimensions: (  27,  27,  27)

     Smooth grid:     2445 G-vectors     FFT dimensions: (  20,  20,  20)

     Estimated max dynamical RAM per process >       3.55 MB

     Estimated total dynamical RAM >      28.41 MB
     Generating pointlists ...
     new r_m :   0.4125 (alat units)  1.9292 (a.u.) for type    1

     Initial potential from superposition of free atoms

     starting charge      10.9997, renormalised to      11.0000
     Starting wfcs are    6 randomized atomic wfcs +    4 random wfcs

     total cpu time spent up to now is        0.4 secs

     Self-consistent Calculation

     iteration #  1     ecut=    40.00 Ry     beta= 0.50
     Davidson diagonalization with overlap
     ethr =  1.00E-02,  avg # of iterations =  6.7

     total cpu time spent up to now is        0.5 secs

     total energy              =     -86.97656572 Ry
     estimated scf accuracy    <       1.45287439 Ry

     total magnetization       =     1.73 Bohr mag/cell
     absolute magnetization    =     1.87 Bohr mag/cell

     iteration #  2     ecut=    40.00 Ry     beta= 0.50
     Davidson diagonalization with overlap
     ethr =  1.00E-02,  avg # of iterations =  1.6

     total cpu time spent up to now is        0.6 secs

     total energy              =     -87.62085975 Ry
     estimated scf accuracy    <       0.70821476 Ry

     total magnetization       =     0.40 Bohr mag/cell
     absolute magnetization    =     0.49 Bohr mag/cell

     iteration #  3     ecut=    40.00 Ry     beta= 0.50
     Davidson diagonalization with overlap
     ethr =  6.44E-03,  avg # of iterations =  1.0

     negative rho (up, down):  0.000E+00 2.221E-07

     total cpu time spent up to now is        0.7 secs

     total energy              =     -87.79790379 Ry
     estimated scf accuracy    <       0.20715113 Ry

     total magnetization       =     0.36 Bohr mag/cell
     absolute magnetization    =     0.52 Bohr mag/cell

     iteration #  4     ecut=    40.00 Ry     beta= 0.50
     Davidson diagonalization with overlap
     ethr =  1.88E-03,  avg # of iterations =  1.5

     total cpu time spent up to now is        0.8 secs

     total energy              =     -87.82768996 Ry
     estimated scf accuracy    <       0.03571113 Ry

     total magnetization       =    -0.04 Bohr mag/cell
     absolute magnetization    =     0.05 Bohr mag/cell

     iteration #  5     ecut=    40.00 Ry     beta= 0.50
     Davidson diagonalization with overlap
     ethr =  3.25E-04,  avg # of iterations =  1.4

     total cpu time spent up to now is        0.9 secs

     total energy              =     -87.83661567 Ry
     estimated scf accuracy    <       0.00080738 Ry

     total magnetization       =    -0.07 Bohr mag/cell
     absolute magnetization    =     0.07 Bohr mag/cell

     iteration #  6     ecut=    40.00 Ry     beta= 0.50
     Davidson diagonalization with overlap
     ethr =  7.34E-06,  avg # of iterations =  2.0

     total cpu time spent up to now is        1.0 secs

     total energy              =     -87.83725990 Ry
     estimated scf accuracy    <       0.00011275 Ry

     total magnetization       =     0.02 Bohr mag/cell
     absolute magnetization    =     0.03 Bohr mag/cell

     iteration #  7     ecut=    40.00 Ry     beta= 0.50
     Davidson diagonalization with overlap
     ethr =  1.02E-06,  avg # of iterations =  1.3

     total cpu time spent up to now is        1.0 secs

     total energy              =     -87.83730210 Ry
     estimated scf accuracy    <       0.00003128 Ry

     total magnetization       =     0.01 Bohr mag/cell
     absolute magnetization    =     0.02 Bohr mag/cell

     iteration #  8     ecut=    40.00 Ry     beta= 0.50
     Davidson diagonalization with overlap
     ethr =  2.84E-07,  avg # of iterations =  1.2

     total cpu time spent up to now is        1.1 secs

     total energy              =     -87.83731742 Ry
     estimated scf accuracy    <       0.00000067 Ry

     total magnetization       =     0.00 Bohr mag/cell
     absolute magnetization    =     0.00 Bohr mag/cell

     iteration #  9     ecut=    40.00 Ry     beta= 0.50
     Davidson diagonalization with overlap
     ethr =  6.10E-09,  avg # of iterations =  1.7

     Magnetic moment per site  (integrated on atomic sphere of radius R)
     atom   1 (R=0.412)  charge=  9.7770  magn= -0.0001

     total cpu time spent up to now is        1.2 secs

     End of self-consistent calculation

 ------ SPIN UP ------------


          k = 0.0000 0.0000 0.0000 (   331 PWs)   bands (ev):

     5.6326  12.0759  12.0759  12.0759  13.0405  13.0405  40.4906  43.0174
    43.0174  43.0174

          k = 0.1179 0.1179-0.1179 (   311 PWs)   bands (ev):

     6.6875  11.8768  12.2388  12.2388  13.0108  13.0108  33.6023  40.7710
    41.1570  41.1570

          k = 0.2357 0.2357-0.2357 (   308 PWs)   bands (ev):

     9.0890  12.1469  12.1700  12.1700  13.3914  13.3914  24.9885  39.3687
    39.8268  39.8268

          k =-0.3536-0.3536 0.3536 (   302 PWs)   bands (ev):

     9.8453  12.0365  12.0365  13.7060  13.7060  14.3611  19.9834  38.5876
    39.5770  39.5770

          k = 0.2357 0.0000 0.0000 (   307 PWs)   bands (ev):

     7.0285  11.6532  12.4410  12.4410  12.6863  13.1994  36.9666  36.9666
    37.5872  39.2275

          k = 0.3536 0.1179-0.1179 (   313 PWs)   bands (ev):

     9.0385  11.3684  12.1459  12.5909  13.4554  13.4987  28.3494  34.8684
    35.9686  38.1183

          k =-0.2357-0.4714 0.4714 (   307 PWs)   bands (ev):

    10.3135  11.6207  12.2020  12.4172  13.7289  16.0799  21.2306  32.6296
    35.1834  37.7198

          k =-0.1179-0.3536 0.3536 (   308 PWs)   bands (ev):

    10.2071  11.8132  11.9312  12.4069  13.3041  15.2128  23.2751  30.9905
    38.0558  39.1138

          k = 0.0000-0.2357 0.2357 (   311 PWs)   bands (ev):

     8.2781  11.5902  12.2061  12.5731  12.6938  13.6102  30.9179  31.7830
    42.4366  43.1046

          k = 0.4714 0.0000 0.0000 (   310 PWs)   bands (ev):

     9.7214  10.8432  13.2967  13.3236  13.3236  13.5216  30.3426  31.7305
    31.7305  35.2779

          k =-0.1179-0.5893 0.5893 (   311 PWs)   bands (ev):

    10.3215  10.7592  12.7494  13.2627  13.7837  16.9179  25.2441  26.4312
    31.2148  36.2487

          k =-0.0000-0.4714 0.4714 (   309 PWs)   bands (ev):

    10.9206  11.1104  11.9450  12.9580  13.4753  19.1629  21.9306  25.0359
    33.5477  37.1561

          k =-0.7071 0.0000 0.0000 (   302 PWs)   bands (ev):

     9.9708  10.4552  13.6851  13.8737  13.8737  17.0857  23.5464  29.6910
    29.6910  34.5825

          k =-0.2357-0.4714 0.7071 (   311 PWs)   bands (ev):

    10.5108  11.1642  11.7810  13.0990  13.3222  15.5452  26.6083  27.8863
    31.5819  42.5760

          k =-0.1179-0.3536 0.5893 (   312 PWs)   bands (ev):

    11.0774  11.0779  11.7370  12.8758  13.6704  19.3684  20.9849  28.1798
    28.7836  42.8022

          k =-0.7071 0.2357 0.0000 (   308 PWs)   bands (ev):

    10.5412  10.9148  12.3259  13.2195  13.8743  19.8716  24.0306  24.9064
    26.6444  41.4238

 ------ SPIN DOWN ----------


          k = 0.0000 0.0000 0.0000 (   331 PWs)   bands (ev):

     5.6316  12.0757  12.0757  12.0757  13.0403  13.0403  40.4893  43.0165
    43.0165  43.0165

          k = 0.1179 0.1179-0.1179 (   311 PWs)   bands (ev):

     6.6866  11.8765  12.2386  12.2386  13.0106  13.0106  33.6014  40.7699
    41.1562  41.1562

          k = 0.2357 0.2357-0.2357 (   308 PWs)   bands (ev):

     9.0882  12.1464  12.1698  12.1698  13.3912  13.3912  24.9878  39.3675
    39.8260  39.8260

          k =-0.3536-0.3536 0.3536 (   302 PWs)   bands (ev):

     9.8448  12.0362  12.0362  13.7058  13.7058  14.3600  19.9828  38.5864
    39.5763  39.5763

          k = 0.2357 0.0000 0.0000 (   307 PWs)   bands (ev):

     7.0276  11.6529  12.4407  12.4407  12.6860  13.1992  36.9658  36.9658
    37.5861  39.2265

          k = 0.3536 0.1179-0.1179 (   313 PWs)   bands (ev):

     9.0376  11.3681  12.1456  12.5907  13.4551  13.4985  28.3485  34.8676
    35.9676  38.1175

          k =-0.2357-0.4714 0.4714 (   307 PWs)   bands (ev):

    10.3130  11.6203  12.2016  12.4169  13.7287  16.0792  21.2299  32.6287
    35.1826  37.7188

          k =-0.1179-0.3536 0.3536 (   308 PWs)   bands (ev):

    10.2065  11.8129  11.9308  12.4066  13.3039  15.2124  23.2744  30.9897
    38.0550  39.1128

          k = 0.0000-0.2357 0.2357 (   311 PWs)   bands (ev):

     8.2772  11.5899  12.2058  12.5728  12.6936  13.6100  30.9171  31.7821
    42.4356  43.1042

          k = 0.4714 0.0000 0.0000 (   310 PWs)   bands (ev):

     9.7207  10.8429  13.2961  13.3234  13.3234  13.5214  30.3417  31.7297
    31.7297  35.2769

          k =-0.1179-0.5893 0.5893 (   311 PWs)   bands (ev):

    10.3210  10.7589  12.7491  13.2625  13.7835  16.9172  25.2433  26.4305
    31.2139  36.2477

          k =-0.0000-0.4714 0.4714 (   309 PWs)   bands (ev):

    10.9202  11.1100  11.9447  12.9577  13.4751  19.1622  21.9298  25.0351
    33.5469  37.1552

          k =-0.7071 0.0000 0.0000 (   302 PWs)   bands (ev):

     9.9703  10.4549  13.6849  13.8735  13.8735  17.0847  23.5457  29.6901
    29.6901  34.5815

          k =-0.2357-0.4714 0.7071 (   311 PWs)   bands (ev):

    10.5102  11.1639  11.7807  13.0987  13.3221  15.5447  26.6074  27.8855
    31.5811  42.5750

          k =-0.1179-0.3536 0.5893 (   312 PWs)   bands (ev):

    11.0770  11.0775  11.7366  12.8755  13.6703  19.3677  20.9842  28.1789
    28.7828  42.8013

          k =-0.7071 0.2357 0.0000 (   308 PWs)   bands (ev):

    10.5408  10.9144  12.3255  13.2192  13.8742  19.8708  24.0299  24.9056
    26.6436  41.4229

     the Fermi energy is    15.5788 ev

!    total energy              =     -87.83731781 Ry
     estimated scf accuracy    <       0.00000002 Ry
     smearing contrib. (-TS)   =      -0.00020704 Ry
     internal energy E=F+TS    =     -87.83711077 Ry

     The total energy is F=E-TS. E is the sum of the following terms:
     one-electron contribution =      -8.04074520 Ry
     hartree contribution      =      18.16926961 Ry
     xc contribution           =     -14.08827875 Ry
     ewald contribution        =     -83.87735643 Ry

     total magnetization       =    -0.00 Bohr mag/cell
     absolute magnetization    =     0.00 Bohr mag/cell

     convergence has been achieved in   9 iterations

     Forces acting on atoms (cartesian axes, Ry/au):

     atom    1 type  1   force =     0.00000000    0.00000000    0.00000000
     The non-local contrib.  to forces
     atom    1 type  1   force =     0.00000000   -0.00000000   -0.00000000
     The ionic contribution  to forces
     atom    1 type  1   force =    -0.00000000   -0.00000000   -0.00000000
     The local contribution  to forces
     atom    1 type  1   force =    -0.00000000   -0.00000000    0.00000000
     The core correction contribution to forces
     atom    1 type  1   force =     0.00000000    0.00000000    0.00000000
     The Hubbard contrib.    to forces
     atom    1 type  1   force =     0.00000000    0.00000000    0.00000000
     The SCF correction term to forces
     atom    1 type  1   force =     0.00000000    0.00000000    0.00000000

     Total force =     0.000000     Total SCF correction =     0.000000


     Computing stress (Cartesian axis) and pressure

          total   stress  (Ry/bohr**3)                   (kbar)     P=      101.45
   0.00068964  -0.00000000   0.00000000          101.45       -0.00        0.00
  -0.00000000   0.00068964   0.00000000           -0.00      101.45        0.00
   0.00000000   0.00000000   0.00068964            0.00        0.00      101.45


     BFGS Geometry Optimization
     Energy error            =      0.0E+00 Ry
     Gradient error          =      0.0E+00 Ry/Bohr
     Cell gradient error     =      1.0E+02 kbar

     number of scf cycles    =   1
     number of bfgs steps    =   0

     enthalpy           new  =     -87.8373178071 Ry

     new trust radius        =       0.0293265727 bohr
     new conv_thr            =       0.0000001000 Ry

     new unit-cell volume =     76.13989 a.u.^3 (    11.28277 Ang^3 )
     density =      9.35237 g/cm^3

CELL_PARAMETERS (angstrom)
   0.000000000   1.780171645   1.780171645
   1.780171645   0.000000000   1.780171645
   1.780171645   1.780171645   0.000000000

ATOMIC_POSITIONS (angstrom)
Cu            0.0000000000        0.0000000000        0.0000000000



     Writing config-only to output data dir /home/gridsan/epan1/labutil/lab3_samples/problem3/Lab3/Cu_a_3.5_ecut_40_nk_6/pwscf.save/
     NEW-OLD atomic charge density approx. for the potential
     extrapolated charge   11.54987, renormalised to   11.00000
     Generating pointlists ...

     total cpu time spent up to now is        1.4 secs

     Self-consistent Calculation

     iteration #  1     ecut=    40.00 Ry     beta= 0.50
     Davidson diagonalization with overlap
     ethr =  1.00E-06,  avg # of iterations =  4.4

     total cpu time spent up to now is        1.6 secs

     total energy              =     -87.58987472 Ry
     estimated scf accuracy    <       0.23778016 Ry

     total magnetization       =    -0.00 Bohr mag/cell
     absolute magnetization    =     0.00 Bohr mag/cell

     iteration #  2     ecut=    40.00 Ry     beta= 0.50
     Davidson diagonalization with overlap
     ethr =  2.16E-03,  avg # of iterations =  2.0

     total cpu time spent up to now is        1.7 secs

     total energy              =     -87.84532219 Ry
     estimated scf accuracy    <       0.35775874 Ry

     total magnetization       =    -0.00 Bohr mag/cell
     absolute magnetization    =     0.00 Bohr mag/cell

     iteration #  3     ecut=    40.00 Ry     beta= 0.50
     Davidson diagonalization with overlap
     ethr =  2.16E-03,  avg # of iterations =  1.0

     total cpu time spent up to now is        1.8 secs

     total energy              =     -87.84068241 Ry
     estimated scf accuracy    <       0.08004732 Ry

     total magnetization       =    -0.00 Bohr mag/cell
     absolute magnetization    =     0.00 Bohr mag/cell

     iteration #  4     ecut=    40.00 Ry     beta= 0.50
     Davidson diagonalization with overlap
     ethr =  7.28E-04,  avg # of iterations =  1.0

     total cpu time spent up to now is        1.9 secs

     total energy              =     -87.83936406 Ry
     estimated scf accuracy    <       0.01976229 Ry

     total magnetization       =    -0.00 Bohr mag/cell
     absolute magnetization    =     0.00 Bohr mag/cell

     iteration #  5     ecut=    40.00 Ry     beta= 0.50
     Davidson diagonalization with overlap
     ethr =  1.80E-04,  avg # of iterations =  1.0

     total cpu time spent up to now is        2.0 secs

     total energy              =     -87.83731695 Ry
     estimated scf accuracy    <       0.00549615 Ry

     total magnetization       =    -0.00 Bohr mag/cell
     absolute magnetization    =     0.00 Bohr mag/cell

     iteration #  6     ecut=    40.00 Ry     beta= 0.50
     Davidson diagonalization with overlap
     ethr =  5.00E-05,  avg # of iterations =  1.1

     total cpu time spent up to now is        2.0 secs

     total energy              =     -87.83854074 Ry
     estimated scf accuracy    <       0.00003617 Ry

     total magnetization       =    -0.00 Bohr mag/cell
     absolute magnetization    =     0.00 Bohr mag/cell

     iteration #  7     ecut=    40.00 Ry     beta= 0.50
     Davidson diagonalization with overlap
     ethr =  3.29E-07,  avg # of iterations =  2.2

     total cpu time spent up to now is        2.1 secs

     total energy              =     -87.83855135 Ry
     estimated scf accuracy    <       0.00003808 Ry

     total magnetization       =    -0.00 Bohr mag/cell
     absolute magnetization    =     0.00 Bohr mag/cell

     iteration #  8     ecut=    40.00 Ry     beta= 0.50
     Davidson diagonalization with overlap
     ethr =  3.29E-07,  avg # of iterations =  1.0

     total cpu time spent up to now is        2.2 secs

     total energy              =     -87.83852767 Ry
     estimated scf accuracy    <       0.00005855 Ry

     total magnetization       =    -0.00 Bohr mag/cell
     absolute magnetization    =     0.00 Bohr mag/cell

     iteration #  9     ecut=    40.00 Ry     beta= 0.50
     Davidson diagonalization with overlap
     ethr =  3.29E-07,  avg # of iterations =  1.1

     total cpu time spent up to now is        2.3 secs

     total energy              =     -87.83853334 Ry
     estimated scf accuracy    <       0.00000233 Ry

     total magnetization       =    -0.00 Bohr mag/cell
     absolute magnetization    =     0.00 Bohr mag/cell

     iteration # 10     ecut=    40.00 Ry     beta= 0.50
     Davidson diagonalization with overlap
     ethr =  2.12E-08,  avg # of iterations =  2.0

     total cpu time spent up to now is        2.4 secs

     total energy              =     -87.83853406 Ry
     estimated scf accuracy    <       0.00000050 Ry

     total magnetization       =    -0.00 Bohr mag/cell
     absolute magnetization    =     0.00 Bohr mag/cell

     iteration # 11     ecut=    40.00 Ry     beta= 0.50
     Davidson diagonalization with overlap
     ethr =  4.57E-09,  avg # of iterations =  1.1

     Magnetic moment per site  (integrated on atomic sphere of radius R)
     atom   1 (R=0.412)  charge=  9.7239  magn= -0.0000

     total cpu time spent up to now is        2.5 secs

     End of self-consistent calculation

 ------ SPIN UP ------------


          k = 0.0000 0.0000 0.0000 (   331 PWs)   bands (ev):

     5.0008  11.2178  11.2178  11.2178  12.1081  12.1081  38.8866  41.0457
    41.0457  41.0457

          k = 0.1159 0.1159-0.1159 (   311 PWs)   bands (ev):

     6.0187  11.0358  11.3687  11.3687  12.0815  12.0815  31.9671  39.0942
    39.2169  39.2169

          k = 0.2317 0.2317-0.2317 (   308 PWs)   bands (ev):

     8.3647  11.2975  11.3059  11.3059  12.4335  12.4335  23.5840  37.7833
    37.9040  37.9040

          k =-0.3476-0.3476 0.3476 (   302 PWs)   bands (ev):

     9.1262  11.1829  11.1829  12.7236  12.7236  13.4788  18.6631  37.0462
    37.6431  37.6431

          k = 0.2317 0.0000 0.0000 (   307 PWs)   bands (ev):

     6.3486  10.8289  11.5558  11.5558  11.7827  12.2550  35.1832  35.1832
    35.9393  37.5384

          k = 0.3476 0.1159-0.1159 (   313 PWs)   bands (ev):

     8.3063  10.5674  11.2845  11.6948  12.4977  12.5320  26.8620  33.1610
    34.3502  36.2647

          k =-0.2317-0.4634 0.4634 (   307 PWs)   bands (ev):

     9.5691  10.8070  11.3443  11.5350  12.7447  15.0330  19.9172  31.0292
    33.4601  35.9744

          k =-0.1159-0.3476 0.3476 (   308 PWs)   bands (ev):

     9.4570  10.9824  11.0940  11.5256  12.3531  14.1645  21.9221  29.4247
    36.2143  37.3760

          k = 0.0000-0.2317 0.2317 (   311 PWs)   bands (ev):

     7.5601  10.7720  11.3410  11.6777  11.7902  12.6363  29.3705  30.1773
    40.6184  41.0671

          k = 0.4634 0.0000 0.0000 (   310 PWs)   bands (ev):

     9.0000  10.0810  12.3664  12.3716  12.3716  12.5529  28.8098  30.1534
    30.1534  33.6329

          k =-0.1159-0.5793 0.5793 (   311 PWs)   bands (ev):

     9.5946  10.0036  11.8489  12.3154  12.7953  15.8341  23.8881  24.9502
    29.6590  34.5113

          k =-0.0000-0.4634 0.4634 (   309 PWs)   bands (ev):

    10.1482  10.3357  11.1038  12.0351  12.5109  17.9827  20.6830  23.5842
    31.8907  35.4157

          k =-0.6951 0.0000 0.0000 (   302 PWs)   bands (ev):

     9.2709   9.7215  12.7039  12.8785  12.8785  16.0811  22.1296  28.2045
    28.2045  32.9367

          k =-0.2317-0.4634 0.6951 (   311 PWs)   bands (ev):

     9.7530  10.3784  10.9469  12.1666  12.3702  14.4785  25.1979  26.4009
    29.9732  40.7025

          k =-0.1159-0.3476 0.5793 (   312 PWs)   bands (ev):

    10.2930  10.3058  10.9106  11.9593  12.6910  18.2205  19.6883  26.7553
    27.1963  40.8909

          k =-0.6951 0.2317 0.0000 (   308 PWs)   bands (ev):

     9.8060  10.1471  11.4573  12.2758  12.8791  18.7133  22.6482  23.5624
    25.1522  39.5798

 ------ SPIN DOWN ----------


          k = 0.0000 0.0000 0.0000 (   331 PWs)   bands (ev):

     5.0008  11.2178  11.2178  11.2178  12.1081  12.1081  38.8866  41.0457
    41.0457  41.0457

          k = 0.1159 0.1159-0.1159 (   311 PWs)   bands (ev):

     6.0187  11.0358  11.3687  11.3687  12.0815  12.0815  31.9671  39.0942
    39.2169  39.2169

          k = 0.2317 0.2317-0.2317 (   308 PWs)   bands (ev):

     8.3647  11.2975  11.3059  11.3059  12.4335  12.4335  23.5840  37.7833
    37.9040  37.9040

          k =-0.3476-0.3476 0.3476 (   302 PWs)   bands (ev):

     9.1262  11.1829  11.1829  12.7236  12.7236  13.4788  18.6631  37.0462
    37.6431  37.6431

          k = 0.2317 0.0000 0.0000 (   307 PWs)   bands (ev):

     6.3486  10.8289  11.5558  11.5558  11.7827  12.2550  35.1832  35.1832
    35.9393  37.5384

          k = 0.3476 0.1159-0.1159 (   313 PWs)   bands (ev):

     8.3063  10.5674  11.2845  11.6948  12.4977  12.5320  26.8620  33.1610
    34.3502  36.2647

          k =-0.2317-0.4634 0.4634 (   307 PWs)   bands (ev):

     9.5691  10.8070  11.3443  11.5350  12.7447  15.0330  19.9172  31.0292
    33.4601  35.9744

          k =-0.1159-0.3476 0.3476 (   308 PWs)   bands (ev):

     9.4570  10.9824  11.0940  11.5256  12.3531  14.1645  21.9221  29.4247
    36.2143  37.3760

          k = 0.0000-0.2317 0.2317 (   311 PWs)   bands (ev):

     7.5601  10.7720  11.3410  11.6777  11.7902  12.6363  29.3705  30.1773
    40.6184  41.0671

          k = 0.4634 0.0000 0.0000 (   310 PWs)   bands (ev):

     9.0000  10.0810  12.3664  12.3716  12.3716  12.5529  28.8098  30.1534
    30.1534  33.6329

          k =-0.1159-0.5793 0.5793 (   311 PWs)   bands (ev):

     9.5946  10.0036  11.8489  12.3154  12.7953  15.8341  23.8881  24.9502
    29.6590  34.5113

          k =-0.0000-0.4634 0.4634 (   309 PWs)   bands (ev):

    10.1482  10.3357  11.1038  12.0351  12.5109  17.9827  20.6830  23.5842
    31.8907  35.4157

          k =-0.6951 0.0000 0.0000 (   302 PWs)   bands (ev):

     9.2709   9.7215  12.7039  12.8785  12.8785  16.0811  22.1296  28.2045
    28.2045  32.9367

          k =-0.2317-0.4634 0.6951 (   311 PWs)   bands (ev):

     9.7530  10.3784  10.9469  12.1666  12.3702  14.4785  25.1979  26.4009
    29.9732  40.7025

          k =-0.1159-0.3476 0.5793 (   312 PWs)   bands (ev):

    10.2930  10.3058  10.9106  11.9593  12.6910  18.2205  19.6883  26.7553
    27.1963  40.8909

          k =-0.6951 0.2317 0.0000 (   308 PWs)   bands (ev):

     9.8060  10.1471  11.4573  12.2758  12.8791  18.7132  22.6482  23.5624
    25.1522  39.5798

     the Fermi energy is    14.5110 ev

!    total energy              =     -87.83853417 Ry
     estimated scf accuracy    <          2.2E-09 Ry
     smearing contrib. (-TS)   =      -0.00022198 Ry
     internal energy E=F+TS    =     -87.83831220 Ry

     The total energy is F=E-TS. E is the sum of the following terms:
     one-electron contribution =     -10.20632580 Ry
     hartree contribution      =      18.88064041 Ry
     xc contribution           =     -14.05688489 Ry
     ewald contribution        =     -82.45574192 Ry

     total magnetization       =    -0.00 Bohr mag/cell
     absolute magnetization    =     0.00 Bohr mag/cell

     convergence has been achieved in  11 iterations

     Forces acting on atoms (cartesian axes, Ry/au):

     atom    1 type  1   force =     0.00000000    0.00000000    0.00000000
     The non-local contrib.  to forces
     atom    1 type  1   force =     0.00000000    0.00000000    0.00000000
     The ionic contribution  to forces
     atom    1 type  1   force =    -0.00000000   -0.00000000   -0.00000000
     The local contribution  to forces
     atom    1 type  1   force =    -0.00000000   -0.00000000   -0.00000000
     The core correction contribution to forces
     atom    1 type  1   force =     0.00000000    0.00000000    0.00000000
     The Hubbard contrib.    to forces
     atom    1 type  1   force =     0.00000000    0.00000000    0.00000000
     The SCF correction term to forces
     atom    1 type  1   force =    -0.00000000   -0.00000000   -0.00000000

     Total force =     0.000000     Total SCF correction =     0.000000


     Computing stress (Cartesian axis) and pressure

          total   stress  (Ry/bohr**3)                   (kbar)     P=       -1.46
  -0.00000996   0.00000000  -0.00000000           -1.46        0.00       -0.00
  -0.00000000  -0.00000996   0.00000000           -0.00       -1.46        0.00
  -0.00000000  -0.00000000  -0.00000996           -0.00       -0.00       -1.46

     Energy error            =      1.2E-03 Ry
     Gradient error          =      0.0E+00 Ry/Bohr
     Cell gradient error     =      1.5E+00 kbar

     number of scf cycles    =   2
     number of bfgs steps    =   1

     enthalpy           old  =     -87.8373178071 Ry
     enthalpy           new  =     -87.8385341723 Ry

     CASE: enthalpy          _new < enthalpy          _old

     new trust radius        =       0.0004353962 bohr
     new conv_thr            =       0.0000000010 Ry

     new unit-cell volume =     76.08291 a.u.^3 (    11.27432 Ang^3 )
     density =      9.35937 g/cm^3

CELL_PARAMETERS (angstrom)
   0.000000000   1.779727515   1.779727515
   1.779727515   0.000000000   1.779727515
   1.779727515   1.779727515   0.000000000

ATOMIC_POSITIONS (angstrom)
Cu            0.0000000000        0.0000000000        0.0000000000



     Writing config-only to output data dir /home/gridsan/epan1/labutil/lab3_samples/problem3/Lab3/Cu_a_3.5_ecut_40_nk_6/pwscf.save/
     NEW-OLD atomic charge density approx. for the potential
     extrapolated charge   10.99176, renormalised to   11.00000
     Generating pointlists ...

     total cpu time spent up to now is        2.7 secs

     Self-consistent Calculation

     iteration #  1     ecut=    40.00 Ry     beta= 0.50
     Davidson diagonalization with overlap
     ethr =  1.00E-06,  avg # of iterations =  2.0

     total cpu time spent up to now is        2.8 secs

     total energy              =     -87.83848801 Ry
     estimated scf accuracy    <       0.00004405 Ry

     total magnetization       =    -0.00 Bohr mag/cell
     absolute magnetization    =     0.00 Bohr mag/cell

     iteration #  2     ecut=    40.00 Ry     beta= 0.50
     Davidson diagonalization with overlap
     ethr =  4.00E-07,  avg # of iterations =  2.0

     total cpu time spent up to now is        2.9 secs

     total energy              =     -87.83853312 Ry
     estimated scf accuracy    <       0.00007426 Ry

     total magnetization       =    -0.00 Bohr mag/cell
     absolute magnetization    =     0.00 Bohr mag/cell

     iteration #  3     ecut=    40.00 Ry     beta= 0.50
     Davidson diagonalization with overlap
     ethr =  4.00E-07,  avg # of iterations =  1.0

     total cpu time spent up to now is        3.0 secs

     total energy              =     -87.83853672 Ry
     estimated scf accuracy    <       0.00001284 Ry

     total magnetization       =    -0.00 Bohr mag/cell
     absolute magnetization    =     0.00 Bohr mag/cell

     iteration #  4     ecut=    40.00 Ry     beta= 0.50
     Davidson diagonalization with overlap
     ethr =  1.17E-07,  avg # of iterations =  1.0

     total cpu time spent up to now is        3.1 secs

     total energy              =     -87.83853292 Ry
     estimated scf accuracy    <       0.00000894 Ry

     total magnetization       =    -0.00 Bohr mag/cell
     absolute magnetization    =     0.00 Bohr mag/cell

     iteration #  5     ecut=    40.00 Ry     beta= 0.50
     Davidson diagonalization with overlap
     ethr =  8.13E-08,  avg # of iterations =  1.0

     total cpu time spent up to now is        3.2 secs

     total energy              =     -87.83853399 Ry
     estimated scf accuracy    <       0.00000021 Ry

     total magnetization       =    -0.00 Bohr mag/cell
     absolute magnetization    =     0.00 Bohr mag/cell

     iteration #  6     ecut=    40.00 Ry     beta= 0.50
     Davidson diagonalization with overlap
     ethr =  1.87E-09,  avg # of iterations =  2.0

     total cpu time spent up to now is        3.3 secs

     total energy              =     -87.83853405 Ry
     estimated scf accuracy    <       0.00000033 Ry

     total magnetization       =     0.00 Bohr mag/cell
     absolute magnetization    =     0.00 Bohr mag/cell

     iteration #  7     ecut=    40.00 Ry     beta= 0.50
     Davidson diagonalization with overlap
     ethr =  1.87E-09,  avg # of iterations =  1.2

     total cpu time spent up to now is        3.4 secs

     total energy              =     -87.83853410 Ry
     estimated scf accuracy    <          5.3E-09 Ry

     total magnetization       =     0.00 Bohr mag/cell
     absolute magnetization    =     0.00 Bohr mag/cell

     iteration #  8     ecut=    40.00 Ry     beta= 0.50
     Davidson diagonalization with overlap
     ethr =  4.82E-11,  avg # of iterations =  1.8

     Magnetic moment per site  (integrated on atomic sphere of radius R)
     atom   1 (R=0.412)  charge=  9.7246  magn=  0.0000

     total cpu time spent up to now is        3.5 secs

     End of self-consistent calculation

 ------ SPIN UP ------------


          k = 0.0000 0.0000 0.0000 (   331 PWs)   bands (ev):

     5.0097  11.2298  11.2298  11.2298  12.1211  12.1211  38.9095  41.0739
    41.0739  41.0739

          k = 0.1159 0.1159-0.1159 (   311 PWs)   bands (ev):

     6.0281  11.0476  11.3808  11.3808  12.0945  12.0945  31.9904  39.1182
    39.2445  39.2445

          k = 0.2318 0.2318-0.2318 (   308 PWs)   bands (ev):

     8.3749  11.3095  11.3180  11.3180  12.4469  12.4469  23.6039  37.8060
    37.9314  37.9314

          k =-0.3476-0.3476 0.3476 (   302 PWs)   bands (ev):

     9.1363  11.1949  11.1949  12.7373  12.7373  13.4913  18.6818  37.0683
    37.6707  37.6707

          k = 0.2318 0.0000 0.0000 (   307 PWs)   bands (ev):

     6.3582  10.8405  11.5682  11.5682  11.7954  12.2682  35.2086  35.2086
    35.9628  37.5626

          k = 0.3476 0.1159-0.1159 (   313 PWs)   bands (ev):

     8.3166  10.5786  11.2965  11.7074  12.5111  12.5455  26.8831  33.1853
    34.3733  36.2911

          k =-0.2318-0.4635 0.4635 (   307 PWs)   bands (ev):

     9.5795  10.8185  11.3564  11.5473  12.7585  15.0478  19.9358  31.0520
    33.4846  35.9992

          k =-0.1159-0.3476 0.3476 (   308 PWs)   bands (ev):

     9.4676  10.9940  11.1057  11.5379  12.3664  14.1792  21.9412  29.4469
    36.2405  37.4007

          k = 0.0000-0.2318 0.2318 (   311 PWs)   bands (ev):

     7.5703  10.7835  11.3531  11.6902  11.8029  12.6499  29.3925  30.2002
    40.6443  41.0962

          k = 0.4635 0.0000 0.0000 (   310 PWs)   bands (ev):

     9.0102  10.0917  12.3795  12.3849  12.3849  12.5665  28.8316  30.1758
    30.1758  33.6563

          k =-0.1159-0.5794 0.5794 (   311 PWs)   bands (ev):

     9.6048  10.0142  11.8615  12.3287  12.8091  15.8494  23.9073  24.9712
    29.6811  34.5360

          k =-0.0000-0.4635 0.4635 (   309 PWs)   bands (ev):

    10.1590  10.3466  11.1156  12.0480  12.5244  17.9994  20.7007  23.6048
    31.9143  35.4405

          k =-0.6953 0.0000 0.0000 (   302 PWs)   bands (ev):

     9.2808   9.7318  12.7176  12.8924  12.8924  16.0954  22.1497  28.2257
    28.2257  32.9600

          k =-0.2318-0.4635 0.6953 (   311 PWs)   bands (ev):

     9.7637  10.3894  10.9586  12.1796  12.3835  14.4935  25.2179  26.4220
    29.9960  40.7292

          k =-0.1159-0.3476 0.5794 (   312 PWs)   bands (ev):

    10.3040  10.3166  10.9222  11.9721  12.7047  18.2367  19.7066  26.7755
    27.2188  40.9182

          k =-0.6953 0.2318 0.0000 (   308 PWs)   bands (ev):

     9.8163  10.1579  11.4694  12.2890  12.8930  18.7296  22.6679  23.5814
    25.1733  39.6061

 ------ SPIN DOWN ----------


          k = 0.0000 0.0000 0.0000 (   331 PWs)   bands (ev):

     5.0097  11.2298  11.2298  11.2298  12.1211  12.1211  38.9095  41.0739
    41.0739  41.0739

          k = 0.1159 0.1159-0.1159 (   311 PWs)   bands (ev):

     6.0281  11.0476  11.3808  11.3808  12.0945  12.0945  31.9904  39.1182
    39.2445  39.2445

          k = 0.2318 0.2318-0.2318 (   308 PWs)   bands (ev):

     8.3749  11.3095  11.3180  11.3180  12.4469  12.4469  23.6039  37.8060
    37.9314  37.9314

          k =-0.3476-0.3476 0.3476 (   302 PWs)   bands (ev):

     9.1363  11.1949  11.1949  12.7373  12.7373  13.4913  18.6818  37.0683
    37.6707  37.6707

          k = 0.2318 0.0000 0.0000 (   307 PWs)   bands (ev):

     6.3582  10.8405  11.5682  11.5682  11.7954  12.2682  35.2086  35.2086
    35.9628  37.5626

          k = 0.3476 0.1159-0.1159 (   313 PWs)   bands (ev):

     8.3166  10.5786  11.2965  11.7074  12.5111  12.5455  26.8831  33.1853
    34.3733  36.2911

          k =-0.2318-0.4635 0.4635 (   307 PWs)   bands (ev):

     9.5795  10.8185  11.3564  11.5473  12.7585  15.0478  19.9358  31.0520
    33.4846  35.9992

          k =-0.1159-0.3476 0.3476 (   308 PWs)   bands (ev):

     9.4676  10.9940  11.1057  11.5379  12.3664  14.1792  21.9412  29.4469
    36.2405  37.4007

          k = 0.0000-0.2318 0.2318 (   311 PWs)   bands (ev):

     7.5703  10.7835  11.3531  11.6902  11.8029  12.6499  29.3925  30.2002
    40.6443  41.0962

          k = 0.4635 0.0000 0.0000 (   310 PWs)   bands (ev):

     9.0102  10.0917  12.3795  12.3849  12.3849  12.5665  28.8316  30.1758
    30.1758  33.6563

          k =-0.1159-0.5794 0.5794 (   311 PWs)   bands (ev):

     9.6048  10.0142  11.8615  12.3287  12.8091  15.8494  23.9073  24.9712
    29.6811  34.5360

          k =-0.0000-0.4635 0.4635 (   309 PWs)   bands (ev):

    10.1590  10.3466  11.1156  12.0480  12.5244  17.9994  20.7007  23.6048
    31.9143  35.4405

          k =-0.6953 0.0000 0.0000 (   302 PWs)   bands (ev):

     9.2808   9.7318  12.7176  12.8924  12.8924  16.0954  22.1497  28.2257
    28.2257  32.9600

          k =-0.2318-0.4635 0.6953 (   311 PWs)   bands (ev):

     9.7637  10.3894  10.9586  12.1796  12.3835  14.4935  25.2179  26.4220
    29.9960  40.7292

          k =-0.1159-0.3476 0.5794 (   312 PWs)   bands (ev):

    10.3040  10.3166  10.9222  11.9721  12.7047  18.2367  19.7066  26.7755
    27.2188  40.9182

          k =-0.6953 0.2318 0.0000 (   308 PWs)   bands (ev):

     9.8163  10.1579  11.4694  12.2890  12.8930  18.7296  22.6679  23.5814
    25.1733  39.6061

     the Fermi energy is    14.5260 ev

!    total energy              =     -87.83853410 Ry
     estimated scf accuracy    <          9.1E-12 Ry
     smearing contrib. (-TS)   =      -0.00022179 Ry
     internal energy E=F+TS    =     -87.83831231 Ry

     The total energy is F=E-TS. E is the sum of the following terms:
     one-electron contribution =     -10.17505257 Ry
     hartree contribution      =      18.87042979 Ry
     xc contribution           =     -14.05737082 Ry
     ewald contribution        =     -82.47631871 Ry

     total magnetization       =     0.00 Bohr mag/cell
     absolute magnetization    =     0.00 Bohr mag/cell

     convergence has been achieved in   8 iterations

     Forces acting on atoms (cartesian axes, Ry/au):

     atom    1 type  1   force =     0.00000000    0.00000000    0.00000000
     The non-local contrib.  to forces
     atom    1 type  1   force =     0.00000000    0.00000000    0.00000000
     The ionic contribution  to forces
     atom    1 type  1   force =    -0.00000000   -0.00000000   -0.00000000
     The local contribution  to forces
     atom    1 type  1   force =    -0.00000000   -0.00000000   -0.00000000
     The core correction contribution to forces
     atom    1 type  1   force =     0.00000000    0.00000000    0.00000000
     The Hubbard contrib.    to forces
     atom    1 type  1   force =     0.00000000    0.00000000    0.00000000
     The SCF correction term to forces
     atom    1 type  1   force =    -0.00000000   -0.00000000    0.00000000

     Total force =     0.000000     Total SCF correction =     0.000000


     Computing stress (Cartesian axis) and pressure

          total   stress  (Ry/bohr**3)                   (kbar)     P=        0.90
   0.00000611   0.00000000   0.00000000            0.90        0.00        0.00
   0.00000000   0.00000611   0.00000000            0.00        0.90        0.00
   0.00000000   0.00000000   0.00000611            0.00        0.00        0.90

     Energy error            =      7.4E-08 Ry
     Gradient error          =      0.0E+00 Ry/Bohr
     Cell gradient error     =      9.0E-01 kbar

     number of scf cycles    =   3
     number of bfgs steps    =   2

     enthalpy           old  =     -87.8385341723 Ry
     enthalpy           new  =     -87.8385340980 Ry

     CASE: enthalpy          _new > enthalpy          _old

     new trust radius        =       0.0001924698 bohr
     new conv_thr            =       0.0000000010 Ry

     new unit-cell volume =     76.11470 a.u.^3 (    11.27903 Ang^3 )
     density =      9.35547 g/cm^3

CELL_PARAMETERS (angstrom)
   0.000000000   1.779975290   1.779975290
   1.779975290   0.000000000   1.779975290
   1.779975290   1.779975290   0.000000000

ATOMIC_POSITIONS (angstrom)
Cu            0.0000000000        0.0000000000        0.0000000000



     Writing config-only to output data dir /home/gridsan/epan1/labutil/lab3_samples/problem3/Lab3/Cu_a_3.5_ecut_40_nk_6/pwscf.save/
     NEW-OLD atomic charge density approx. for the potential
     extrapolated charge   11.00459, renormalised to   11.00000
     Generating pointlists ...

     total cpu time spent up to now is        3.6 secs

     Self-consistent Calculation

     iteration #  1     ecut=    40.00 Ry     beta= 0.50
     Davidson diagonalization with overlap
     ethr =  1.00E-06,  avg # of iterations =  2.0

     total cpu time spent up to now is        3.7 secs

     total energy              =     -87.83851995 Ry
     estimated scf accuracy    <       0.00001351 Ry

     total magnetization       =     0.00 Bohr mag/cell
     absolute magnetization    =     0.00 Bohr mag/cell

     iteration #  2     ecut=    40.00 Ry     beta= 0.50
     Davidson diagonalization with overlap
     ethr =  1.23E-07,  avg # of iterations =  2.0

     total cpu time spent up to now is        3.8 secs

     total energy              =     -87.83853394 Ry
     estimated scf accuracy    <       0.00002307 Ry

     total magnetization       =     0.00 Bohr mag/cell
     absolute magnetization    =     0.00 Bohr mag/cell

     iteration #  3     ecut=    40.00 Ry     beta= 0.50
     Davidson diagonalization with overlap
     ethr =  1.23E-07,  avg # of iterations =  1.0

     total cpu time spent up to now is        3.9 secs

     total energy              =     -87.83853494 Ry
     estimated scf accuracy    <       0.00000406 Ry

     total magnetization       =     0.00 Bohr mag/cell
     absolute magnetization    =     0.00 Bohr mag/cell

     iteration #  4     ecut=    40.00 Ry     beta= 0.50
     Davidson diagonalization with overlap
     ethr =  3.69E-08,  avg # of iterations =  1.0

     total cpu time spent up to now is        4.0 secs

     total energy              =     -87.83853384 Ry
     estimated scf accuracy    <       0.00000257 Ry

     total magnetization       =     0.00 Bohr mag/cell
     absolute magnetization    =     0.00 Bohr mag/cell

     iteration #  5     ecut=    40.00 Ry     beta= 0.50
     Davidson diagonalization with overlap
     ethr =  2.33E-08,  avg # of iterations =  1.0

     total cpu time spent up to now is        4.1 secs

     total energy              =     -87.83853418 Ry
     estimated scf accuracy    <       0.00000004 Ry

     total magnetization       =     0.00 Bohr mag/cell
     absolute magnetization    =     0.00 Bohr mag/cell

     iteration #  6     ecut=    40.00 Ry     beta= 0.50
     Davidson diagonalization with overlap
     ethr =  3.81E-10,  avg # of iterations =  2.0

     total cpu time spent up to now is        4.2 secs

     total energy              =     -87.83853419 Ry
     estimated scf accuracy    <       0.00000008 Ry

     total magnetization       =    -0.00 Bohr mag/cell
     absolute magnetization    =     0.00 Bohr mag/cell

     iteration #  7     ecut=    40.00 Ry     beta= 0.50
     Davidson diagonalization with overlap
     ethr =  3.81E-10,  avg # of iterations =  1.2

     total cpu time spent up to now is        4.3 secs

     total energy              =     -87.83853420 Ry
     estimated scf accuracy    <          1.7E-09 Ry

     total magnetization       =    -0.00 Bohr mag/cell
     absolute magnetization    =     0.00 Bohr mag/cell

     iteration #  8     ecut=    40.00 Ry     beta= 0.50
     Davidson diagonalization with overlap
     ethr =  1.52E-11,  avg # of iterations =  1.8

     Magnetic moment per site  (integrated on atomic sphere of radius R)
     atom   1 (R=0.412)  charge=  9.7242  magn= -0.0000

     total cpu time spent up to now is        4.4 secs

     End of self-consistent calculation

 ------ SPIN UP ------------


          k = 0.0000 0.0000 0.0000 (   331 PWs)   bands (ev):

     5.0047  11.2230  11.2230  11.2230  12.1137  12.1137  38.8967  41.0582
    41.0582  41.0582

          k = 0.1159 0.1159-0.1159 (   311 PWs)   bands (ev):

     6.0229  11.0409  11.3739  11.3739  12.0871  12.0871  31.9774  39.1048
    39.2291  39.2291

          k = 0.2317 0.2317-0.2317 (   308 PWs)   bands (ev):

     8.3692  11.3027  11.3112  11.3112  12.4393  12.4393  23.5927  37.7934
    37.9161  37.9161

          k =-0.3476-0.3476 0.3476 (   302 PWs)   bands (ev):

     9.1305  11.1881  11.1881  12.7295  12.7295  13.4843  18.6713  37.0560
    37.6553  37.6553

          k = 0.2317 0.0000 0.0000 (   307 PWs)   bands (ev):

     6.3528  10.8339  11.5612  11.5612  11.7882  12.2608  35.1944  35.1944
    35.9497  37.5491

          k = 0.3476 0.1159-0.1159 (   313 PWs)   bands (ev):

     8.3108  10.5723  11.2897  11.7002  12.5035  12.5379  26.8713  33.1717
    34.3604  36.2763

          k =-0.2317-0.4635 0.4635 (   307 PWs)   bands (ev):

     9.5736  10.8120  11.3495  11.5403  12.7507  15.0395  19.9254  31.0392
    33.4709  35.9853

          k =-0.1159-0.3476 0.3476 (   308 PWs)   bands (ev):

     9.4616  10.9874  11.0991  11.5309  12.3589  14.1709  21.9305  29.4345
    36.2259  37.3869

          k = 0.0000-0.2317 0.2317 (   311 PWs)   bands (ev):

     7.5646  10.7770  11.3462  11.6831  11.7957  12.6422  29.3802  30.1874
    40.6298  41.0800

          k = 0.4635 0.0000 0.0000 (   310 PWs)   bands (ev):

     9.0044  10.0856  12.3721  12.3774  12.3774  12.5588  28.8194  30.1633
    30.1633  33.6432

          k =-0.1159-0.5793 0.5793 (   311 PWs)   bands (ev):

     9.5990  10.0082  11.8543  12.3212  12.8013  15.8408  23.8966  24.9595
    29.6688  34.5222

          k =-0.0000-0.4635 0.4635 (   309 PWs)   bands (ev):

    10.1528  10.3405  11.1089  12.0407  12.5168  17.9900  20.6908  23.5933
    31.9011  35.4267

          k =-0.6952 0.0000 0.0000 (   302 PWs)   bands (ev):

     9.2752   9.7259  12.7098  12.8845  12.8845  16.0874  22.1384  28.2139
    28.2139  32.9470

          k =-0.2317-0.4635 0.6952 (   311 PWs)   bands (ev):

     9.7577  10.3831  10.9520  12.1722  12.3759  14.4851  25.2067  26.4102
    29.9833  40.7142

          k =-0.1159-0.3476 0.5793 (   312 PWs)   bands (ev):

    10.2978  10.3105  10.9156  11.9648  12.6970  18.2276  19.6963  26.7642
    27.2062  40.9030

          k =-0.6952 0.2317 0.0000 (   308 PWs)   bands (ev):

     9.8104  10.1518  11.4625  12.2815  12.8851  18.7205  22.6569  23.5708
    25.1615  39.5914

 ------ SPIN DOWN ----------


          k = 0.0000 0.0000 0.0000 (   331 PWs)   bands (ev):

     5.0047  11.2230  11.2230  11.2230  12.1137  12.1137  38.8967  41.0582
    41.0582  41.0582

          k = 0.1159 0.1159-0.1159 (   311 PWs)   bands (ev):

     6.0229  11.0409  11.3739  11.3739  12.0871  12.0871  31.9774  39.1048
    39.2291  39.2291

          k = 0.2317 0.2317-0.2317 (   308 PWs)   bands (ev):

     8.3692  11.3027  11.3112  11.3112  12.4393  12.4393  23.5927  37.7934
    37.9161  37.9161

          k =-0.3476-0.3476 0.3476 (   302 PWs)   bands (ev):

     9.1305  11.1881  11.1881  12.7295  12.7295  13.4843  18.6713  37.0560
    37.6553  37.6553

          k = 0.2317 0.0000 0.0000 (   307 PWs)   bands (ev):

     6.3528  10.8339  11.5612  11.5612  11.7882  12.2608  35.1944  35.1944
    35.9497  37.5491

          k = 0.3476 0.1159-0.1159 (   313 PWs)   bands (ev):

     8.3108  10.5723  11.2897  11.7002  12.5035  12.5379  26.8713  33.1717
    34.3604  36.2763

          k =-0.2317-0.4635 0.4635 (   307 PWs)   bands (ev):

     9.5736  10.8120  11.3495  11.5403  12.7507  15.0395  19.9254  31.0392
    33.4709  35.9853

          k =-0.1159-0.3476 0.3476 (   308 PWs)   bands (ev):

     9.4616  10.9874  11.0991  11.5309  12.3589  14.1709  21.9305  29.4345
    36.2259  37.3869

          k = 0.0000-0.2317 0.2317 (   311 PWs)   bands (ev):

     7.5646  10.7770  11.3462  11.6831  11.7957  12.6422  29.3802  30.1874
    40.6298  41.0800

          k = 0.4635 0.0000 0.0000 (   310 PWs)   bands (ev):

     9.0044  10.0856  12.3721  12.3774  12.3774  12.5588  28.8194  30.1633
    30.1633  33.6432

          k =-0.1159-0.5793 0.5793 (   311 PWs)   bands (ev):

     9.5990  10.0082  11.8543  12.3212  12.8013  15.8408  23.8966  24.9595
    29.6688  34.5222

          k =-0.0000-0.4635 0.4635 (   309 PWs)   bands (ev):

    10.1528  10.3405  11.1089  12.0407  12.5168  17.9900  20.6908  23.5933
    31.9011  35.4267

          k =-0.6952 0.0000 0.0000 (   302 PWs)   bands (ev):

     9.2752   9.7259  12.7098  12.8845  12.8845  16.0874  22.1384  28.2139
    28.2139  32.9470

          k =-0.2317-0.4635 0.6952 (   311 PWs)   bands (ev):

     9.7577  10.3831  10.9520  12.1722  12.3759  14.4851  25.2067  26.4102
    29.9833  40.7142

          k =-0.1159-0.3476 0.5793 (   312 PWs)   bands (ev):

    10.2978  10.3105  10.9156  11.9648  12.6970  18.2276  19.6963  26.7642
    27.2062  40.9030

          k =-0.6952 0.2317 0.0000 (   308 PWs)   bands (ev):

     9.8104  10.1518  11.4625  12.2815  12.8851  18.7205  22.6569  23.5708
    25.1615  39.5914

     the Fermi energy is    14.5176 ev

!    total energy              =     -87.83853420 Ry
     estimated scf accuracy    <          2.3E-12 Ry
     smearing contrib. (-TS)   =      -0.00022192 Ry
     internal energy E=F+TS    =     -87.83831228 Ry

     The total energy is F=E-TS. E is the sum of the following terms:
     one-electron contribution =     -10.19259298 Ry
     hartree contribution      =      18.87624238 Ry
     xc contribution           =     -14.05712378 Ry
     ewald contribution        =     -82.46483790 Ry

     total magnetization       =     0.00 Bohr mag/cell
     absolute magnetization    =     0.00 Bohr mag/cell

     convergence has been achieved in   8 iterations

     Forces acting on atoms (cartesian axes, Ry/au):

     atom    1 type  1   force =     0.00000000    0.00000000    0.00000000
     The non-local contrib.  to forces
     atom    1 type  1   force =    -0.00000000    0.00000000    0.00000000
     The ionic contribution  to forces
     atom    1 type  1   force =    -0.00000000   -0.00000000   -0.00000000
     The local contribution  to forces
     atom    1 type  1   force =    -0.00000000   -0.00000000    0.00000000
     The core correction contribution to forces
     atom    1 type  1   force =     0.00000000    0.00000000    0.00000000
     The Hubbard contrib.    to forces
     atom    1 type  1   force =     0.00000000    0.00000000    0.00000000
     The SCF correction term to forces
     atom    1 type  1   force =    -0.00000000   -0.00000000    0.00000000

     Total force =     0.000000     Total SCF correction =     0.000000


     Computing stress (Cartesian axis) and pressure

          total   stress  (Ry/bohr**3)                   (kbar)     P=        0.08
   0.00000056   0.00000000   0.00000000            0.08        0.00        0.00
   0.00000000   0.00000056   0.00000000            0.00        0.08        0.00
   0.00000000   0.00000000   0.00000056            0.00        0.00        0.08

     Energy error            =      2.9E-08 Ry
     Gradient error          =      0.0E+00 Ry/Bohr
     Cell gradient error     =      8.3E-02 kbar
Begin final coordinates
     new unit-cell volume =     76.11470 a.u.^3 (    11.27903 Ang^3 )
     density =      9.35547 g/cm^3

CELL_PARAMETERS (angstrom)
   0.000000000   1.779975290   1.779975290
   1.779975290   0.000000000   1.779975290
   1.779975290   1.779975290   0.000000000

ATOMIC_POSITIONS (angstrom)
Cu            0.0000000000        0.0000000000        0.0000000000
End final coordinates



     Writing config-only to output data dir /home/gridsan/epan1/labutil/lab3_samples/problem3/Lab3/Cu_a_3.5_ecut_40_nk_6/pwscf.save/

     lsda relaxation :  a final configuration with zero
                        absolute magnetization has been found

     the program is checking if it is really the minimum energy structure
     by performing a new scf iteration without any "electronic" history

     Initial potential from superposition of free atoms

     starting charge      10.9997, renormalised to      11.0000

     total cpu time spent up to now is        4.5 secs

     Self-consistent Calculation

     iteration #  1     ecut=    40.00 Ry     beta= 0.50
     Davidson diagonalization with overlap
     ethr =  1.00E-06,  avg # of iterations =  4.2

     total cpu time spent up to now is        4.7 secs

     total energy              =     -86.91865699 Ry
     estimated scf accuracy    <       1.50669994 Ry

     total magnetization       =     1.84 Bohr mag/cell
     absolute magnetization    =     1.96 Bohr mag/cell

     iteration #  2     ecut=    40.00 Ry     beta= 0.50
     Davidson diagonalization with overlap
     ethr =  1.00E-02,  avg # of iterations =  1.6

     total cpu time spent up to now is        4.7 secs

     total energy              =     -87.61077631 Ry
     estimated scf accuracy    <       0.79274410 Ry

     total magnetization       =     0.40 Bohr mag/cell
     absolute magnetization    =     0.47 Bohr mag/cell

     iteration #  3     ecut=    40.00 Ry     beta= 0.50
     Davidson diagonalization with overlap
     ethr =  7.21E-03,  avg # of iterations =  1.0

     negative rho (up, down):  0.000E+00 1.120E-06

     total cpu time spent up to now is        4.8 secs

     total energy              =     -87.79273927 Ry
     estimated scf accuracy    <       0.22896255 Ry

     total magnetization       =     0.36 Bohr mag/cell
     absolute magnetization    =     0.52 Bohr mag/cell

     iteration #  4     ecut=    40.00 Ry     beta= 0.50
     Davidson diagonalization with overlap
     ethr =  2.08E-03,  avg # of iterations =  1.5

     negative rho (up, down):  0.000E+00 3.888E-07

     total cpu time spent up to now is        4.9 secs

     total energy              =     -87.82567614 Ry
     estimated scf accuracy    <       0.05401857 Ry

     total magnetization       =    -0.06 Bohr mag/cell
     absolute magnetization    =     0.06 Bohr mag/cell

     iteration #  5     ecut=    40.00 Ry     beta= 0.50
     Davidson diagonalization with overlap
     ethr =  4.91E-04,  avg # of iterations =  1.1

     total cpu time spent up to now is        5.0 secs

     total energy              =     -87.83763169 Ry
     estimated scf accuracy    <       0.00079624 Ry

     total magnetization       =    -0.08 Bohr mag/cell
     absolute magnetization    =     0.08 Bohr mag/cell

     iteration #  6     ecut=    40.00 Ry     beta= 0.50
     Davidson diagonalization with overlap
     ethr =  7.24E-06,  avg # of iterations =  1.7

     total cpu time spent up to now is        5.1 secs

     total energy              =     -87.83845071 Ry
     estimated scf accuracy    <       0.00016596 Ry

     total magnetization       =     0.02 Bohr mag/cell
     absolute magnetization    =     0.04 Bohr mag/cell

     iteration #  7     ecut=    40.00 Ry     beta= 0.50
     Davidson diagonalization with overlap
     ethr =  1.51E-06,  avg # of iterations =  1.2

     total cpu time spent up to now is        5.2 secs

     total energy              =     -87.83851177 Ry
     estimated scf accuracy    <       0.00004213 Ry

     total magnetization       =     0.02 Bohr mag/cell
     absolute magnetization    =     0.02 Bohr mag/cell

     iteration #  8     ecut=    40.00 Ry     beta= 0.50
     Davidson diagonalization with overlap
     ethr =  3.83E-07,  avg # of iterations =  1.2

     total cpu time spent up to now is        5.3 secs

     total energy              =     -87.83853371 Ry
     estimated scf accuracy    <       0.00000087 Ry

     total magnetization       =     0.00 Bohr mag/cell
     absolute magnetization    =     0.00 Bohr mag/cell

     iteration #  9     ecut=    40.00 Ry     beta= 0.50
     Davidson diagonalization with overlap
     ethr =  7.91E-09,  avg # of iterations =  1.7

     total cpu time spent up to now is        5.4 secs

     total energy              =     -87.83853419 Ry
     estimated scf accuracy    <       0.00000002 Ry

     total magnetization       =    -0.00 Bohr mag/cell
     absolute magnetization    =     0.00 Bohr mag/cell

     iteration # 10     ecut=    40.00 Ry     beta= 0.50
     Davidson diagonalization with overlap
     ethr =  1.57E-10,  avg # of iterations =  2.1

     total cpu time spent up to now is        5.5 secs

     total energy              =     -87.83853420 Ry
     estimated scf accuracy    <          2.6E-09 Ry

     total magnetization       =    -0.00 Bohr mag/cell
     absolute magnetization    =     0.00 Bohr mag/cell

     iteration # 11     ecut=    40.00 Ry     beta= 0.50
     Davidson diagonalization with overlap
     ethr =  2.35E-11,  avg # of iterations =  1.8

     Magnetic moment per site  (integrated on atomic sphere of radius R)
     atom   1 (R=0.412)  charge=  9.7242  magn=  0.0000

     total cpu time spent up to now is        5.6 secs

     End of self-consistent calculation

 ------ SPIN UP ------------


          k = 0.0000 0.0000 0.0000 (   331 PWs)   bands (ev):

     5.0048  11.2231  11.2231  11.2231  12.1138  12.1138  38.8968  41.0582
    41.0582  41.0582

          k = 0.1159 0.1159-0.1159 (   311 PWs)   bands (ev):

     6.0229  11.0409  11.3740  11.3740  12.0872  12.0872  31.9774  39.1049
    39.2291  39.2291

          k = 0.2317 0.2317-0.2317 (   308 PWs)   bands (ev):

     8.3692  11.3028  11.3112  11.3112  12.4393  12.4393  23.5928  37.7934
    37.9161  37.9161

          k =-0.3476-0.3476 0.3476 (   302 PWs)   bands (ev):

     9.1306  11.1882  11.1882  12.7296  12.7296  13.4843  18.6713  37.0560
    37.6553  37.6553

          k = 0.2317 0.0000 0.0000 (   307 PWs)   bands (ev):

     6.3529  10.8340  11.5612  11.5612  11.7883  12.2608  35.1945  35.1945
    35.9497  37.5492

          k = 0.3476 0.1159-0.1159 (   313 PWs)   bands (ev):

     8.3109  10.5723  11.2897  11.7003  12.5036  12.5379  26.8713  33.1717
    34.3604  36.2764

          k =-0.2317-0.4635 0.4635 (   307 PWs)   bands (ev):

     9.5736  10.8120  11.3496  11.5403  12.7507  15.0395  19.9254  31.0393
    33.4709  35.9854

          k =-0.1159-0.3476 0.3476 (   308 PWs)   bands (ev):

     9.4617  10.9875  11.0991  11.5310  12.3589  14.1710  21.9305  29.4345
    36.2259  37.3869

          k = 0.0000-0.2317 0.2317 (   311 PWs)   bands (ev):

     7.5646  10.7770  11.3462  11.6832  11.7957  12.6423  29.3802  30.1874
    40.6299  41.0800

          k = 0.4635 0.0000 0.0000 (   310 PWs)   bands (ev):

     9.0045  10.0857  12.3722  12.3775  12.3775  12.5588  28.8195  30.1633
    30.1633  33.6433

          k =-0.1159-0.5793 0.5793 (   311 PWs)   bands (ev):

     9.5990  10.0082  11.8544  12.3212  12.8013  15.8409  23.8966  24.9595
    29.6688  34.5222

          k =-0.0000-0.4635 0.4635 (   309 PWs)   bands (ev):

    10.1529  10.3405  11.1090  12.0407  12.5168  17.9901  20.6908  23.5933
    31.9011  35.4267

          k =-0.6952 0.0000 0.0000 (   302 PWs)   bands (ev):

     9.2752   9.7260  12.7099  12.8846  12.8846  16.0874  22.1384  28.2139
    28.2139  32.9470

          k =-0.2317-0.4635 0.6952 (   311 PWs)   bands (ev):

     9.7577  10.3832  10.9520  12.1723  12.3760  14.4851  25.2068  26.4102
    29.9833  40.7143

          k =-0.1159-0.3476 0.5793 (   312 PWs)   bands (ev):

    10.2978  10.3105  10.9157  11.9649  12.6970  18.2276  19.6964  26.7643
    27.2062  40.9030

          k =-0.6952 0.2317 0.0000 (   308 PWs)   bands (ev):

     9.8105  10.1518  11.4626  12.2815  12.8852  18.7205  22.6569  23.5708
    25.1615  39.5914

 ------ SPIN DOWN ----------


          k = 0.0000 0.0000 0.0000 (   331 PWs)   bands (ev):

     5.0047  11.2231  11.2231  11.2231  12.1138  12.1138  38.8967  41.0582
    41.0582  41.0582

          k = 0.1159 0.1159-0.1159 (   311 PWs)   bands (ev):

     6.0228  11.0410  11.3740  11.3740  12.0872  12.0872  31.9774  39.1048
    39.2291  39.2291

          k = 0.2317 0.2317-0.2317 (   308 PWs)   bands (ev):

     8.3692  11.3028  11.3113  11.3113  12.4394  12.4394  23.5927  37.7933
    37.9161  37.9161

          k =-0.3476-0.3476 0.3476 (   302 PWs)   bands (ev):

     9.1306  11.1882  11.1882  12.7297  12.7297  13.4843  18.6713  37.0559
    37.6553  37.6553

          k = 0.2317 0.0000 0.0000 (   307 PWs)   bands (ev):

     6.3528  10.8340  11.5613  11.5613  11.7883  12.2609  35.1944  35.1944
    35.9497  37.5491

          k = 0.3476 0.1159-0.1159 (   313 PWs)   bands (ev):

     8.3108  10.5724  11.2898  11.7004  12.5036  12.5380  26.8713  33.1717
    34.3604  36.2764

          k =-0.2317-0.4635 0.4635 (   307 PWs)   bands (ev):

     9.5737  10.8121  11.3496  11.5404  12.7508  15.0395  19.9254  31.0392
    33.4709  35.9853

          k =-0.1159-0.3476 0.3476 (   308 PWs)   bands (ev):

     9.4617  10.9875  11.0992  11.5310  12.3590  14.1710  21.9305  29.4345
    36.2259  37.3869

          k = 0.0000-0.2317 0.2317 (   311 PWs)   bands (ev):

     7.5646  10.7771  11.3463  11.6832  11.7958  12.6423  29.3802  30.1874
    40.6298  41.0800

          k = 0.4635 0.0000 0.0000 (   310 PWs)   bands (ev):

     9.0045  10.0857  12.3722  12.3775  12.3775  12.5589  28.8194  30.1632
    30.1632  33.6432

          k =-0.1159-0.5793 0.5793 (   311 PWs)   bands (ev):

     9.5991  10.0083  11.8544  12.3213  12.8014  15.8408  23.8966  24.9595
    29.6687  34.5222

          k =-0.0000-0.4635 0.4635 (   309 PWs)   bands (ev):

    10.1529  10.3405  11.1090  12.0408  12.5169  17.9901  20.6908  23.5933
    31.9011  35.4267

          k =-0.6952 0.0000 0.0000 (   302 PWs)   bands (ev):

     9.2753   9.7260  12.7099  12.8846  12.8846  16.0874  22.1384  28.2139
    28.2139  32.9470

          k =-0.2317-0.4635 0.6952 (   311 PWs)   bands (ev):

     9.7577  10.3832  10.9521  12.1724  12.3761  14.4852  25.2068  26.4102
    29.9833  40.7142

          k =-0.1159-0.3476 0.5793 (   312 PWs)   bands (ev):

    10.2979  10.3106  10.9157  11.9649  12.6971  18.2276  19.6964  26.7642
    27.2062  40.9030

          k =-0.6952 0.2317 0.0000 (   308 PWs)   bands (ev):

     9.8105  10.1519  11.4626  12.2816  12.8852  18.7205  22.6569  23.5708
    25.1615  39.5914

     the Fermi energy is    14.5176 ev

!    total energy              =     -87.83853420 Ry
     estimated scf accuracy    <          4.3E-10 Ry
     smearing contrib. (-TS)   =      -0.00022190 Ry
     internal energy E=F+TS    =     -87.83831230 Ry

     The total energy is F=E-TS. E is the sum of the following terms:
     one-electron contribution =     -10.19251489 Ry
     hartree contribution      =      18.87614404 Ry
     xc contribution           =     -14.05710356 Ry
     ewald contribution        =     -82.46483790 Ry

     total magnetization       =     0.00 Bohr mag/cell
     absolute magnetization    =     0.00 Bohr mag/cell

     convergence has been achieved in  11 iterations

     Forces acting on atoms (cartesian axes, Ry/au):

     atom    1 type  1   force =     0.00000000    0.00000000    0.00000000
     The non-local contrib.  to forces
     atom    1 type  1   force =     0.00000000    0.00000000    0.00000000
     The ionic contribution  to forces
     atom    1 type  1   force =    -0.00000000   -0.00000000   -0.00000000
     The local contribution  to forces
     atom    1 type  1   force =    -0.00000000   -0.00000000    0.00000000
     The core correction contribution to forces
     atom    1 type  1   force =     0.00000000    0.00000000    0.00000000
     The Hubbard contrib.    to forces
     atom    1 type  1   force =     0.00000000    0.00000000    0.00000000
     The SCF correction term to forces
     atom    1 type  1   force =    -0.00000000    0.00000000    0.00000000

     Total force =     0.000000     Total SCF correction =     0.000000


     Computing stress (Cartesian axis) and pressure

          total   stress  (Ry/bohr**3)                   (kbar)     P=       -0.33
  -0.00000224  -0.00000000  -0.00000000           -0.33       -0.00       -0.00
   0.00000000  -0.00000224  -0.00000000            0.00       -0.33       -0.00
  -0.00000000  -0.00000000  -0.00000224           -0.00       -0.00       -0.33

     Energy error            =      2.9E-08 Ry
     Gradient error          =      0.0E+00 Ry/Bohr
     Cell gradient error     =      3.3E-01 kbar

     bfgs converged in   4 scf cycles and   2 bfgs steps
     (criteria: energy <  1.0E-04 Ry, force <  1.0E-03 Ry/Bohr, cell <  5.0E-01 kbar)

     End of BFGS Geometry Optimization

     Final enthalpy           =     -87.8385342009 Ry

     File /home/gridsan/epan1/labutil/lab3_samples/problem3/Lab3/Cu_a_3.5_ecut_40_nk_6/pwscf.bfgs deleted, as requested
Begin final coordinates
     new unit-cell volume =     76.11470 a.u.^3 (    11.27903 Ang^3 )
     density =      9.35547 g/cm^3

CELL_PARAMETERS (angstrom)
   0.000000000   1.779975290   1.779975290
   1.779975290   0.000000000   1.779975290
   1.779975290   1.779975290   0.000000000

ATOMIC_POSITIONS (angstrom)
Cu            0.0000000000        0.0000000000        0.0000000000
End final coordinates



     Writing config-only to output data dir /home/gridsan/epan1/labutil/lab3_samples/problem3/Lab3/Cu_a_3.5_ecut_40_nk_6/pwscf.save/

     Final scf calculation at the relaxed structure.
     The G-vectors are recalculated for the final unit cell
     Results may differ from those at the preceding step.

     Parallelization info
     --------------------
     sticks:   dense  smooth     PW     G-vecs:    dense   smooth      PW
     Min          62      31     10                  922      329      66
     Max          63      32     11                  926      331      69
     Sum         499     253     85                 7391     2637     537

     Using Slab Decomposition



     bravais-lattice index     =            0
     lattice parameter (alat)  =       4.6768  a.u.
     unit-cell volume          =      76.1147 (a.u.)^3
     number of atoms/cell      =            1
     number of atomic types    =            1
     number of electrons       =        11.00
     number of Kohn-Sham states=           10
     kinetic-energy cutoff     =      40.0000  Ry
     charge density cutoff     =     320.0000  Ry
     scf convergence threshold =      1.0E-09
     mixing beta               =       0.5000
     number of iterations used =            8  plain     mixing
     press convergence thresh. =      5.0E-01
     Exchange-correlation=  SLA  PZ   NOGX NOGC
                           (   1   1   0   0   0   0   0)

     celldm(1)=   4.676834  celldm(2)=   0.000000  celldm(3)=   0.000000
     celldm(4)=   0.000000  celldm(5)=   0.000000  celldm(6)=   0.000000

     crystal axes: (cart. coord. in units of alat)
               a(1) = (   0.000000   0.719219   0.719219 )  
               a(2) = (   0.719219   0.000000   0.719219 )  
               a(3) = (   0.719219   0.719219   0.000000 )  

     reciprocal axes: (cart. coord. in units 2 pi/alat)
               b(1) = ( -0.695199  0.695199  0.695199 )  
               b(2) = (  0.695199 -0.695199  0.695199 )  
               b(3) = (  0.695199  0.695199 -0.695199 )  


     PseudoPot. # 1 for Cu read from file:
     /home/gridsan/epan1/labutil/lab3_samples/pseudopotentials/Cu.pz-d-rrkjus.UPF
     MD5 check sum: fd38ae683e239c95a66f426e1f8e5fc7
     Pseudo is Ultrasoft, Zval = 11.0
     Generated by new atomic code, or converted to UPF format
     Using radial grid of  899 points,  3 beta functions with: 
                l(1) =   2
                l(2) =   2
                l(3) =   1
     Q(r) pseudized with 0 coefficients 


     atomic species   valence    mass     pseudopotential
        Cu            11.00    63.54600     Cu( 1.00)

     Starting magnetic structure 
     atomic species   magnetization
        Cu           0.000

     48 Sym. Ops., with inversion, found



   Cartesian axes

     site n.     atom                  positions (alat units)
         1           Cu  tau(   1) = (   0.0000000   0.0000000   0.0000000  )

     number of k points=    16  Methfessel-Paxton smearing, width (Ry)=  0.0200
                       cart. coord. in units 2pi/alat
        k(    1) = (   0.0000000   0.0000000   0.0000000), wk =   0.0046296
        k(    2) = (   0.1158665   0.1158665  -0.1158665), wk =   0.0370370
        k(    3) = (   0.2317330   0.2317330  -0.2317330), wk =   0.0370370
        k(    4) = (  -0.3475995  -0.3475995   0.3475995), wk =   0.0185185
        k(    5) = (   0.2317330   0.0000000   0.0000000), wk =   0.0277778
        k(    6) = (   0.3475995   0.1158665  -0.1158665), wk =   0.1111111
        k(    7) = (  -0.2317330  -0.4634659   0.4634659), wk =   0.1111111
        k(    8) = (  -0.1158665  -0.3475995   0.3475995), wk =   0.1111111
        k(    9) = (   0.0000000  -0.2317330   0.2317330), wk =   0.0555556
        k(   10) = (   0.4634659   0.0000000   0.0000000), wk =   0.0277778
        k(   11) = (  -0.1158665  -0.5793324   0.5793324), wk =   0.1111111
        k(   12) = (  -0.0000000  -0.4634659   0.4634659), wk =   0.0555556
        k(   13) = (  -0.6951989   0.0000000   0.0000000), wk =   0.0138889
        k(   14) = (  -0.2317330  -0.4634659   0.6951989), wk =   0.1111111
        k(   15) = (  -0.1158665  -0.3475995   0.5793324), wk =   0.1111111
        k(   16) = (  -0.6951989   0.2317330   0.0000000), wk =   0.0555556

     Dense  grid:     7391 G-vectors     FFT dimensions: (  27,  27,  27)

     Smooth grid:     2637 G-vectors     FFT dimensions: (  20,  20,  20)

     Estimated max dynamical RAM per process >       3.73 MB

     Estimated total dynamical RAM >      29.87 MB
     Generating pointlists ...

     Initial potential from superposition of free atoms

     starting charge      10.9997, renormalised to      11.0000
     Starting wfcs are    6 randomized atomic wfcs +    4 random wfcs

     total cpu time spent up to now is        5.8 secs

     Self-consistent Calculation

     iteration #  1     ecut=    40.00 Ry     beta= 0.50
     Davidson diagonalization with overlap
     c_bands:  1 eigenvalues not converged
     ethr =  1.00E-06,  avg # of iterations = 13.6

     total cpu time spent up to now is        6.2 secs

     total energy              =     -87.75734128 Ry
     estimated scf accuracy    <       0.24355068 Ry

     total magnetization       =     0.00 Bohr mag/cell
     absolute magnetization    =     0.00 Bohr mag/cell

     iteration #  2     ecut=    40.00 Ry     beta= 0.50
     Davidson diagonalization with overlap
     ethr =  2.21E-03,  avg # of iterations =  1.6

     total cpu time spent up to now is        6.3 secs

     total energy              =     -87.83198242 Ry
     estimated scf accuracy    <       0.03853696 Ry

     total magnetization       =     0.00 Bohr mag/cell
     absolute magnetization    =     0.00 Bohr mag/cell

     iteration #  3     ecut=    40.00 Ry     beta= 0.50
     Davidson diagonalization with overlap
     ethr =  3.50E-04,  avg # of iterations =  1.0

     total cpu time spent up to now is        6.3 secs

     total energy              =     -87.83845702 Ry
     estimated scf accuracy    <       0.00023113 Ry

     total magnetization       =     0.00 Bohr mag/cell
     absolute magnetization    =     0.00 Bohr mag/cell

     iteration #  4     ecut=    40.00 Ry     beta= 0.50
     Davidson diagonalization with overlap
     ethr =  2.10E-06,  avg # of iterations =  2.2

     total cpu time spent up to now is        6.5 secs

     total energy              =     -87.83853447 Ry
     estimated scf accuracy    <       0.00007636 Ry

     total magnetization       =     0.00 Bohr mag/cell
     absolute magnetization    =     0.00 Bohr mag/cell

     iteration #  5     ecut=    40.00 Ry     beta= 0.50
     Davidson diagonalization with overlap
     ethr =  6.94E-07,  avg # of iterations =  1.1

     total cpu time spent up to now is        6.5 secs

     total energy              =     -87.83854897 Ry
     estimated scf accuracy    <       0.00000007 Ry

     total magnetization       =     0.00 Bohr mag/cell
     absolute magnetization    =     0.00 Bohr mag/cell

     iteration #  6     ecut=    40.00 Ry     beta= 0.50
     Davidson diagonalization with overlap
     ethr =  6.68E-10,  avg # of iterations =  2.9

     total cpu time spent up to now is        6.7 secs

     total energy              =     -87.83854899 Ry
     estimated scf accuracy    <       0.00000011 Ry

     total magnetization       =     0.00 Bohr mag/cell
     absolute magnetization    =     0.00 Bohr mag/cell

     iteration #  7     ecut=    40.00 Ry     beta= 0.50
     Davidson diagonalization with overlap
     ethr =  6.68E-10,  avg # of iterations =  1.1

     total cpu time spent up to now is        6.7 secs

     total energy              =     -87.83854900 Ry
     estimated scf accuracy    <          2.8E-09 Ry

     total magnetization       =     0.00 Bohr mag/cell
     absolute magnetization    =     0.00 Bohr mag/cell

     iteration #  8     ecut=    40.00 Ry     beta= 0.50
     Davidson diagonalization with overlap
     ethr =  2.51E-11,  avg # of iterations =  1.6

     Magnetic moment per site  (integrated on atomic sphere of radius R)
     atom   1 (R=0.412)  charge=  9.7243  magn=  0.0000

     total cpu time spent up to now is        6.8 secs

     End of self-consistent calculation

 ------ SPIN UP ------------


          k = 0.0000 0.0000 0.0000 (   331 PWs)   bands (ev):

     5.0047  11.2229  11.2229  11.2229  12.1136  12.1136  38.8967  41.0582
    41.0582  41.0582

          k = 0.1159 0.1159-0.1159 (   320 PWs)   bands (ev):

     6.0229  11.0408  11.3738  11.3738  12.0870  12.0870  31.9773  39.1048
    39.2288  39.2288

          k = 0.2317 0.2317-0.2317 (   332 PWs)   bands (ev):

     8.3692  11.3026  11.3110  11.3110  12.4391  12.4391  23.5927  37.7934
    37.9160  37.9160

          k =-0.3476-0.3476 0.3476 (   332 PWs)   bands (ev):

     9.1304  11.1879  11.1879  12.7294  12.7294  13.4843  18.6712  37.0560
    37.6552  37.6552

          k = 0.2317 0.0000 0.0000 (   327 PWs)   bands (ev):

     6.3528  10.8338  11.5610  11.5610  11.7881  12.2606  35.1941  35.1941
    35.9492  37.5491

          k = 0.3476 0.1159-0.1159 (   326 PWs)   bands (ev):

     8.3108  10.5721  11.2896  11.7001  12.5034  12.5377  26.8712  33.1716
    34.3602  36.2762

          k =-0.2317-0.4635 0.4635 (   321 PWs)   bands (ev):

     9.5735  10.8119  11.3494  11.5401  12.7505  15.0394  19.9253  31.0391
    33.4707  35.9851

          k =-0.1159-0.3476 0.3476 (   321 PWs)   bands (ev):

     9.4616  10.9873  11.0990  11.5308  12.3587  14.1708  21.9304  29.4344
    36.2256  37.3868

          k = 0.0000-0.2317 0.2317 (   321 PWs)   bands (ev):

     7.5646  10.7768  11.3461  11.6830  11.7955  12.6421  29.3801  30.1874
    40.6298  41.0797

          k = 0.4635 0.0000 0.0000 (   323 PWs)   bands (ev):

     9.0044  10.0855  12.3720  12.3772  12.3772  12.5586  28.8193  30.1632
    30.1632  33.6432

          k =-0.1159-0.5793 0.5793 (   326 PWs)   bands (ev):

     9.5989  10.0081  11.8542  12.3210  12.8011  15.8408  23.8965  24.9594
    29.6687  34.5220

          k =-0.0000-0.4635 0.4635 (   323 PWs)   bands (ev):

    10.1527  10.3404  11.1088  12.0405  12.5166  17.9900  20.6907  23.5932
    31.9010  35.4266

          k =-0.6952 0.0000 0.0000 (   326 PWs)   bands (ev):

     9.2751   9.7258  12.7097  12.8843  12.8843  16.0874  22.1383  28.2138
    28.2138  32.9468

          k =-0.2317-0.4635 0.6952 (   324 PWs)   bands (ev):

     9.7576  10.3830  10.9518  12.1721  12.3758  14.4850  25.2067  26.4101
    29.9831  40.7140

          k =-0.1159-0.3476 0.5793 (   324 PWs)   bands (ev):

    10.2977  10.3104  10.9155  11.9647  12.6968  18.2275  19.6963  26.7642
    27.2062  40.9029

          k =-0.6952 0.2317 0.0000 (   330 PWs)   bands (ev):

     9.8103  10.1517  11.4624  12.2813  12.8850  18.7204  22.6568  23.5707
    25.1614  39.5911

 ------ SPIN DOWN ----------


          k = 0.0000 0.0000 0.0000 (   331 PWs)   bands (ev):

     5.0047  11.2229  11.2229  11.2229  12.1136  12.1136  38.8967  41.0582
    41.0582  41.0582

          k = 0.1159 0.1159-0.1159 (   320 PWs)   bands (ev):

     6.0229  11.0408  11.3738  11.3738  12.0870  12.0870  31.9773  39.1048
    39.2288  39.2288

          k = 0.2317 0.2317-0.2317 (   332 PWs)   bands (ev):

     8.3692  11.3026  11.3110  11.3110  12.4391  12.4391  23.5927  37.7934
    37.9160  37.9160

          k =-0.3476-0.3476 0.3476 (   332 PWs)   bands (ev):

     9.1304  11.1879  11.1879  12.7294  12.7294  13.4843  18.6712  37.0560
    37.6552  37.6552

          k = 0.2317 0.0000 0.0000 (   327 PWs)   bands (ev):

     6.3528  10.8338  11.5610  11.5610  11.7881  12.2606  35.1941  35.1941
    35.9492  37.5491

          k = 0.3476 0.1159-0.1159 (   326 PWs)   bands (ev):

     8.3108  10.5721  11.2896  11.7001  12.5034  12.5377  26.8712  33.1716
    34.3602  36.2762

          k =-0.2317-0.4635 0.4635 (   321 PWs)   bands (ev):

     9.5735  10.8119  11.3494  11.5401  12.7505  15.0394  19.9253  31.0391
    33.4707  35.9851

          k =-0.1159-0.3476 0.3476 (   321 PWs)   bands (ev):

     9.4616  10.9873  11.0990  11.5308  12.3587  14.1708  21.9304  29.4344
    36.2256  37.3868

          k = 0.0000-0.2317 0.2317 (   321 PWs)   bands (ev):

     7.5646  10.7768  11.3461  11.6830  11.7955  12.6421  29.3801  30.1874
    40.6298  41.0797

          k = 0.4635 0.0000 0.0000 (   323 PWs)   bands (ev):

     9.0044  10.0855  12.3720  12.3772  12.3772  12.5586  28.8193  30.1632
    30.1632  33.6432

          k =-0.1159-0.5793 0.5793 (   326 PWs)   bands (ev):

     9.5989  10.0081  11.8542  12.3210  12.8011  15.8408  23.8965  24.9594
    29.6687  34.5220

          k =-0.0000-0.4635 0.4635 (   323 PWs)   bands (ev):

    10.1527  10.3404  11.1088  12.0405  12.5166  17.9900  20.6907  23.5932
    31.9010  35.4266

          k =-0.6952 0.0000 0.0000 (   326 PWs)   bands (ev):

     9.2751   9.7258  12.7097  12.8843  12.8843  16.0874  22.1383  28.2138
    28.2138  32.9468

          k =-0.2317-0.4635 0.6952 (   324 PWs)   bands (ev):

     9.7576  10.3830  10.9518  12.1721  12.3758  14.4850  25.2067  26.4101
    29.9831  40.7140

          k =-0.1159-0.3476 0.5793 (   324 PWs)   bands (ev):

    10.2977  10.3104  10.9155  11.9647  12.6968  18.2275  19.6963  26.7642
    27.2062  40.9029

          k =-0.6952 0.2317 0.0000 (   330 PWs)   bands (ev):

     9.8103  10.1517  11.4624  12.2813  12.8850  18.7204  22.6568  23.5707
    25.1614  39.5911

     the Fermi energy is    14.5175 ev

!    total energy              =     -87.83854900 Ry
     estimated scf accuracy    <          8.8E-12 Ry
     smearing contrib. (-TS)   =      -0.00022195 Ry
     internal energy E=F+TS    =     -87.83832705 Ry

     The total energy is F=E-TS. E is the sum of the following terms:
     one-electron contribution =     -10.19256219 Ry
     hartree contribution      =      18.87616837 Ry
     xc contribution           =     -14.05709533 Ry
     ewald contribution        =     -82.46483790 Ry

     total magnetization       =     0.00 Bohr mag/cell
     absolute magnetization    =     0.00 Bohr mag/cell

     convergence has been achieved in   8 iterations

     Forces acting on atoms (cartesian axes, Ry/au):

     atom    1 type  1   force =     0.00000000    0.00000000    0.00000000
     The non-local contrib.  to forces
     atom    1 type  1   force =     0.00000000    0.00000000    0.00000000
     The ionic contribution  to forces
     atom    1 type  1   force =    -0.00000000   -0.00000000   -0.00000000
     The local contribution  to forces
     atom    1 type  1   force =    -0.00000000    0.00000000   -0.00000000
     The core correction contribution to forces
     atom    1 type  1   force =     0.00000000    0.00000000    0.00000000
     The Hubbard contrib.    to forces
     atom    1 type  1   force =     0.00000000    0.00000000    0.00000000
     The SCF correction term to forces
     atom    1 type  1   force =    -0.00000000   -0.00000000    0.00000000

     Total force =     0.000000     Total SCF correction =     0.000000


     Computing stress (Cartesian axis) and pressure

          total   stress  (Ry/bohr**3)                   (kbar)     P=        0.23
   0.00000159  -0.00000000  -0.00000000            0.23       -0.00       -0.00
   0.00000000   0.00000159   0.00000000            0.00        0.23        0.00
  -0.00000000   0.00000000   0.00000159           -0.00        0.00        0.23


     init_run     :      0.36s CPU      0.38s WALL (       2 calls)
     electrons    :      5.57s CPU      5.64s WALL (       6 calls)
     update_pot   :      0.13s CPU      0.12s WALL (       3 calls)
     forces       :      0.16s CPU      0.14s WALL (       6 calls)
     stress       :      0.44s CPU      0.37s WALL (       6 calls)

     Called by init_run:
     wfcinit      :      0.04s CPU      0.05s WALL (       2 calls)
     potinit      :      0.15s CPU      0.15s WALL (       3 calls)
     hinit0       :      0.17s CPU      0.18s WALL (       2 calls)

     Called by electrons:
     c_bands      :      4.53s CPU      4.65s WALL (      55 calls)
     sum_band     :      0.77s CPU      0.72s WALL (      55 calls)
     v_of_rho     :      0.07s CPU      0.07s WALL (      61 calls)
     newd         :      0.11s CPU      0.11s WALL (      61 calls)
     mix_rho      :      0.04s CPU      0.04s WALL (      55 calls)

     Called by c_bands:
     init_us_2    :      0.09s CPU      0.09s WALL (    3968 calls)
     init_us_2:cp :      0.09s CPU      0.08s WALL (    3968 calls)
     cegterg      :      3.84s CPU      3.69s WALL (    1760 calls)

     Called by *egterg:
     cdiaghg      :      0.92s CPU      0.89s WALL (    4976 calls)
     h_psi        :      2.22s CPU      2.14s WALL (    5168 calls)
     s_psi        :      0.04s CPU      0.04s WALL (    5168 calls)
     g_psi        :      0.01s CPU      0.01s WALL (    3344 calls)

     Called by h_psi:
     h_psi:calbec :      0.21s CPU      0.21s WALL (    5168 calls)
     vloc_psi     :      1.94s CPU      1.87s WALL (    5168 calls)
     add_vuspsi   :      0.04s CPU      0.04s WALL (    5168 calls)

     General routines
     calbec       :      0.32s CPU      0.31s WALL (    7888 calls)
     fft          :      0.11s CPU      0.11s WALL (     679 calls)
     ffts         :      0.12s CPU      0.12s WALL (     232 calls)
     fftw         :      1.93s CPU      1.86s WALL (  102892 calls)
     interpolate  :      0.13s CPU      0.13s WALL (     122 calls)

     Parallel routines

     PWSCF        :      6.86s CPU      7.04s WALL


   This run was terminated on:  10:53:26   3Nov2023            

=------------------------------------------------------------------------------=
   JOB DONE.
=------------------------------------------------------------------------------=
