
     Program PWSCF v.7.2 starts on  7Oct2023 at 17:43: 7 

     This program is part of the open-source Quantum ESPRESSO suite
     for quantum simulation of materials; please cite
         "P. Giannozzi et al., J. Phys.:Condens. Matter 21 395502 (2009);
         "P. Giannozzi et al., J. Phys.:Condens. Matter 29 465901 (2017);
         "P. Giannozzi et al., J. Chem. Phys. 152 154105 (2020);
          URL http://www.quantum-espresso.org", 
     in publications or presentations arising from this work. More details at
     http://www.quantum-espresso.org/quote

     Parallel version (MPI), running on     1 processors

     MPI processes distributed on     1 nodes
     36449 MiB available memory on the printing compute node when the environment starts

     Waiting for input...
     Reading input from standard input
Warning: card &CELL ignored
Warning: card / ignored

     Current dimensions of program PWSCF are:
     Max number of different atomic species (ntypx) = 10
     Max number of k-points (npk) =  40000
     Max angular momentum in pseudopotentials (lmaxx) =  4
     file Ge.pz-dn-rrkjus_psl.0.2.2.UPF: wavefunction(s)  3D renormalized
     Message from routine setup:
     using ibrav=0 with symmetry is DISCOURAGED, use correct ibrav instead

     Subspace diagonalization in iterative solution of the eigenvalue problem:
     a serial algorithm will be used


     G-vector sticks info
     --------------------
     sticks:   dense  smooth     PW     G-vecs:    dense   smooth      PW
     Sum          91      91     37                  561      561     137

     Using Slab Decomposition



     bravais-lattice index     =            0
     lattice parameter (alat)  =       3.3406  a.u.
     unit-cell volume          =      26.3607 (a.u.)^3
     number of atoms/cell      =            2
     number of atomic types    =            1
     number of electrons       =        28.00
     number of Kohn-Sham states=           14
     kinetic-energy cutoff     =      30.0000  Ry
     charge density cutoff     =     120.0000  Ry
     scf convergence threshold =      1.0E-07
     mixing beta               =       0.5000
     number of iterations used =            8  plain     mixing
     Exchange-correlation= LDA
                           (   1   1   0   0   0   0   0)

     celldm(1)=   3.340595  celldm(2)=   0.000000  celldm(3)=   0.000000
     celldm(4)=   0.000000  celldm(5)=   0.000000  celldm(6)=   0.000000

     crystal axes: (cart. coord. in units of alat)
               a(1) = (   0.000000   0.707107   0.707107 )  
               a(2) = (   0.707107   0.000000   0.707107 )  
               a(3) = (   0.707107   0.707107   0.000000 )  

     reciprocal axes: (cart. coord. in units 2 pi/alat)
               b(1) = ( -0.707107  0.707107  0.707107 )  
               b(2) = (  0.707107 -0.707107  0.707107 )  
               b(3) = (  0.707107  0.707107 -0.707107 )  


     PseudoPot. # 1 for Ge read from file:
     ./Ge.pz-dn-rrkjus_psl.0.2.2.UPF
     MD5 check sum: 9948ad5293734715c8cf6021b6c26e6d
     Pseudo is Ultrasoft + core correction, Zval = 14.0
     Generated using "atomic" code by A. Dal Corso  v.5.0.2 svn rev. 9415
     Using radial grid of 1207 points,  6 beta functions with: 
                l(1) =   0
                l(2) =   0
                l(3) =   1
                l(4) =   1
                l(5) =   2
                l(6) =   2
     Q(r) pseudized with 0 coefficients 


     atomic species   valence    mass     pseudopotential
        Ge            14.00    72.63000     Ge( 1.00)

     48 Sym. Ops., with inversion, found (24 have fractional translation)



   Cartesian axes

     site n.     atom                  positions (alat units)
         1           Ge  tau(   1) = (   0.0000000   0.0000000   0.0000000  )
         2           Ge  tau(   2) = (   0.3535534   0.3535534   0.3535534  )

     number of k points=     4
                       cart. coord. in units 2pi/alat
        k(    1) = (   0.0000000   0.0000000   0.0000000), wk =   0.0740741
        k(    2) = (   0.2357023   0.2357023  -0.2357023), wk =   0.5925926
        k(    3) = (   0.4714045   0.0000000   0.0000000), wk =   0.4444444
        k(    4) = (  -0.0000000  -0.4714045   0.4714045), wk =   0.8888889

     Dense  grid:      561 G-vectors     FFT dimensions: (  12,  12,  12)

     Estimated max dynamical RAM per process >       3.07 MB

     Check: negative core charge=   -0.000015

     Initial potential from superposition of free atoms

     starting charge      27.9988, renormalised to      28.0000
     Starting wfcs are   18 randomized atomic wfcs

     total cpu time spent up to now is        1.4 secs

     Self-consistent Calculation

     iteration #  1     ecut=    30.00 Ry     beta= 0.50
     Davidson diagonalization with overlap
     ethr =  1.00E-02,  avg # of iterations =  6.5

     total cpu time spent up to now is        1.5 secs

     total energy              =    -384.67549230 Ry
     estimated scf accuracy    <       1.52621828 Ry

     iteration #  2     ecut=    30.00 Ry     beta= 0.50
     Davidson diagonalization with overlap
     ethr =  5.45E-03,  avg # of iterations =  1.2

     total cpu time spent up to now is        1.6 secs

     total energy              =    -384.44035708 Ry
     estimated scf accuracy    <       0.35071039 Ry

     iteration #  3     ecut=    30.00 Ry     beta= 0.50
     Davidson diagonalization with overlap
     ethr =  1.25E-03,  avg # of iterations =  2.0

     total cpu time spent up to now is        1.6 secs

     total energy              =    -384.45826485 Ry
     estimated scf accuracy    <       0.00059687 Ry

     iteration #  4     ecut=    30.00 Ry     beta= 0.50
     Davidson diagonalization with overlap
     ethr =  2.13E-06,  avg # of iterations =  9.8

     total cpu time spent up to now is        1.7 secs

     total energy              =    -384.46186396 Ry
     estimated scf accuracy    <       0.00006871 Ry

     iteration #  5     ecut=    30.00 Ry     beta= 0.50
     Davidson diagonalization with overlap
     ethr =  2.45E-07,  avg # of iterations =  4.8

     total cpu time spent up to now is        1.7 secs

     total energy              =    -384.46188012 Ry
     estimated scf accuracy    <       0.00000356 Ry

     iteration #  6     ecut=    30.00 Ry     beta= 0.50
     Davidson diagonalization with overlap
     ethr =  1.27E-08,  avg # of iterations =  4.0

     total cpu time spent up to now is        1.7 secs

     total energy              =    -384.46188107 Ry
     estimated scf accuracy    <       0.00000027 Ry

     iteration #  7     ecut=    30.00 Ry     beta= 0.50
     Davidson diagonalization with overlap
     ethr =  9.62E-10,  avg # of iterations =  4.8

     total cpu time spent up to now is        1.8 secs

     End of self-consistent calculation

          k = 0.0000 0.0000 0.0000 (    65 PWs)   bands (ev):

    51.1571  51.1571  56.0408  56.0408  56.0408  62.6779  62.6779  62.6779
    74.5904  74.5904  88.0258 133.9617 135.2574 135.2574

          k = 0.2357 0.2357-0.2357 (    74 PWs)   bands (ev):

    50.7044  50.7044  56.4732  57.4519  57.4519  62.8605  66.3010  66.3010
    73.3136  73.3136  88.6623 113.7519 134.7953 134.7953

          k = 0.4714 0.0000 0.0000 (    76 PWs)   bands (ev):

    45.9208  53.0192  57.6923  58.1589  58.1589  63.9946  69.1969  69.1969
    69.3392  72.6590  93.4022 112.9431 122.4410 122.4410

          k =-0.0000-0.4714 0.4714 (    73 PWs)   bands (ev):

    49.5112  49.9468  53.8220  61.9680  62.3700  62.3962  63.0651  68.0460
    73.8810  74.1432  96.5266 107.0126 120.2866 126.1661

     highest occupied level (ev):   135.2574

!    total energy              =    -384.46188112 Ry
     estimated scf accuracy    <       0.00000002 Ry

     The total energy is the sum of the following terms:
     one-electron contribution =     128.67520024 Ry
     hartree contribution      =      59.03987669 Ry
     xc contribution           =    -125.20746206 Ry
     ewald contribution        =    -446.96949599 Ry

     convergence has been achieved in   7 iterations

     Forces acting on atoms (cartesian axes, Ry/au):

     atom    1 type  1   force =     0.00000000    0.00000000    0.00000000
     atom    2 type  1   force =     0.00000000    0.00000000    0.00000000
     The non-local contrib.  to forces
     atom    1 type  1   force =     0.00000000    0.00000000   -0.00000000
     atom    2 type  1   force =    -0.00000000   -0.00000000   -0.00000000
     The ionic contribution  to forces
     atom    1 type  1   force =     0.00000000    0.00000000    0.00000000
     atom    2 type  1   force =    -0.00000000   -0.00000000   -0.00000000
     The local contribution  to forces
     atom    1 type  1   force =     0.00000000    0.00000000    0.00000000
     atom    2 type  1   force =    -0.00000000   -0.00000000   -0.00000000
     The core correction contribution to forces
     atom    1 type  1   force =     0.00000000    0.00000000    0.00000000
     atom    2 type  1   force =    -0.00000000   -0.00000000   -0.00000000
     The Hubbard contrib.    to forces
     atom    1 type  1   force =     0.00000000    0.00000000    0.00000000
     atom    2 type  1   force =     0.00000000    0.00000000    0.00000000
     The SCF correction term to forces
     atom    1 type  1   force =     0.00000000    0.00000000    0.00000000
     atom    2 type  1   force =    -0.00000000   -0.00000000   -0.00000000

     Total force =     0.000000     Total SCF correction =     0.000000


     Computing stress (Cartesian axis) and pressure

          total   stress  (Ry/bohr**3)                   (kbar)     P=   375511.36
   2.55267434   0.00000000   0.00000000       375511.36        0.00        0.00
   0.00000000   2.55267434   0.00000000            0.00   375511.36        0.00
   0.00000000   0.00000000   2.55267434            0.00        0.00   375511.36


     init_run     :      0.34s CPU      0.42s WALL (       1 calls)
     electrons    :      0.47s CPU      0.41s WALL (       1 calls)
     forces       :      0.01s CPU      0.01s WALL (       1 calls)
     stress       :      0.07s CPU      0.07s WALL (       1 calls)

     Called by init_run:
     wfcinit      :      0.03s CPU      0.03s WALL (       1 calls)
     potinit      :      0.00s CPU      0.01s WALL (       1 calls)
     hinit0       :      0.29s CPU      0.32s WALL (       1 calls)

     Called by electrons:
     c_bands      :      0.32s CPU      0.24s WALL (       7 calls)
     sum_band     :      0.08s CPU      0.07s WALL (       7 calls)
     v_of_rho     :      0.00s CPU      0.01s WALL (       8 calls)
     newd         :      0.02s CPU      0.02s WALL (       8 calls)
     mix_rho      :      0.00s CPU      0.01s WALL (       7 calls)

     Called by c_bands:
     init_us_2    :      0.01s CPU      0.01s WALL (      68 calls)
     init_us_2:cp :      0.01s CPU      0.01s WALL (      68 calls)
     cegterg      :      0.29s CPU      0.22s WALL (      28 calls)

     Called by *egterg:
     cdiaghg      :      0.15s CPU      0.11s WALL (     160 calls)
     h_psi        :      0.12s CPU      0.09s WALL (     164 calls)
     s_psi        :      0.01s CPU      0.01s WALL (     164 calls)
     g_psi        :      0.00s CPU      0.00s WALL (     132 calls)

     Called by h_psi:
     h_psi:calbec :      0.01s CPU      0.01s WALL (     164 calls)
     vloc_psi     :      0.10s CPU      0.08s WALL (     164 calls)
     add_vuspsi   :      0.01s CPU      0.01s WALL (     164 calls)

     General routines
     calbec       :      0.01s CPU      0.01s WALL (     212 calls)
     fft          :      0.03s CPU      0.03s WALL (      40 calls)
     ffts         :      0.00s CPU      0.00s WALL (       7 calls)
     fftw         :      0.08s CPU      0.06s WALL (    2732 calls)

     Parallel routines

     PWSCF        :      1.12s CPU      2.14s WALL


   This run was terminated on:  17:43: 9   7Oct2023            

=------------------------------------------------------------------------------=
   JOB DONE.
=------------------------------------------------------------------------------=
