
     Program PWSCF v.7.2 starts on  3Nov2023 at 11: 8:39 

     This program is part of the open-source Quantum ESPRESSO suite
     for quantum simulation of materials; please cite
         "P. Giannozzi et al., J. Phys.:Condens. Matter 21 395502 (2009);
         "P. Giannozzi et al., J. Phys.:Condens. Matter 29 465901 (2017);
         "P. Giannozzi et al., J. Chem. Phys. 152 154105 (2020);
          URL http://www.quantum-espresso.org", 
     in publications or presentations arising from this work. More details at
     http://www.quantum-espresso.org/quote

     Parallel version (MPI), running on     8 processors

     MPI processes distributed on     8 nodes
     185431 MiB available memory on the printing compute node when the environment starts

     Waiting for input...
     Reading input from standard input

     Current dimensions of program PWSCF are:
     Max number of different atomic species (ntypx) = 10
     Max number of k-points (npk) =  40000
     Max angular momentum in pseudopotentials (lmaxx) =  4
     Message from routine setup:
     using ibrav=0 with symmetry is DISCOURAGED, use correct ibrav instead

     R & G space division:  proc/nbgrp/npool/nimage =       8
     Subspace diagonalization in iterative solution of the eigenvalue problem:
     a serial algorithm will be used


     Parallelization info
     --------------------
     sticks:   dense  smooth     PW     G-vecs:    dense   smooth      PW
     Min          79      39     13                 1301      461      90
     Max          80      40     14                 1303      463      91
     Sum         637     313    109                10417     3695     725

     Using Slab Decomposition



     bravais-lattice index     =            0
     lattice parameter (alat)  =       5.3450  a.u.
     unit-cell volume          =     107.9734 (a.u.)^3
     number of atoms/cell      =            1
     number of atomic types    =            1
     number of electrons       =        11.00
     number of Kohn-Sham states=           10
     kinetic-energy cutoff     =      40.0000  Ry
     charge density cutoff     =     320.0000  Ry
     scf convergence threshold =      1.0E-07
     mixing beta               =       0.5000
     number of iterations used =            8  plain     mixing
     energy convergence thresh.=      1.0E-04
     force convergence thresh. =      1.0E-03
     press convergence thresh. =      5.0E-01
     Exchange-correlation=  SLA  PZ   NOGX NOGC
                           (   1   1   0   0   0   0   0)
     nstep                     =           50


     celldm(1)=   5.344953  celldm(2)=   0.000000  celldm(3)=   0.000000
     celldm(4)=   0.000000  celldm(5)=   0.000000  celldm(6)=   0.000000

     crystal axes: (cart. coord. in units of alat)
               a(1) = (   0.000000   0.707107   0.707107 )  
               a(2) = (   0.707107   0.000000   0.707107 )  
               a(3) = (   0.707107   0.707107   0.000000 )  

     reciprocal axes: (cart. coord. in units 2 pi/alat)
               b(1) = ( -0.707107  0.707107  0.707107 )  
               b(2) = (  0.707107 -0.707107  0.707107 )  
               b(3) = (  0.707107  0.707107 -0.707107 )  


     PseudoPot. # 1 for Au read from file:
     /home/gridsan/epan1/labutil/lab3_samples/pseudopotentials/Au.pz-d-rrkjus.UPF
     MD5 check sum: 424ffd4ac9c90487cbadcd287136c95b
     Pseudo is Ultrasoft, Zval = 11.0
     Generated by new atomic code, or converted to UPF format
     Using radial grid of 1279 points,  3 beta functions with: 
                l(1) =   2
                l(2) =   2
                l(3) =   1
     Q(r) pseudized with 0 coefficients 


     atomic species   valence    mass     pseudopotential
        Au            11.00   196.96657     Au( 1.00)

     Starting magnetic structure 
     atomic species   magnetization
        Au           0.700

     48 Sym. Ops., with inversion, found



   Cartesian axes

     site n.     atom                  positions (alat units)
         1           Au  tau(   1) = (   0.0000000   0.0000000   0.0000000  )

     number of k points=    72  Methfessel-Paxton smearing, width (Ry)=  0.0200
                       cart. coord. in units 2pi/alat
        k(    1) = (   0.0000000   0.0000000   0.0000000), wk =   0.0005787
        k(    2) = (   0.0589256   0.0589256  -0.0589256), wk =   0.0046296
        k(    3) = (   0.1178511   0.1178511  -0.1178511), wk =   0.0046296
        k(    4) = (   0.1767767   0.1767767  -0.1767767), wk =   0.0046296
        k(    5) = (   0.2357023   0.2357023  -0.2357023), wk =   0.0046296
        k(    6) = (   0.2946278   0.2946278  -0.2946278), wk =   0.0046296
        k(    7) = (  -0.3535534  -0.3535534   0.3535534), wk =   0.0023148
        k(    8) = (   0.1178511   0.0000000   0.0000000), wk =   0.0034722
        k(    9) = (   0.1767767   0.0589256  -0.0589256), wk =   0.0138889
        k(   10) = (   0.2357023   0.1178511  -0.1178511), wk =   0.0138889
        k(   11) = (   0.2946278   0.1767767  -0.1767767), wk =   0.0138889
        k(   12) = (   0.3535534   0.2357023  -0.2357023), wk =   0.0138889
        k(   13) = (  -0.2946278  -0.4124790   0.4124790), wk =   0.0138889
        k(   14) = (  -0.2357023  -0.3535534   0.3535534), wk =   0.0138889
        k(   15) = (  -0.1767767  -0.2946278   0.2946278), wk =   0.0138889
        k(   16) = (  -0.1178511  -0.2357023   0.2357023), wk =   0.0138889
        k(   17) = (  -0.0589256  -0.1767767   0.1767767), wk =   0.0138889
        k(   18) = (  -0.0000000  -0.1178511   0.1178511), wk =   0.0069444
        k(   19) = (   0.2357023   0.0000000   0.0000000), wk =   0.0034722
        k(   20) = (   0.2946278   0.0589256  -0.0589256), wk =   0.0138889
        k(   21) = (   0.3535534   0.1178511  -0.1178511), wk =   0.0138889
        k(   22) = (   0.4124790   0.1767767  -0.1767767), wk =   0.0138889
        k(   23) = (  -0.2357023  -0.4714045   0.4714045), wk =   0.0138889
        k(   24) = (  -0.1767767  -0.4124790   0.4124790), wk =   0.0138889
        k(   25) = (  -0.1178511  -0.3535534   0.3535534), wk =   0.0138889
        k(   26) = (  -0.0589256  -0.2946278   0.2946278), wk =   0.0138889
        k(   27) = (   0.0000000  -0.2357023   0.2357023), wk =   0.0069444
        k(   28) = (   0.3535534   0.0000000   0.0000000), wk =   0.0034722
        k(   29) = (   0.4124790   0.0589256  -0.0589256), wk =   0.0138889
        k(   30) = (   0.4714045   0.1178511  -0.1178511), wk =   0.0138889
        k(   31) = (  -0.1767767  -0.5303301   0.5303301), wk =   0.0138889
        k(   32) = (  -0.1178511  -0.4714045   0.4714045), wk =   0.0138889
        k(   33) = (  -0.0589256  -0.4124790   0.4124790), wk =   0.0138889
        k(   34) = (   0.0000000  -0.3535534   0.3535534), wk =   0.0069444
        k(   35) = (   0.4714045   0.0000000   0.0000000), wk =   0.0034722
        k(   36) = (   0.5303301   0.0589256  -0.0589256), wk =   0.0138889
        k(   37) = (  -0.1178511  -0.5892557   0.5892557), wk =   0.0138889
        k(   38) = (  -0.0589256  -0.5303301   0.5303301), wk =   0.0138889
        k(   39) = (  -0.0000000  -0.4714045   0.4714045), wk =   0.0069444
        k(   40) = (   0.5892557   0.0000000   0.0000000), wk =   0.0034722
        k(   41) = (  -0.0589256  -0.6481812   0.6481812), wk =   0.0138889
        k(   42) = (   0.0000000  -0.5892557   0.5892557), wk =   0.0069444
        k(   43) = (  -0.7071068   0.0000000   0.0000000), wk =   0.0017361
        k(   44) = (   0.2357023   0.1178511  -0.0000000), wk =   0.0138889
        k(   45) = (   0.2946278   0.1767767  -0.0589256), wk =   0.0277778
        k(   46) = (   0.3535534   0.2357023  -0.1178511), wk =   0.0277778
        k(   47) = (  -0.2946278  -0.4124790   0.5303301), wk =   0.0277778
        k(   48) = (  -0.2357023  -0.3535534   0.4714045), wk =   0.0138889
        k(   49) = (   0.3535534   0.1178511   0.0000000), wk =   0.0138889
        k(   50) = (   0.4124790   0.1767767  -0.0589256), wk =   0.0277778
        k(   51) = (  -0.2357023  -0.4714045   0.5892557), wk =   0.0277778
        k(   52) = (  -0.1767767  -0.4124790   0.5303301), wk =   0.0277778
        k(   53) = (  -0.1178511  -0.3535534   0.4714045), wk =   0.0277778
        k(   54) = (  -0.0589256  -0.2946278   0.4124790), wk =   0.0277778
        k(   55) = (   0.0000000  -0.2357023   0.3535534), wk =   0.0138889
        k(   56) = (   0.4714045   0.1178511   0.0000000), wk =   0.0138889
        k(   57) = (  -0.1767767  -0.5303301   0.6481812), wk =   0.0277778
        k(   58) = (  -0.1178511  -0.4714045   0.5892557), wk =   0.0277778
        k(   59) = (  -0.0589256  -0.4124790   0.5303301), wk =   0.0277778
        k(   60) = (  -0.0000000  -0.3535534   0.4714045), wk =   0.0138889
        k(   61) = (  -0.1178511  -0.5892557   0.7071068), wk =   0.0138889
        k(   62) = (  -0.0589256  -0.5303301   0.6481812), wk =   0.0277778
        k(   63) = (  -0.0000000  -0.4714045   0.5892557), wk =   0.0138889
        k(   64) = (  -0.7071068   0.1178511   0.0000000), wk =   0.0069444
        k(   65) = (  -0.2357023  -0.4714045   0.7071068), wk =   0.0138889
        k(   66) = (  -0.1767767  -0.4124790   0.6481812), wk =   0.0277778
        k(   67) = (  -0.1178511  -0.3535534   0.5892557), wk =   0.0138889
        k(   68) = (  -0.1178511  -0.4714045   0.7071068), wk =   0.0138889
        k(   69) = (  -0.0589256  -0.4124790   0.6481812), wk =   0.0277778
        k(   70) = (   0.0000000  -0.3535534   0.5892557), wk =   0.0138889
        k(   71) = (  -0.7071068   0.2357023   0.0000000), wk =   0.0069444
        k(   72) = (  -0.7071068   0.3535534   0.0000000), wk =   0.0034722

     Dense  grid:    10417 G-vectors     FFT dimensions: (  32,  32,  32)

     Smooth grid:     3695 G-vectors     FFT dimensions: (  24,  24,  24)

     Estimated max dynamical RAM per process >       5.90 MB

     Estimated total dynamical RAM >      47.19 MB
     Generating pointlists ...
     new r_m :   0.4125 (alat units)  2.2048 (a.u.) for type    1

     Initial potential from superposition of free atoms

     starting charge      10.9999, renormalised to      11.0000
     Starting wfcs are    9 randomized atomic wfcs +    1 random wfcs

     total cpu time spent up to now is        0.6 secs

     Self-consistent Calculation

     iteration #  1     ecut=    40.00 Ry     beta= 0.50
     Davidson diagonalization with overlap
     ethr =  1.00E-02,  avg # of iterations =  5.4

     total cpu time spent up to now is        1.5 secs

     total energy              =     -66.49069707 Ry
     estimated scf accuracy    <       0.46064163 Ry

     total magnetization       =     1.26 Bohr mag/cell
     absolute magnetization    =     1.31 Bohr mag/cell

     iteration #  2     ecut=    40.00 Ry     beta= 0.50
     Davidson diagonalization with overlap
     ethr =  4.19E-03,  avg # of iterations =  1.4

     total cpu time spent up to now is        2.0 secs

     total energy              =     -66.76795762 Ry
     estimated scf accuracy    <       0.14350763 Ry

     total magnetization       =     0.40 Bohr mag/cell
     absolute magnetization    =     0.53 Bohr mag/cell

     iteration #  3     ecut=    40.00 Ry     beta= 0.50
     Davidson diagonalization with overlap
     ethr =  1.30E-03,  avg # of iterations =  1.1

     total cpu time spent up to now is        2.5 secs

     total energy              =     -66.85908909 Ry
     estimated scf accuracy    <       0.04654136 Ry

     total magnetization       =     0.21 Bohr mag/cell
     absolute magnetization    =     0.35 Bohr mag/cell

     iteration #  4     ecut=    40.00 Ry     beta= 0.50
     Davidson diagonalization with overlap
     ethr =  4.23E-04,  avg # of iterations =  1.6

     total cpu time spent up to now is        3.1 secs

     total energy              =     -66.87104179 Ry
     estimated scf accuracy    <       0.00391099 Ry

     total magnetization       =    -0.04 Bohr mag/cell
     absolute magnetization    =     0.04 Bohr mag/cell

     iteration #  5     ecut=    40.00 Ry     beta= 0.50
     Davidson diagonalization with overlap
     ethr =  3.56E-05,  avg # of iterations =  2.2

     total cpu time spent up to now is        3.7 secs

     total energy              =     -66.87220854 Ry
     estimated scf accuracy    <       0.00016921 Ry

     total magnetization       =    -0.01 Bohr mag/cell
     absolute magnetization    =     0.02 Bohr mag/cell

     iteration #  6     ecut=    40.00 Ry     beta= 0.50
     Davidson diagonalization with overlap
     ethr =  1.54E-06,  avg # of iterations =  2.2

     total cpu time spent up to now is        4.3 secs

     total energy              =     -66.87227956 Ry
     estimated scf accuracy    <       0.00001950 Ry

     total magnetization       =     0.01 Bohr mag/cell
     absolute magnetization    =     0.01 Bohr mag/cell

     iteration #  7     ecut=    40.00 Ry     beta= 0.50
     Davidson diagonalization with overlap
     ethr =  1.77E-07,  avg # of iterations =  1.5

     total cpu time spent up to now is        4.8 secs

     total energy              =     -66.87228870 Ry
     estimated scf accuracy    <       0.00000058 Ry

     total magnetization       =     0.00 Bohr mag/cell
     absolute magnetization    =     0.00 Bohr mag/cell

     iteration #  8     ecut=    40.00 Ry     beta= 0.50
     Davidson diagonalization with overlap
     ethr =  5.27E-09,  avg # of iterations =  1.5

     total cpu time spent up to now is        5.4 secs

     total energy              =     -66.87228905 Ry
     estimated scf accuracy    <       0.00000015 Ry

     total magnetization       =    -0.00 Bohr mag/cell
     absolute magnetization    =     0.00 Bohr mag/cell

     iteration #  9     ecut=    40.00 Ry     beta= 0.50
     Davidson diagonalization with overlap
     ethr =  1.35E-09,  avg # of iterations =  1.5

     Magnetic moment per site  (integrated on atomic sphere of radius R)
     atom   1 (R=0.413)  charge=  9.2957  magn= -0.0000

     total cpu time spent up to now is        6.0 secs

     End of self-consistent calculation

     Number of k-points >= 100: set verbosity='high' to print the bands.

     the Fermi energy is    17.0293 ev

!    total energy              =     -66.87228909 Ry
     estimated scf accuracy    <          2.9E-10 Ry
     smearing contrib. (-TS)   =      -0.00005455 Ry
     internal energy E=F+TS    =     -66.87223454 Ry

     The total energy is F=E-TS. E is the sum of the following terms:
     one-electron contribution =      10.18557769 Ry
     hartree contribution      =       6.82858376 Ry
     xc contribution           =     -10.49370912 Ry
     ewald contribution        =     -73.39268687 Ry

     total magnetization       =    -0.00 Bohr mag/cell
     absolute magnetization    =     0.00 Bohr mag/cell

     convergence has been achieved in   9 iterations

     Forces acting on atoms (cartesian axes, Ry/au):

     atom    1 type  1   force =     0.00000000    0.00000000    0.00000000
     The non-local contrib.  to forces
     atom    1 type  1   force =     0.00000000    0.00000000    0.00000000
     The ionic contribution  to forces
     atom    1 type  1   force =    -0.00000000   -0.00000000   -0.00000000
     The local contribution  to forces
     atom    1 type  1   force =     0.00000000    0.00000000    0.00000000
     The core correction contribution to forces
     atom    1 type  1   force =     0.00000000    0.00000000    0.00000000
     The Hubbard contrib.    to forces
     atom    1 type  1   force =     0.00000000    0.00000000    0.00000000
     The SCF correction term to forces
     atom    1 type  1   force =     0.00000000    0.00000000    0.00000000

     Total force =     0.000000     Total SCF correction =     0.000000


     Computing stress (Cartesian axis) and pressure

          total   stress  (Ry/bohr**3)                   (kbar)     P=       75.00
   0.00050985  -0.00000000  -0.00000000           75.00       -0.00       -0.00
  -0.00000000   0.00050985  -0.00000000           -0.00       75.00       -0.00
  -0.00000000  -0.00000000   0.00050985           -0.00       -0.00       75.00


     BFGS Geometry Optimization
     Energy error            =      0.0E+00 Ry
     Gradient error          =      0.0E+00 Ry/Bohr
     Cell gradient error     =      7.5E+01 kbar

     number of scf cycles    =   1
     number of bfgs steps    =   0

     enthalpy           new  =     -66.8722890892 Ry

     new trust radius        =       0.0264894824 bohr
     new conv_thr            =       0.0000001000 Ry

     new unit-cell volume =    112.15499 a.u.^3 (    16.61966 Ang^3 )
     density =     19.67975 g/cm^3

CELL_PARAMETERS (angstrom)
  -0.000000000   2.025492662   2.025492662
   2.025492662  -0.000000000   2.025492662
   2.025492662   2.025492662  -0.000000000

ATOMIC_POSITIONS (angstrom)
Au            0.0000000000        0.0000000000        0.0000000000



     Writing config-only to output data dir /home/gridsan/epan1/labutil/lab3_samples/problem3/Lab3/Au_a_4.0_ecut_40_nk_12/pwscf.save/
     NEW-OLD atomic charge density approx. for the potential
     extrapolated charge   11.41013, renormalised to   11.00000
     Generating pointlists ...

     total cpu time spent up to now is        6.3 secs

     Self-consistent Calculation

     iteration #  1     ecut=    40.00 Ry     beta= 0.50
     Davidson diagonalization with overlap
     ethr =  1.00E-06,  avg # of iterations =  3.5

     total cpu time spent up to now is        7.2 secs

     total energy              =     -66.84578868 Ry
     estimated scf accuracy    <       0.02324756 Ry

     total magnetization       =    -0.00 Bohr mag/cell
     absolute magnetization    =     0.00 Bohr mag/cell

     iteration #  2     ecut=    40.00 Ry     beta= 0.50
     Davidson diagonalization with overlap
     ethr =  2.11E-04,  avg # of iterations =  2.0

     total cpu time spent up to now is        7.9 secs

     total energy              =     -66.87384473 Ry
     estimated scf accuracy    <       0.02864922 Ry

     total magnetization       =    -0.00 Bohr mag/cell
     absolute magnetization    =     0.00 Bohr mag/cell

     iteration #  3     ecut=    40.00 Ry     beta= 0.50
     Davidson diagonalization with overlap
     ethr =  2.11E-04,  avg # of iterations =  1.0

     total cpu time spent up to now is        8.4 secs

     total energy              =     -66.87323897 Ry
     estimated scf accuracy    <       0.00629364 Ry

     total magnetization       =    -0.00 Bohr mag/cell
     absolute magnetization    =     0.00 Bohr mag/cell

     iteration #  4     ecut=    40.00 Ry     beta= 0.50
     Davidson diagonalization with overlap
     ethr =  5.72E-05,  avg # of iterations =  1.0

     total cpu time spent up to now is        8.9 secs

     total energy              =     -66.87365216 Ry
     estimated scf accuracy    <       0.00117065 Ry

     total magnetization       =    -0.00 Bohr mag/cell
     absolute magnetization    =     0.00 Bohr mag/cell

     iteration #  5     ecut=    40.00 Ry     beta= 0.50
     Davidson diagonalization with overlap
     ethr =  1.06E-05,  avg # of iterations =  1.1

     total cpu time spent up to now is        9.5 secs

     total energy              =     -66.87383024 Ry
     estimated scf accuracy    <       0.00119796 Ry

     total magnetization       =    -0.00 Bohr mag/cell
     absolute magnetization    =     0.00 Bohr mag/cell

     iteration #  6     ecut=    40.00 Ry     beta= 0.50
     Davidson diagonalization with overlap
     ethr =  1.06E-05,  avg # of iterations =  1.0

     total cpu time spent up to now is       10.0 secs

     total energy              =     -66.87295890 Ry
     estimated scf accuracy    <       0.00172107 Ry

     total magnetization       =    -0.00 Bohr mag/cell
     absolute magnetization    =     0.00 Bohr mag/cell

     iteration #  7     ecut=    40.00 Ry     beta= 0.50
     Davidson diagonalization with overlap
     ethr =  1.06E-05,  avg # of iterations =  2.0

     total cpu time spent up to now is       10.6 secs

     total energy              =     -66.87323996 Ry
     estimated scf accuracy    <       0.00001589 Ry

     total magnetization       =     0.00 Bohr mag/cell
     absolute magnetization    =     0.00 Bohr mag/cell

     iteration #  8     ecut=    40.00 Ry     beta= 0.50
     Davidson diagonalization with overlap
     ethr =  1.44E-07,  avg # of iterations =  2.0

     total cpu time spent up to now is       11.2 secs

     total energy              =     -66.87324032 Ry
     estimated scf accuracy    <       0.00000608 Ry

     total magnetization       =     0.00 Bohr mag/cell
     absolute magnetization    =     0.00 Bohr mag/cell

     iteration #  9     ecut=    40.00 Ry     beta= 0.50
     Davidson diagonalization with overlap
     ethr =  5.53E-08,  avg # of iterations =  2.0

     total cpu time spent up to now is       11.8 secs

     total energy              =     -66.87324089 Ry
     estimated scf accuracy    <       0.00000621 Ry

     total magnetization       =     0.00 Bohr mag/cell
     absolute magnetization    =     0.00 Bohr mag/cell

     iteration # 10     ecut=    40.00 Ry     beta= 0.50
     Davidson diagonalization with overlap
     ethr =  5.53E-08,  avg # of iterations =  1.0

     total cpu time spent up to now is       12.3 secs

     total energy              =     -66.87324085 Ry
     estimated scf accuracy    <       0.00000444 Ry

     total magnetization       =     0.00 Bohr mag/cell
     absolute magnetization    =     0.00 Bohr mag/cell

     iteration # 11     ecut=    40.00 Ry     beta= 0.50
     Davidson diagonalization with overlap
     ethr =  4.04E-08,  avg # of iterations =  1.2

     total cpu time spent up to now is       12.8 secs

     total energy              =     -66.87324133 Ry
     estimated scf accuracy    <       0.00000506 Ry

     total magnetization       =     0.00 Bohr mag/cell
     absolute magnetization    =     0.00 Bohr mag/cell

     iteration # 12     ecut=    40.00 Ry     beta= 0.50
     Davidson diagonalization with overlap
     ethr =  4.04E-08,  avg # of iterations =  1.0

     total cpu time spent up to now is       13.4 secs

     total energy              =     -66.87324132 Ry
     estimated scf accuracy    <       0.00000468 Ry

     total magnetization       =     0.00 Bohr mag/cell
     absolute magnetization    =     0.00 Bohr mag/cell

     iteration # 13     ecut=    40.00 Ry     beta= 0.50
     Davidson diagonalization with overlap
     ethr =  4.04E-08,  avg # of iterations =  1.0

     total cpu time spent up to now is       13.9 secs

     total energy              =     -66.87323926 Ry
     estimated scf accuracy    <       0.00000465 Ry

     total magnetization       =     0.00 Bohr mag/cell
     absolute magnetization    =     0.00 Bohr mag/cell

     iteration # 14     ecut=    40.00 Ry     beta= 0.50
     Davidson diagonalization with overlap
     ethr =  4.04E-08,  avg # of iterations =  2.0

     total cpu time spent up to now is       14.5 secs

     total energy              =     -66.87324007 Ry
     estimated scf accuracy    <       0.00000102 Ry

     total magnetization       =     0.00 Bohr mag/cell
     absolute magnetization    =     0.00 Bohr mag/cell

     iteration # 15     ecut=    40.00 Ry     beta= 0.50
     Davidson diagonalization with overlap
     ethr =  9.28E-09,  avg # of iterations =  1.0

     total cpu time spent up to now is       15.1 secs

     total energy              =     -66.87323989 Ry
     estimated scf accuracy    <       0.00000082 Ry

     total magnetization       =     0.00 Bohr mag/cell
     absolute magnetization    =     0.00 Bohr mag/cell

     iteration # 16     ecut=    40.00 Ry     beta= 0.50
     Davidson diagonalization with overlap
     ethr =  7.50E-09,  avg # of iterations =  1.0

     total cpu time spent up to now is       16.3 secs

     total energy              =     -66.87323987 Ry
     estimated scf accuracy    <       0.00000028 Ry

     total magnetization       =    -0.00 Bohr mag/cell
     absolute magnetization    =     0.00 Bohr mag/cell

     iteration # 17     ecut=    40.00 Ry     beta= 0.50
     Davidson diagonalization with overlap
     ethr =  2.55E-09,  avg # of iterations =  1.0

     Magnetic moment per site  (integrated on atomic sphere of radius R)
     atom   1 (R=0.413)  charge=  9.2466  magn=  0.0000

     total cpu time spent up to now is       17.1 secs

     End of self-consistent calculation

     Number of k-points >= 100: set verbosity='high' to print the bands.

     the Fermi energy is    16.0931 ev

!    total energy              =     -66.87323986 Ry
     estimated scf accuracy    <       0.00000009 Ry
     smearing contrib. (-TS)   =      -0.00009615 Ry
     internal energy E=F+TS    =     -66.87314371 Ry

     The total energy is F=E-TS. E is the sum of the following terms:
     one-electron contribution =       8.89697892 Ry
     hartree contribution      =       7.15854682 Ry
     xc contribution           =     -10.45969608 Ry
     ewald contribution        =     -72.46897337 Ry

     total magnetization       =     0.00 Bohr mag/cell
     absolute magnetization    =     0.00 Bohr mag/cell

     convergence has been achieved in  17 iterations

     Forces acting on atoms (cartesian axes, Ry/au):

     atom    1 type  1   force =     0.00000000    0.00000000    0.00000000
     The non-local contrib.  to forces
     atom    1 type  1   force =    -0.00000000    0.00000000    0.00000000
     The ionic contribution  to forces
     atom    1 type  1   force =    -0.00000000   -0.00000000   -0.00000000
     The local contribution  to forces
     atom    1 type  1   force =     0.00000000    0.00000000    0.00000000
     The core correction contribution to forces
     atom    1 type  1   force =     0.00000000    0.00000000    0.00000000
     The Hubbard contrib.    to forces
     atom    1 type  1   force =     0.00000000    0.00000000    0.00000000
     The SCF correction term to forces
     atom    1 type  1   force =     0.00000000    0.00000000    0.00000000

     Total force =     0.000000     Total SCF correction =     0.000000


     Computing stress (Cartesian axis) and pressure

          total   stress  (Ry/bohr**3)                   (kbar)     P=       -4.61
  -0.00003132   0.00000000   0.00000000           -4.61        0.00        0.00
   0.00000000  -0.00003132  -0.00000000            0.00       -4.61       -0.00
   0.00000000  -0.00000000  -0.00003132            0.00       -0.00       -4.61

     Energy error            =      9.5E-04 Ry
     Gradient error          =      0.0E+00 Ry/Bohr
     Cell gradient error     =      4.6E+00 kbar

     number of scf cycles    =   2
     number of bfgs steps    =   1

     enthalpy           old  =     -66.8722890892 Ry
     enthalpy           new  =     -66.8732398610 Ry

     CASE: enthalpy          _new < enthalpy          _old

     new trust radius        =       0.0015799466 bohr
     new conv_thr            =       0.0000000010 Ry

     new unit-cell volume =    111.90420 a.u.^3 (    16.58249 Ang^3 )
     density =     19.72386 g/cm^3

CELL_PARAMETERS (angstrom)
  -0.000000000   2.023981768   2.023981768
   2.023981768  -0.000000000   2.023981768
   2.023981768   2.023981768  -0.000000000

ATOMIC_POSITIONS (angstrom)
Au            0.0000000000        0.0000000000        0.0000000000



     Writing config-only to output data dir /home/gridsan/epan1/labutil/lab3_samples/problem3/Lab3/Au_a_4.0_ecut_40_nk_12/pwscf.save/
     NEW-OLD atomic charge density approx. for the potential
     extrapolated charge   10.97535, renormalised to   11.00000
     Generating pointlists ...

     total cpu time spent up to now is       17.9 secs

     Self-consistent Calculation

     iteration #  1     ecut=    40.00 Ry     beta= 0.50
     Davidson diagonalization with overlap
     ethr =  1.00E-06,  avg # of iterations =  2.0

     total cpu time spent up to now is       18.7 secs

     total energy              =     -66.87314276 Ry
     estimated scf accuracy    <       0.00008973 Ry

     total magnetization       =     0.00 Bohr mag/cell
     absolute magnetization    =     0.00 Bohr mag/cell

     iteration #  2     ecut=    40.00 Ry     beta= 0.50
     Davidson diagonalization with overlap
     ethr =  8.16E-07,  avg # of iterations =  2.0

     total cpu time spent up to now is       19.3 secs

     total energy              =     -66.87324594 Ry
     estimated scf accuracy    <       0.00010280 Ry

     total magnetization       =     0.00 Bohr mag/cell
     absolute magnetization    =     0.00 Bohr mag/cell

     iteration #  3     ecut=    40.00 Ry     beta= 0.50
     Davidson diagonalization with overlap
     ethr =  8.16E-07,  avg # of iterations =  1.0

     total cpu time spent up to now is       19.8 secs

     total energy              =     -66.87324502 Ry
     estimated scf accuracy    <       0.00002149 Ry

     total magnetization       =     0.00 Bohr mag/cell
     absolute magnetization    =     0.00 Bohr mag/cell

     iteration #  4     ecut=    40.00 Ry     beta= 0.50
     Davidson diagonalization with overlap
     ethr =  1.95E-07,  avg # of iterations =  1.0

     total cpu time spent up to now is       20.4 secs

     total energy              =     -66.87324584 Ry
     estimated scf accuracy    <       0.00000506 Ry

     total magnetization       =     0.00 Bohr mag/cell
     absolute magnetization    =     0.00 Bohr mag/cell

     iteration #  5     ecut=    40.00 Ry     beta= 0.50
     Davidson diagonalization with overlap
     ethr =  4.60E-08,  avg # of iterations =  1.0

     total cpu time spent up to now is       20.9 secs

     total energy              =     -66.87324484 Ry
     estimated scf accuracy    <       0.00000419 Ry

     total magnetization       =     0.00 Bohr mag/cell
     absolute magnetization    =     0.00 Bohr mag/cell

     iteration #  6     ecut=    40.00 Ry     beta= 0.50
     Davidson diagonalization with overlap
     ethr =  3.81E-08,  avg # of iterations =  1.0

     total cpu time spent up to now is       21.4 secs

     total energy              =     -66.87324440 Ry
     estimated scf accuracy    <       0.00000162 Ry

     total magnetization       =     0.00 Bohr mag/cell
     absolute magnetization    =     0.00 Bohr mag/cell

     iteration #  7     ecut=    40.00 Ry     beta= 0.50
     Davidson diagonalization with overlap
     ethr =  1.48E-08,  avg # of iterations =  1.0

     total cpu time spent up to now is       21.9 secs

     total energy              =     -66.87324435 Ry
     estimated scf accuracy    <       0.00000030 Ry

     total magnetization       =     0.00 Bohr mag/cell
     absolute magnetization    =     0.00 Bohr mag/cell

     iteration #  8     ecut=    40.00 Ry     beta= 0.50
     Davidson diagonalization with overlap
     ethr =  2.75E-09,  avg # of iterations =  1.7

     total cpu time spent up to now is       22.5 secs

     total energy              =     -66.87324441 Ry
     estimated scf accuracy    <          8.2E-09 Ry

     total magnetization       =     0.00 Bohr mag/cell
     absolute magnetization    =     0.00 Bohr mag/cell

     iteration #  9     ecut=    40.00 Ry     beta= 0.50
     Davidson diagonalization with overlap
     ethr =  7.44E-11,  avg # of iterations =  1.0

     total cpu time spent up to now is       23.0 secs

     total energy              =     -66.87324440 Ry
     estimated scf accuracy    <          5.9E-09 Ry

     total magnetization       =     0.00 Bohr mag/cell
     absolute magnetization    =     0.00 Bohr mag/cell

     iteration # 10     ecut=    40.00 Ry     beta= 0.50
     Davidson diagonalization with overlap
     ethr =  5.33E-11,  avg # of iterations =  1.0

     total cpu time spent up to now is       23.6 secs

     total energy              =     -66.87324440 Ry
     estimated scf accuracy    <          2.1E-09 Ry

     total magnetization       =     0.00 Bohr mag/cell
     absolute magnetization    =     0.00 Bohr mag/cell

     iteration # 11     ecut=    40.00 Ry     beta= 0.50
     Davidson diagonalization with overlap
     ethr =  1.90E-11,  avg # of iterations =  1.0

     Magnetic moment per site  (integrated on atomic sphere of radius R)
     atom   1 (R=0.413)  charge=  9.2494  magn= -0.0000

     total cpu time spent up to now is       24.1 secs

     End of self-consistent calculation

     Number of k-points >= 100: set verbosity='high' to print the bands.

     the Fermi energy is    16.1468 ev

!    total energy              =     -66.87324440 Ry
     estimated scf accuracy    <          4.9E-10 Ry
     smearing contrib. (-TS)   =      -0.00009402 Ry
     internal energy E=F+TS    =     -66.87315038 Ry

     The total energy is F=E-TS. E is the sum of the following terms:
     one-electron contribution =       8.97273278 Ry
     hartree contribution      =       7.13881016 Ry
     xc contribution           =     -10.46162219 Ry
     ewald contribution        =     -72.52307113 Ry

     total magnetization       =     0.00 Bohr mag/cell
     absolute magnetization    =     0.00 Bohr mag/cell

     convergence has been achieved in  11 iterations

     Forces acting on atoms (cartesian axes, Ry/au):

     atom    1 type  1   force =     0.00000000    0.00000000    0.00000000
     The non-local contrib.  to forces
     atom    1 type  1   force =     0.00000000    0.00000000    0.00000000
     The ionic contribution  to forces
     atom    1 type  1   force =    -0.00000000   -0.00000000   -0.00000000
     The local contribution  to forces
     atom    1 type  1   force =     0.00000000    0.00000000    0.00000000
     The core correction contribution to forces
     atom    1 type  1   force =     0.00000000    0.00000000    0.00000000
     The Hubbard contrib.    to forces
     atom    1 type  1   force =     0.00000000    0.00000000    0.00000000
     The SCF correction term to forces
     atom    1 type  1   force =     0.00000000    0.00000000    0.00000000

     Total force =     0.000000     Total SCF correction =     0.000000


     Computing stress (Cartesian axis) and pressure

          total   stress  (Ry/bohr**3)                   (kbar)     P=       -0.47
  -0.00000322  -0.00000000   0.00000000           -0.47       -0.00        0.00
  -0.00000000  -0.00000322   0.00000000           -0.00       -0.47        0.00
  -0.00000000  -0.00000000  -0.00000322           -0.00       -0.00       -0.47

     Energy error            =      4.5E-06 Ry
     Gradient error          =      0.0E+00 Ry/Bohr
     Cell gradient error     =      4.7E-01 kbar
Begin final coordinates
     new unit-cell volume =    111.90420 a.u.^3 (    16.58249 Ang^3 )
     density =     19.72386 g/cm^3

CELL_PARAMETERS (angstrom)
  -0.000000000   2.023981768   2.023981768
   2.023981768  -0.000000000   2.023981768
   2.023981768   2.023981768  -0.000000000

ATOMIC_POSITIONS (angstrom)
Au            0.0000000000        0.0000000000        0.0000000000
End final coordinates



     Writing config-only to output data dir /home/gridsan/epan1/labutil/lab3_samples/problem3/Lab3/Au_a_4.0_ecut_40_nk_12/pwscf.save/

     lsda relaxation :  a final configuration with zero
                        absolute magnetization has been found

     the program is checking if it is really the minimum energy structure
     by performing a new scf iteration without any "electronic" history

     Initial potential from superposition of free atoms

     starting charge      10.9999, renormalised to      11.0000

     total cpu time spent up to now is       24.4 secs

     Self-consistent Calculation

     iteration #  1     ecut=    40.00 Ry     beta= 0.50
     Davidson diagonalization with overlap
     ethr =  1.00E-06,  avg # of iterations =  3.9

     total cpu time spent up to now is       25.3 secs

     total energy              =     -66.48977647 Ry
     estimated scf accuracy    <       0.46774583 Ry

     total magnetization       =     1.27 Bohr mag/cell
     absolute magnetization    =     1.33 Bohr mag/cell

     iteration #  2     ecut=    40.00 Ry     beta= 0.50
     Davidson diagonalization with overlap
     ethr =  4.25E-03,  avg # of iterations =  1.5

     total cpu time spent up to now is       25.9 secs

     total energy              =     -66.76553117 Ry
     estimated scf accuracy    <       0.14917003 Ry

     total magnetization       =     0.40 Bohr mag/cell
     absolute magnetization    =     0.53 Bohr mag/cell

     iteration #  3     ecut=    40.00 Ry     beta= 0.50
     Davidson diagonalization with overlap
     ethr =  1.36E-03,  avg # of iterations =  1.0

     total cpu time spent up to now is       26.4 secs

     total energy              =     -66.85933610 Ry
     estimated scf accuracy    <       0.04827616 Ry

     total magnetization       =     0.21 Bohr mag/cell
     absolute magnetization    =     0.36 Bohr mag/cell

     iteration #  4     ecut=    40.00 Ry     beta= 0.50
     Davidson diagonalization with overlap
     ethr =  4.39E-04,  avg # of iterations =  1.5

     total cpu time spent up to now is       27.0 secs

     total energy              =     -66.87184623 Ry
     estimated scf accuracy    <       0.00448813 Ry

     total magnetization       =    -0.04 Bohr mag/cell
     absolute magnetization    =     0.04 Bohr mag/cell

     iteration #  5     ecut=    40.00 Ry     beta= 0.50
     Davidson diagonalization with overlap
     ethr =  4.08E-05,  avg # of iterations =  2.0

     total cpu time spent up to now is       27.6 secs

     total energy              =     -66.87315570 Ry
     estimated scf accuracy    <       0.00016787 Ry

     total magnetization       =    -0.01 Bohr mag/cell
     absolute magnetization    =     0.03 Bohr mag/cell

     iteration #  6     ecut=    40.00 Ry     beta= 0.50
     Davidson diagonalization with overlap
     ethr =  1.53E-06,  avg # of iterations =  1.7

     total cpu time spent up to now is       28.2 secs

     total energy              =     -66.87323341 Ry
     estimated scf accuracy    <       0.00002270 Ry

     total magnetization       =     0.01 Bohr mag/cell
     absolute magnetization    =     0.01 Bohr mag/cell

     iteration #  7     ecut=    40.00 Ry     beta= 0.50
     Davidson diagonalization with overlap
     ethr =  2.06E-07,  avg # of iterations =  1.5

     total cpu time spent up to now is       28.8 secs

     total energy              =     -66.87324402 Ry
     estimated scf accuracy    <       0.00000066 Ry

     total magnetization       =     0.00 Bohr mag/cell
     absolute magnetization    =     0.00 Bohr mag/cell

     iteration #  8     ecut=    40.00 Ry     beta= 0.50
     Davidson diagonalization with overlap
     ethr =  6.02E-09,  avg # of iterations =  1.5

     total cpu time spent up to now is       29.4 secs

     total energy              =     -66.87324437 Ry
     estimated scf accuracy    <       0.00000009 Ry

     total magnetization       =    -0.00 Bohr mag/cell
     absolute magnetization    =     0.00 Bohr mag/cell

     iteration #  9     ecut=    40.00 Ry     beta= 0.50
     Davidson diagonalization with overlap
     ethr =  8.01E-10,  avg # of iterations =  1.4

     Magnetic moment per site  (integrated on atomic sphere of radius R)
     atom   1 (R=0.413)  charge=  9.2494  magn= -0.0000

     total cpu time spent up to now is       30.0 secs

     End of self-consistent calculation

     Number of k-points >= 100: set verbosity='high' to print the bands.

     the Fermi energy is    16.1467 ev

!    total energy              =     -66.87324440 Ry
     estimated scf accuracy    <          5.0E-10 Ry
     smearing contrib. (-TS)   =      -0.00009402 Ry
     internal energy E=F+TS    =     -66.87315038 Ry

     The total energy is F=E-TS. E is the sum of the following terms:
     one-electron contribution =       8.97271167 Ry
     hartree contribution      =       7.13883790 Ry
     xc contribution           =     -10.46162882 Ry
     ewald contribution        =     -72.52307113 Ry

     total magnetization       =    -0.00 Bohr mag/cell
     absolute magnetization    =     0.00 Bohr mag/cell

     convergence has been achieved in   9 iterations

     Forces acting on atoms (cartesian axes, Ry/au):

     atom    1 type  1   force =     0.00000000    0.00000000    0.00000000
     The non-local contrib.  to forces
     atom    1 type  1   force =     0.00000000    0.00000000   -0.00000000
     The ionic contribution  to forces
     atom    1 type  1   force =    -0.00000000   -0.00000000   -0.00000000
     The local contribution  to forces
     atom    1 type  1   force =     0.00000000    0.00000000    0.00000000
     The core correction contribution to forces
     atom    1 type  1   force =     0.00000000    0.00000000    0.00000000
     The Hubbard contrib.    to forces
     atom    1 type  1   force =     0.00000000    0.00000000    0.00000000
     The SCF correction term to forces
     atom    1 type  1   force =     0.00000000    0.00000000    0.00000000

     Total force =     0.000000     Total SCF correction =     0.000000


     Computing stress (Cartesian axis) and pressure

          total   stress  (Ry/bohr**3)                   (kbar)     P=       -0.39
  -0.00000263   0.00000000  -0.00000000           -0.39        0.00       -0.00
   0.00000000  -0.00000263  -0.00000000            0.00       -0.39       -0.00
  -0.00000000  -0.00000000  -0.00000263           -0.00       -0.00       -0.39

     Energy error            =      4.5E-06 Ry
     Gradient error          =      0.0E+00 Ry/Bohr
     Cell gradient error     =      3.9E-01 kbar

     bfgs converged in   3 scf cycles and   2 bfgs steps
     (criteria: energy <  1.0E-04 Ry, force <  1.0E-03 Ry/Bohr, cell <  5.0E-01 kbar)

     End of BFGS Geometry Optimization

     Final enthalpy           =     -66.8732444041 Ry

     File /home/gridsan/epan1/labutil/lab3_samples/problem3/Lab3/Au_a_4.0_ecut_40_nk_12/pwscf.bfgs deleted, as requested
Begin final coordinates
     new unit-cell volume =    111.90420 a.u.^3 (    16.58249 Ang^3 )
     density =     19.72386 g/cm^3

CELL_PARAMETERS (angstrom)
  -0.000000000   2.023981768   2.023981768
   2.023981768  -0.000000000   2.023981768
   2.023981768   2.023981768  -0.000000000

ATOMIC_POSITIONS (angstrom)
Au            0.0000000000        0.0000000000        0.0000000000
End final coordinates



     Writing config-only to output data dir /home/gridsan/epan1/labutil/lab3_samples/problem3/Lab3/Au_a_4.0_ecut_40_nk_12/pwscf.save/

     Final scf calculation at the relaxed structure.
     The G-vectors are recalculated for the final unit cell
     Results may differ from those at the preceding step.

     Parallelization info
     --------------------
     sticks:   dense  smooth     PW     G-vecs:    dense   smooth      PW
     Min          81      39     13                 1355      479      92
     Max          82      40     14                 1358      484      95
     Sum         649     313    109                10849     3839     749

     Using Slab Decomposition



     bravais-lattice index     =            0
     lattice parameter (alat)  =       5.3450  a.u.
     unit-cell volume          =     111.9042 (a.u.)^3
     number of atoms/cell      =            1
     number of atomic types    =            1
     number of electrons       =        11.00
     number of Kohn-Sham states=           10
     kinetic-energy cutoff     =      40.0000  Ry
     charge density cutoff     =     320.0000  Ry
     scf convergence threshold =      1.0E-09
     mixing beta               =       0.5000
     number of iterations used =            8  plain     mixing
     press convergence thresh. =      5.0E-01
     Exchange-correlation=  SLA  PZ   NOGX NOGC
                           (   1   1   0   0   0   0   0)

     celldm(1)=   5.344953  celldm(2)=   0.000000  celldm(3)=   0.000000
     celldm(4)=   0.000000  celldm(5)=   0.000000  celldm(6)=   0.000000

     crystal axes: (cart. coord. in units of alat)
               a(1) = (  -0.000000   0.715586   0.715586 )  
               a(2) = (   0.715586  -0.000000   0.715586 )  
               a(3) = (   0.715586   0.715586  -0.000000 )  

     reciprocal axes: (cart. coord. in units 2 pi/alat)
               b(1) = ( -0.698728  0.698728  0.698728 )  
               b(2) = (  0.698728 -0.698728  0.698728 )  
               b(3) = (  0.698728  0.698728 -0.698728 )  


     PseudoPot. # 1 for Au read from file:
     /home/gridsan/epan1/labutil/lab3_samples/pseudopotentials/Au.pz-d-rrkjus.UPF
     MD5 check sum: 424ffd4ac9c90487cbadcd287136c95b
     Pseudo is Ultrasoft, Zval = 11.0
     Generated by new atomic code, or converted to UPF format
     Using radial grid of 1279 points,  3 beta functions with: 
                l(1) =   2
                l(2) =   2
                l(3) =   1
     Q(r) pseudized with 0 coefficients 


     atomic species   valence    mass     pseudopotential
        Au            11.00   196.96657     Au( 1.00)

     Starting magnetic structure 
     atomic species   magnetization
        Au          -0.000

     48 Sym. Ops., with inversion, found



   Cartesian axes

     site n.     atom                  positions (alat units)
         1           Au  tau(   1) = (   0.0000000   0.0000000   0.0000000  )

     number of k points=    72  Methfessel-Paxton smearing, width (Ry)=  0.0200
                       cart. coord. in units 2pi/alat
        k(    1) = (   0.0000000   0.0000000   0.0000000), wk =   0.0005787
        k(    2) = (   0.0582274   0.0582274  -0.0582274), wk =   0.0046296
        k(    3) = (   0.1164547   0.1164547  -0.1164547), wk =   0.0046296
        k(    4) = (   0.1746821   0.1746821  -0.1746821), wk =   0.0046296
        k(    5) = (   0.2329095   0.2329095  -0.2329095), wk =   0.0046296
        k(    6) = (   0.2911368   0.2911368  -0.2911368), wk =   0.0046296
        k(    7) = (  -0.3493642  -0.3493642   0.3493642), wk =   0.0023148
        k(    8) = (   0.1164547   0.0000000   0.0000000), wk =   0.0034722
        k(    9) = (   0.1746821   0.0582274  -0.0582274), wk =   0.0138889
        k(   10) = (   0.2329095   0.1164547  -0.1164547), wk =   0.0138889
        k(   11) = (   0.2911368   0.1746821  -0.1746821), wk =   0.0138889
        k(   12) = (   0.3493642   0.2329095  -0.2329095), wk =   0.0138889
        k(   13) = (  -0.2911368  -0.4075916   0.4075916), wk =   0.0138889
        k(   14) = (  -0.2329095  -0.3493642   0.3493642), wk =   0.0138889
        k(   15) = (  -0.1746821  -0.2911368   0.2911368), wk =   0.0138889
        k(   16) = (  -0.1164547  -0.2329095   0.2329095), wk =   0.0138889
        k(   17) = (  -0.0582274  -0.1746821   0.1746821), wk =   0.0138889
        k(   18) = (  -0.0000000  -0.1164547   0.1164547), wk =   0.0069444
        k(   19) = (   0.2329095   0.0000000   0.0000000), wk =   0.0034722
        k(   20) = (   0.2911368   0.0582274  -0.0582274), wk =   0.0138889
        k(   21) = (   0.3493642   0.1164547  -0.1164547), wk =   0.0138889
        k(   22) = (   0.4075916   0.1746821  -0.1746821), wk =   0.0138889
        k(   23) = (  -0.2329095  -0.4658189   0.4658189), wk =   0.0138889
        k(   24) = (  -0.1746821  -0.4075916   0.4075916), wk =   0.0138889
        k(   25) = (  -0.1164547  -0.3493642   0.3493642), wk =   0.0138889
        k(   26) = (  -0.0582274  -0.2911368   0.2911368), wk =   0.0138889
        k(   27) = (   0.0000000  -0.2329095   0.2329095), wk =   0.0069444
        k(   28) = (   0.3493642   0.0000000   0.0000000), wk =   0.0034722
        k(   29) = (   0.4075916   0.0582274  -0.0582274), wk =   0.0138889
        k(   30) = (   0.4658189   0.1164547  -0.1164547), wk =   0.0138889
        k(   31) = (  -0.1746821  -0.5240463   0.5240463), wk =   0.0138889
        k(   32) = (  -0.1164547  -0.4658189   0.4658189), wk =   0.0138889
        k(   33) = (  -0.0582274  -0.4075916   0.4075916), wk =   0.0138889
        k(   34) = (   0.0000000  -0.3493642   0.3493642), wk =   0.0069444
        k(   35) = (   0.4658189   0.0000000   0.0000000), wk =   0.0034722
        k(   36) = (   0.5240463   0.0582274  -0.0582274), wk =   0.0138889
        k(   37) = (  -0.1164547  -0.5822737   0.5822737), wk =   0.0138889
        k(   38) = (  -0.0582274  -0.5240463   0.5240463), wk =   0.0138889
        k(   39) = (  -0.0000000  -0.4658189   0.4658189), wk =   0.0069444
        k(   40) = (   0.5822737   0.0000000   0.0000000), wk =   0.0034722
        k(   41) = (  -0.0582274  -0.6405010   0.6405010), wk =   0.0138889
        k(   42) = (   0.0000000  -0.5822737   0.5822737), wk =   0.0069444
        k(   43) = (  -0.6987284   0.0000000   0.0000000), wk =   0.0017361
        k(   44) = (   0.2329095   0.1164547   0.0000000), wk =   0.0138889
        k(   45) = (   0.2911368   0.1746821  -0.0582274), wk =   0.0277778
        k(   46) = (   0.3493642   0.2329095  -0.1164547), wk =   0.0277778
        k(   47) = (  -0.2911368  -0.4075916   0.5240463), wk =   0.0277778
        k(   48) = (  -0.2329095  -0.3493642   0.4658189), wk =   0.0138889
        k(   49) = (   0.3493642   0.1164547   0.0000000), wk =   0.0138889
        k(   50) = (   0.4075916   0.1746821  -0.0582274), wk =   0.0277778
        k(   51) = (  -0.2329095  -0.4658189   0.5822737), wk =   0.0277778
        k(   52) = (  -0.1746821  -0.4075916   0.5240463), wk =   0.0277778
        k(   53) = (  -0.1164547  -0.3493642   0.4658189), wk =   0.0277778
        k(   54) = (  -0.0582274  -0.2911368   0.4075916), wk =   0.0277778
        k(   55) = (   0.0000000  -0.2329095   0.3493642), wk =   0.0138889
        k(   56) = (   0.4658189   0.1164547   0.0000000), wk =   0.0138889
        k(   57) = (  -0.1746821  -0.5240463   0.6405010), wk =   0.0277778
        k(   58) = (  -0.1164547  -0.4658189   0.5822737), wk =   0.0277778
        k(   59) = (  -0.0582274  -0.4075916   0.5240463), wk =   0.0277778
        k(   60) = (   0.0000000  -0.3493642   0.4658189), wk =   0.0138889
        k(   61) = (  -0.1164547  -0.5822737   0.6987284), wk =   0.0138889
        k(   62) = (  -0.0582274  -0.5240463   0.6405010), wk =   0.0277778
        k(   63) = (  -0.0000000  -0.4658189   0.5822737), wk =   0.0138889
        k(   64) = (  -0.6987284   0.1164547   0.0000000), wk =   0.0069444
        k(   65) = (  -0.2329095  -0.4658189   0.6987284), wk =   0.0138889
        k(   66) = (  -0.1746821  -0.4075916   0.6405010), wk =   0.0277778
        k(   67) = (  -0.1164547  -0.3493642   0.5822737), wk =   0.0138889
        k(   68) = (  -0.1164547  -0.4658189   0.6987284), wk =   0.0138889
        k(   69) = (  -0.0582274  -0.4075916   0.6405010), wk =   0.0277778
        k(   70) = (   0.0000000  -0.3493642   0.5822737), wk =   0.0138889
        k(   71) = (  -0.6987284   0.2329095   0.0000000), wk =   0.0069444
        k(   72) = (  -0.6987284   0.3493642   0.0000000), wk =   0.0034722

     Dense  grid:    10849 G-vectors     FFT dimensions: (  32,  32,  32)

     Smooth grid:     3839 G-vectors     FFT dimensions: (  24,  24,  24)

     Estimated max dynamical RAM per process >       6.09 MB

     Estimated total dynamical RAM >      48.73 MB
     Generating pointlists ...

     Initial potential from superposition of free atoms

     starting charge      10.9999, renormalised to      11.0000
     Starting wfcs are    9 randomized atomic wfcs +    1 random wfcs

     total cpu time spent up to now is       31.3 secs

     Self-consistent Calculation

     iteration #  1     ecut=    40.00 Ry     beta= 0.50
     Davidson diagonalization with overlap
     c_bands:  1 eigenvalues not converged
     c_bands:  1 eigenvalues not converged
     c_bands:  1 eigenvalues not converged
     c_bands:  1 eigenvalues not converged
     c_bands:  1 eigenvalues not converged
     c_bands:  1 eigenvalues not converged
     ethr =  1.00E-06,  avg # of iterations = 12.0

     total cpu time spent up to now is       33.0 secs

     total energy              =     -66.85448439 Ry
     estimated scf accuracy    <       0.07861244 Ry

     total magnetization       =    -0.00 Bohr mag/cell
     absolute magnetization    =     0.00 Bohr mag/cell

     iteration #  2     ecut=    40.00 Ry     beta= 0.50
     Davidson diagonalization with overlap
     ethr =  7.15E-04,  avg # of iterations =  2.0

     total cpu time spent up to now is       33.6 secs

     total energy              =     -66.87296014 Ry
     estimated scf accuracy    <       0.00195350 Ry

     total magnetization       =    -0.00 Bohr mag/cell
     absolute magnetization    =     0.00 Bohr mag/cell

     iteration #  3     ecut=    40.00 Ry     beta= 0.50
     Davidson diagonalization with overlap
     ethr =  1.78E-05,  avg # of iterations =  1.7

     total cpu time spent up to now is       34.2 secs

     total energy              =     -66.87327327 Ry
     estimated scf accuracy    <       0.00012233 Ry

     total magnetization       =    -0.00 Bohr mag/cell
     absolute magnetization    =     0.00 Bohr mag/cell

     iteration #  4     ecut=    40.00 Ry     beta= 0.50
     Davidson diagonalization with overlap
     ethr =  1.11E-06,  avg # of iterations =  1.4

     total cpu time spent up to now is       34.8 secs

     total energy              =     -66.87327479 Ry
     estimated scf accuracy    <       0.00000205 Ry

     total magnetization       =    -0.00 Bohr mag/cell
     absolute magnetization    =     0.00 Bohr mag/cell

     iteration #  5     ecut=    40.00 Ry     beta= 0.50
     Davidson diagonalization with overlap
     ethr =  1.86E-08,  avg # of iterations =  1.0

     total cpu time spent up to now is       35.3 secs

     total energy              =     -66.87327505 Ry
     estimated scf accuracy    <       0.00000004 Ry

     total magnetization       =    -0.00 Bohr mag/cell
     absolute magnetization    =     0.00 Bohr mag/cell

     iteration #  6     ecut=    40.00 Ry     beta= 0.50
     Davidson diagonalization with overlap
     ethr =  3.35E-10,  avg # of iterations =  1.4

     Magnetic moment per site  (integrated on atomic sphere of radius R)
     atom   1 (R=0.413)  charge=  9.2493  magn=  0.0000

     total cpu time spent up to now is       35.9 secs

     End of self-consistent calculation

     Number of k-points >= 100: set verbosity='high' to print the bands.

     the Fermi energy is    16.1466 ev

!    total energy              =     -66.87327505 Ry
     estimated scf accuracy    <          6.9E-10 Ry
     smearing contrib. (-TS)   =      -0.00009403 Ry
     internal energy E=F+TS    =     -66.87318103 Ry

     The total energy is F=E-TS. E is the sum of the following terms:
     one-electron contribution =       8.97272489 Ry
     hartree contribution      =       7.13875842 Ry
     xc contribution           =     -10.46159320 Ry
     ewald contribution        =     -72.52307113 Ry

     total magnetization       =    -0.00 Bohr mag/cell
     absolute magnetization    =     0.00 Bohr mag/cell

     convergence has been achieved in   6 iterations

     Forces acting on atoms (cartesian axes, Ry/au):

     atom    1 type  1   force =     0.00000000    0.00000000    0.00000000
     The non-local contrib.  to forces
     atom    1 type  1   force =     0.00000000   -0.00000000    0.00000000
     The ionic contribution  to forces
     atom    1 type  1   force =    -0.00000000   -0.00000000   -0.00000000
     The local contribution  to forces
     atom    1 type  1   force =     0.00000000    0.00000000    0.00000000
     The core correction contribution to forces
     atom    1 type  1   force =     0.00000000    0.00000000    0.00000000
     The Hubbard contrib.    to forces
     atom    1 type  1   force =     0.00000000    0.00000000    0.00000000
     The SCF correction term to forces
     atom    1 type  1   force =     0.00000000    0.00000000    0.00000000

     Total force =     0.000000     Total SCF correction =     0.000000


     Computing stress (Cartesian axis) and pressure

          total   stress  (Ry/bohr**3)                   (kbar)     P=       -0.49
  -0.00000331  -0.00000000  -0.00000000           -0.49       -0.00       -0.00
  -0.00000000  -0.00000331  -0.00000000           -0.00       -0.49       -0.00
  -0.00000000  -0.00000000  -0.00000331           -0.00       -0.00       -0.49


     init_run     :      0.77s CPU      1.20s WALL (       2 calls)
     electrons    :     32.51s CPU     32.62s WALL (       5 calls)
     update_pot   :      0.19s CPU      0.20s WALL (       2 calls)
     forces       :      0.36s CPU      0.36s WALL (       5 calls)
     stress       :      0.82s CPU      0.88s WALL (       5 calls)

     Called by init_run:
     wfcinit      :      0.26s CPU      0.35s WALL (       2 calls)
     potinit      :      0.21s CPU      0.21s WALL (       3 calls)
     hinit0       :      0.31s CPU      0.36s WALL (       2 calls)

     Called by electrons:
     c_bands      :     27.71s CPU     28.21s WALL (      52 calls)
     sum_band     :      4.39s CPU      3.95s WALL (      52 calls)
     v_of_rho     :      0.12s CPU      0.11s WALL (      57 calls)
     newd         :      0.17s CPU      0.15s WALL (      57 calls)
     mix_rho      :      0.07s CPU      0.07s WALL (      52 calls)

     Called by c_bands:
     init_us_2    :      0.53s CPU      0.49s WALL (   16704 calls)
     init_us_2:cp :      0.50s CPU      0.47s WALL (   16704 calls)
     cegterg      :     23.45s CPU     22.05s WALL (    7488 calls)

     Called by *egterg:
     cdiaghg      :      3.97s CPU      3.72s WALL (   20369 calls)
     h_psi        :     16.24s CPU     15.31s WALL (   21089 calls)
     s_psi        :      0.18s CPU      0.17s WALL (   21089 calls)
     g_psi        :      0.06s CPU      0.06s WALL (   13313 calls)

     Called by h_psi:
     h_psi:calbec :      1.04s CPU      0.99s WALL (   21089 calls)
     vloc_psi     :     14.87s CPU     14.01s WALL (   21089 calls)
     add_vuspsi   :      0.19s CPU      0.18s WALL (   21089 calls)

     General routines
     calbec       :      1.59s CPU      1.47s WALL (   32177 calls)
     fft          :      0.16s CPU      0.15s WALL (     633 calls)
     ffts         :      0.13s CPU      0.13s WALL (     218 calls)
     fftw         :     15.95s CPU     14.88s WALL (  429128 calls)
     interpolate  :      0.14s CPU      0.14s WALL (     114 calls)

     Parallel routines

     PWSCF        :     34.97s CPU     36.14s WALL


   This run was terminated on:  11: 9:15   3Nov2023            

=------------------------------------------------------------------------------=
   JOB DONE.
=------------------------------------------------------------------------------=
