
     Program PWSCF v.7.2 starts on  2Nov2023 at 18: 5:38 

     This program is part of the open-source Quantum ESPRESSO suite
     for quantum simulation of materials; please cite
         "P. Giannozzi et al., J. Phys.:Condens. Matter 21 395502 (2009);
         "P. Giannozzi et al., J. Phys.:Condens. Matter 29 465901 (2017);
         "P. Giannozzi et al., J. Chem. Phys. 152 154105 (2020);
          URL http://www.quantum-espresso.org", 
     in publications or presentations arising from this work. More details at
     http://www.quantum-espresso.org/quote

     Parallel version (MPI), running on     2 processors

     MPI processes distributed on     2 nodes
     187042 MiB available memory on the printing compute node when the environment starts

     Waiting for input...
     Reading input from standard input
Warning: card &CELL ignored
Warning: card / ignored

     Current dimensions of program PWSCF are:
     Max number of different atomic species (ntypx) = 10
     Max number of k-points (npk) =  40000
     Max angular momentum in pseudopotentials (lmaxx) =  4
     file O.pz-rrkjus.UPF: wavefunction(s)  2S renormalized
     Message from routine setup:
     using ibrav=0 with symmetry is DISCOURAGED, use correct ibrav instead

     R & G space division:  proc/nbgrp/npool/nimage =       2
     Subspace diagonalization in iterative solution of the eigenvalue problem:
     a serial algorithm will be used


     Parallelization info
     --------------------
     sticks:   dense  smooth     PW     G-vecs:    dense   smooth      PW
     Min         516     254     74                12418     4366     709
     Max         517     255     75                12419     4367     710
     Sum        1033     509    149                24837     8733    1419

     Using Slab Decomposition



     bravais-lattice index     =            0
     lattice parameter (alat)  =       7.3321  a.u.
     unit-cell volume          =     394.1775 (a.u.)^3
     number of atoms/cell      =            5
     number of atomic types    =            3
     number of electrons       =        44.00
     number of Kohn-Sham states=           22
     kinetic-energy cutoff     =      30.0000  Ry
     charge density cutoff     =     240.0000  Ry
     scf convergence threshold =      1.0E-07
     mixing beta               =       0.7000
     number of iterations used =            8  plain     mixing
     energy convergence thresh.=      1.0E-04
     force convergence thresh. =      1.0E-03
     Exchange-correlation= SLA  PZ   NOGX NOGC
                           (   1   1   0   0   0   0   0)
     nstep                     =           50


     celldm(1)=   7.332137  celldm(2)=   0.000000  celldm(3)=   0.000000
     celldm(4)=   0.000000  celldm(5)=   0.000000  celldm(6)=   0.000000

     crystal axes: (cart. coord. in units of alat)
               a(1) = (   1.000000   0.000000   0.000000 )  
               a(2) = (   0.000000   1.000000   0.000000 )  
               a(3) = (   0.000000   0.000000   1.000000 )  

     reciprocal axes: (cart. coord. in units 2 pi/alat)
               b(1) = (  1.000000  0.000000  0.000000 )  
               b(2) = (  0.000000  1.000000  0.000000 )  
               b(3) = (  0.000000  0.000000  1.000000 )  


     PseudoPot. # 1 for O  read from file:
     /home/gridsan/epan1/labutil/lab3_samples/pseudopotentials/O.pz-rrkjus.UPF
     MD5 check sum: 24fb942a68ef5d262e498166c462ef4a
     Pseudo is Ultrasoft, Zval =  6.0
     Generated by new atomic code, or converted to UPF format
     Using radial grid of 1269 points,  4 beta functions with: 
                l(1) =   0
                l(2) =   0
                l(3) =   1
                l(4) =   1
     Q(r) pseudized with 0 coefficients 


     PseudoPot. # 2 for Pb read from file:
     /home/gridsan/epan1/labutil/lab3_samples/pseudopotentials/Pb.pz-d-van.UPF
     MD5 check sum: 4e1e5920686a026ae26139ac417581ff
     Pseudo is Ultrasoft, Zval = 14.0
     Generated by new atomic code, or converted to UPF format
     Using radial grid of  899 points,  6 beta functions with: 
                l(1) =   0
                l(2) =   0
                l(3) =   1
                l(4) =   1
                l(5) =   2
                l(6) =   2
     Q(r) pseudized with  8 coefficients,  rinner =    1.000   1.000   1.000
                                                       1.000   1.000

     PseudoPot. # 3 for Ti read from file:
     /home/gridsan/epan1/labutil/lab3_samples/pseudopotentials/Ti.pz-sp-van_ak.UPF
     MD5 check sum: 545d0e6e05332b8871a8093f427cb0ca
     Pseudo is Ultrasoft, Zval = 12.0
     Generated by new atomic code, or converted to UPF format
     Using radial grid of  851 points,  6 beta functions with: 
                l(1) =   0
                l(2) =   0
                l(3) =   1
                l(4) =   1
                l(5) =   2
                l(6) =   2
     Q(r) pseudized with  8 coefficients,  rinner =    1.000   1.000   1.000
                                                       1.000   1.000

     atomic species   valence    mass     pseudopotential
        O              6.00    15.99900     O ( 1.00)
        Pb            14.00   207.20000     Pb( 1.00)
        Ti            12.00    47.86700     Ti( 1.00)

      8 Sym. Ops. (no inversion) found



   Cartesian axes

     site n.     atom                  positions (alat units)
         1           Pb  tau(   1) = (   0.0000000   0.0000000   0.0000000  )
         2           Ti  tau(   2) = (   0.5000000   0.5000000   0.5052629  )
         3           O   tau(   3) = (   0.0000000   0.5000000   0.5000000  )
         4           O   tau(   4) = (   0.5000000   0.0000000   0.5000000  )
         5           O   tau(   5) = (   0.5000000   0.5000000   0.0000000  )

     number of k points=     6
                       cart. coord. in units 2pi/alat
        k(    1) = (   0.1250000   0.1250000   0.1250000), wk =   0.2500000
        k(    2) = (   0.1250000   0.1250000   0.3750000), wk =   0.2500000
        k(    3) = (   0.1250000   0.3750000   0.3750000), wk =   0.5000000
        k(    4) = (   0.3750000   0.3750000   0.3750000), wk =   0.2500000
        k(    5) = (   0.3750000  -0.1250000   0.1250000), wk =   0.5000000
        k(    6) = (   0.3750000  -0.3750000   0.1250000), wk =   0.2500000

     Dense  grid:    24837 G-vectors     FFT dimensions: (  40,  40,  40)

     Smooth grid:     8733 G-vectors     FFT dimensions: (  25,  25,  25)

     Estimated max dynamical RAM per process >      51.66 MB

     Estimated total dynamical RAM >     103.32 MB

     Initial potential from superposition of free atoms

     starting charge      42.9982, renormalised to      44.0000
     Starting wfcs are   31 randomized atomic wfcs

     total cpu time spent up to now is        1.0 secs

     Self-consistent Calculation

     iteration #  1     ecut=    30.00 Ry     beta= 0.70
     Davidson diagonalization with overlap
     ethr =  1.00E-02,  avg # of iterations =  2.0

     total cpu time spent up to now is        1.3 secs

     total energy              =    -332.61321093 Ry
     estimated scf accuracy    <       1.10391801 Ry

     iteration #  2     ecut=    30.00 Ry     beta= 0.70
     Davidson diagonalization with overlap
     ethr =  2.51E-03,  avg # of iterations =  6.5

     total cpu time spent up to now is        1.7 secs

     total energy              =    -332.33447611 Ry
     estimated scf accuracy    <       4.45593544 Ry

     iteration #  3     ecut=    30.00 Ry     beta= 0.70
     Davidson diagonalization with overlap
     ethr =  2.51E-03,  avg # of iterations =  5.7

     total cpu time spent up to now is        2.0 secs

     total energy              =    -333.15893598 Ry
     estimated scf accuracy    <       0.23540665 Ry

     iteration #  4     ecut=    30.00 Ry     beta= 0.70
     Davidson diagonalization with overlap
     ethr =  5.35E-04,  avg # of iterations =  2.2

     total cpu time spent up to now is        2.3 secs

     total energy              =    -333.15429421 Ry
     estimated scf accuracy    <       0.06658422 Ry

     iteration #  5     ecut=    30.00 Ry     beta= 0.70
     Davidson diagonalization with overlap
     ethr =  1.51E-04,  avg # of iterations =  5.3

     total cpu time spent up to now is        2.7 secs

     total energy              =    -333.18275347 Ry
     estimated scf accuracy    <       0.02264357 Ry

     iteration #  6     ecut=    30.00 Ry     beta= 0.70
     Davidson diagonalization with overlap
     ethr =  5.15E-05,  avg # of iterations =  2.7

     total cpu time spent up to now is        3.0 secs

     total energy              =    -333.18245315 Ry
     estimated scf accuracy    <       0.00625537 Ry

     iteration #  7     ecut=    30.00 Ry     beta= 0.70
     Davidson diagonalization with overlap
     ethr =  1.42E-05,  avg # of iterations =  4.0

     total cpu time spent up to now is        3.3 secs

     total energy              =    -333.18450779 Ry
     estimated scf accuracy    <       0.00025647 Ry

     iteration #  8     ecut=    30.00 Ry     beta= 0.70
     Davidson diagonalization with overlap
     ethr =  5.83E-07,  avg # of iterations =  4.3

     total cpu time spent up to now is        3.6 secs

     total energy              =    -333.18450481 Ry
     estimated scf accuracy    <       0.00037799 Ry

     iteration #  9     ecut=    30.00 Ry     beta= 0.70
     Davidson diagonalization with overlap
     ethr =  5.83E-07,  avg # of iterations =  1.3

     total cpu time spent up to now is        3.8 secs

     total energy              =    -333.18445508 Ry
     estimated scf accuracy    <       0.00021643 Ry

     iteration # 10     ecut=    30.00 Ry     beta= 0.70
     Davidson diagonalization with overlap
     ethr =  4.92E-07,  avg # of iterations =  2.7

     total cpu time spent up to now is        4.1 secs

     total energy              =    -333.18447651 Ry
     estimated scf accuracy    <       0.00001674 Ry

     iteration # 11     ecut=    30.00 Ry     beta= 0.70
     Davidson diagonalization with overlap
     ethr =  3.80E-08,  avg # of iterations =  5.0

     total cpu time spent up to now is        4.5 secs

     total energy              =    -333.18448819 Ry
     estimated scf accuracy    <       0.00001367 Ry

     iteration # 12     ecut=    30.00 Ry     beta= 0.70
     Davidson diagonalization with overlap
     ethr =  3.11E-08,  avg # of iterations =  1.0

     total cpu time spent up to now is        4.7 secs

     total energy              =    -333.18448547 Ry
     estimated scf accuracy    <       0.00000852 Ry

     iteration # 13     ecut=    30.00 Ry     beta= 0.70
     Davidson diagonalization with overlap
     ethr =  1.94E-08,  avg # of iterations =  4.2

     total cpu time spent up to now is        5.0 secs

     End of self-consistent calculation

          k = 0.1250 0.1250 0.1250 (  1096 PWs)   bands (ev):

   -44.7347 -21.3405 -21.3388 -21.3382  -6.3721  -5.3038  -5.3021  -4.0222
    -4.0221  -4.0085  -3.8412  -3.8410   4.6074   7.2633   7.2642   8.0299
     9.0969   9.0995   9.8509   9.9089   9.9225  10.0570

          k = 0.1250 0.1250 0.3750 (  1095 PWs)   bands (ev):

   -44.7335 -21.3968 -21.3367 -21.3358  -5.9644  -5.1825  -5.1336  -4.0829
    -4.0173  -4.0050  -3.9390  -3.8107   3.8787   6.7939   7.2992   7.8066
     8.4051   8.7002   9.3405   9.9025  10.0664  10.8095

          k = 0.1250 0.3750 0.3750 (  1093 PWs)   bands (ev):

   -44.7323 -21.3936 -21.3917 -21.3343  -5.7506  -5.0553  -4.9865  -4.0565
    -4.0133  -3.9594  -3.8711  -3.7214   3.5137   6.7573   6.8058   7.1481
     7.4565   8.6260   9.4044   9.4384   9.9869  10.6800

          k = 0.3750 0.3750 0.3750 (  1082 PWs)   bands (ev):

   -44.7310 -21.3909 -21.3893 -21.3890  -5.3523  -5.1817  -5.1803  -3.9691
    -3.9689  -3.6803  -3.6138  -3.6132   4.1311   5.9153   5.9168   6.6666
     6.9879   6.9889   7.9326  10.6345  10.6367  10.7119

          k = 0.3750-0.1250 0.1250 (  1095 PWs)   bands (ev):

   -44.7335 -21.3951 -21.3381 -21.3361  -5.9655  -5.1839  -5.1315  -4.0828
    -4.0172  -4.0050  -3.9392  -3.8105   3.8794   6.7954   7.3025   7.8065
     8.4038   8.7043   9.3372   9.9029  10.0624  10.8076

          k = 0.3750-0.3750 0.1250 (  1093 PWs)   bands (ev):

   -44.7323 -21.3923 -21.3914 -21.3360  -5.7528  -5.0543  -4.9853  -4.0563
    -4.0132  -3.9592  -3.8710  -3.7222   3.5143   6.7668   6.7985   7.1472
     7.4554   8.6251   9.4061   9.4392   9.9861  10.6823

     highest occupied level (ev):    10.8095

!    total energy              =    -333.18448703 Ry
     estimated scf accuracy    <       0.00000009 Ry

     The total energy is the sum of the following terms:
     one-electron contribution =     -76.94658350 Ry
     hartree contribution      =      66.35456791 Ry
     xc contribution           =     -49.63339373 Ry
     ewald contribution        =    -272.95907771 Ry

     convergence has been achieved in  13 iterations

     Forces acting on atoms (cartesian axes, Ry/au):

     atom    1 type  2   force =     0.00000000    0.00000000    0.00223350
     atom    2 type  3   force =     0.00000000    0.00000000   -0.00249991
     atom    3 type  1   force =     0.00000000    0.00000000   -0.00007959
     atom    4 type  1   force =     0.00000000    0.00000000   -0.00007959
     atom    5 type  1   force =     0.00000000    0.00000000    0.00042558
     The non-local contrib.  to forces
     atom    1 type  2   force =     0.00000000    0.00000000   -0.00122973
     atom    2 type  3   force =     0.00000000    0.00000000    0.00171473
     atom    3 type  1   force =     0.00000000    0.00000000    0.00998555
     atom    4 type  1   force =     0.00000000    0.00000000    0.00998555
     atom    5 type  1   force =     0.00000000    0.00000000   -0.03918581
     The ionic contribution  to forces
     atom    1 type  2   force =     0.00000000    0.00000000    0.13775879
     atom    2 type  3   force =    -0.00000000   -0.00000000   -0.31508317
     atom    3 type  1   force =     0.00000000   -0.00000000   -0.15294443
     atom    4 type  1   force =    -0.00000000    0.00000000   -0.15294443
     atom    5 type  1   force =    -0.00000000   -0.00000000    0.48321324
     The local contribution  to forces
     atom    1 type  2   force =    -0.00000000   -0.00000000   -0.13428642
     atom    2 type  3   force =    -0.00000000   -0.00000000    0.31086903
     atom    3 type  1   force =     0.00000000   -0.00000000    0.14286841
     atom    4 type  1   force =    -0.00000000   -0.00000000    0.14286841
     atom    5 type  1   force =    -0.00000000   -0.00000000   -0.44361564
     The core correction contribution to forces
     atom    1 type  2   force =     0.00000000    0.00000000    0.00000000
     atom    2 type  3   force =     0.00000000    0.00000000    0.00000000
     atom    3 type  1   force =     0.00000000    0.00000000    0.00000000
     atom    4 type  1   force =     0.00000000    0.00000000    0.00000000
     atom    5 type  1   force =     0.00000000    0.00000000    0.00000000
     The Hubbard contrib.    to forces
     atom    1 type  2   force =     0.00000000    0.00000000    0.00000000
     atom    2 type  3   force =     0.00000000    0.00000000    0.00000000
     atom    3 type  1   force =     0.00000000    0.00000000    0.00000000
     atom    4 type  1   force =     0.00000000    0.00000000    0.00000000
     atom    5 type  1   force =     0.00000000    0.00000000    0.00000000
     The SCF correction term to forces
     atom    1 type  2   force =     0.00000000    0.00000000   -0.00000000
     atom    2 type  3   force =     0.00000000   -0.00000000   -0.00000000
     atom    3 type  1   force =     0.00000000    0.00000000    0.00000730
     atom    4 type  1   force =    -0.00000000    0.00000000    0.00000730
     atom    5 type  1   force =    -0.00000000   -0.00000000    0.00001020

     Total force =     0.000440     Total SCF correction =     0.000015


     Computing stress (Cartesian axis) and pressure

          total   stress  (Ry/bohr**3)                   (kbar)     P=      -22.41
  -0.00015379   0.00000000   0.00000000          -22.62        0.00        0.00
   0.00000000  -0.00015379   0.00000000            0.00      -22.62        0.00
   0.00000000   0.00000000  -0.00014951            0.00        0.00      -21.99


     BFGS Geometry Optimization
     Energy error            =      0.0E+00 Ry
     Gradient error          =      4.3E-04 Ry/Bohr

     bfgs converged in   1 scf cycles and   0 bfgs steps
     (criteria: energy <  1.0E-04 Ry, force <  1.0E-03 Ry/Bohr)

     End of BFGS Geometry Optimization

     Final energy             =    -333.1844870288 Ry
Begin final coordinates

ATOMIC_POSITIONS (angstrom)
Pb            0.0000000000        0.0000000000        0.0000000000    0   0   0
Ti            1.9400000000        1.9400000000        1.9604200000    0   0   0
O             0.0000000000        1.9400000000        1.9400000000
O             1.9400000000        0.0000000000        1.9400000000
O             1.9400000000        1.9400000000        0.0000000000
End final coordinates



     init_run     :      0.70s CPU      0.70s WALL (       1 calls)
     electrons    :      4.93s CPU      3.98s WALL (       1 calls)
     forces       :      0.15s CPU      0.11s WALL (       1 calls)
     stress       :      1.06s CPU      0.89s WALL (       1 calls)

     Called by init_run:
     wfcinit      :      0.09s CPU      0.08s WALL (       1 calls)
     potinit      :      0.04s CPU      0.04s WALL (       1 calls)
     hinit0       :      0.45s CPU      0.47s WALL (       1 calls)

     Called by electrons:
     c_bands      :      2.65s CPU      2.04s WALL (      13 calls)
     sum_band     :      1.37s CPU      1.17s WALL (      13 calls)
     v_of_rho     :      0.05s CPU      0.04s WALL (      14 calls)
     newd         :      0.86s CPU      0.73s WALL (      14 calls)
     mix_rho      :      0.03s CPU      0.03s WALL (      13 calls)

     Called by c_bands:
     init_us_2    :      0.10s CPU      0.08s WALL (     174 calls)
     init_us_2:cp :      0.10s CPU      0.08s WALL (     174 calls)
     cegterg      :      2.43s CPU      1.85s WALL (      78 calls)

     Called by *egterg:
     cdiaghg      :      0.41s CPU      0.31s WALL (     359 calls)
     h_psi        :      1.71s CPU      1.32s WALL (     365 calls)
     s_psi        :      0.07s CPU      0.06s WALL (     365 calls)
     g_psi        :      0.02s CPU      0.01s WALL (     281 calls)

     Called by h_psi:
     h_psi:calbec :      0.10s CPU      0.08s WALL (     365 calls)
     vloc_psi     :      1.52s CPU      1.18s WALL (     365 calls)
     add_vuspsi   :      0.08s CPU      0.06s WALL (     365 calls)

     General routines
     calbec       :      0.14s CPU      0.11s WALL (     473 calls)
     fft          :      0.23s CPU      0.22s WALL (      87 calls)
     ffts         :      0.03s CPU      0.04s WALL (      27 calls)
     fftw         :      1.45s CPU      1.13s WALL (   11408 calls)
     interpolate  :      0.04s CPU      0.04s WALL (      14 calls)

     Parallel routines

     PWSCF        :      7.17s CPU      6.73s WALL


   This run was terminated on:  18: 5:44   2Nov2023            

=------------------------------------------------------------------------------=
   JOB DONE.
=------------------------------------------------------------------------------=
